Title
82320
    1SAPS     N    1   2.135   5.771  11.251  0.3402  0.1025 -0.7896
    1SAPS   HN1    2   2.228   5.783  11.296 -0.8994 -0.4614  2.0941
    1SAPS   HN2    3   2.063   5.750  11.322 -0.8797 -0.1681 -2.0513
    1SAPS   HN3    4   2.147   5.686  11.192  2.9962 -0.1177 -0.0800
    1SAPS   C12    5   2.093   5.895  11.182 -0.0914  0.0449 -0.3092
    1SAPS  H12A    6   2.000   5.874  11.131  0.1881  1.5666 -1.5038
    1SAPS   C13    7   2.095   6.014  11.277 -0.0091 -0.1337 -0.2519
    1SAPS  O13A    8   2.114   6.003  11.400 -0.3279  0.1709 -0.1616
    1SAPS  O13B    9   2.036   6.123  11.236 -0.6127 -0.0926 -0.4028
    1SAPS   C11   10   2.203   5.926  11.072 -0.3339 -0.3123  0.1153
    1SAPS  H11A   11   2.288   5.979  11.121  0.6822 -1.8417  0.0734
    1SAPS  H11B   12   2.152   5.986  10.993  1.0182 -0.8039 -1.1762
    1SAPS     P   13   2.268   5.764  10.868  0.3256  0.3499  0.0539
    1SAPS   O13   14   2.400   5.789  10.814  0.7117  0.2233 -0.4303
    1SAPS   O14   15   2.217   5.622  10.857  0.6855 -0.4358  0.6806
    1SAPS   O12   16   2.260   5.801  11.019 -0.1625  0.1575  0.1127
    1SAPS   O11   17   2.171   5.871  10.803 -0.0165  0.2971 -0.1634
    1SAPS    C1   18   2.031   5.862  10.801  0.0067  1.0746  0.2107
    1SAPS    HA   19   1.989   5.812  10.891 -0.7055 -0.0581 -0.7115
    1SAPS    HB   20   1.984   5.961  10.781 -0.2633  0.8528 -0.2763
    1SAPS    C2   21   1.985   5.771  10.683  0.6247 -0.2230  0.7593
    1SAPS    HS   22   2.047   5.679  10.685  0.9605 -0.0240 -0.0921
    1SAPS   O21   23   2.012   5.837  10.563 -0.3456 -0.3417  0.1717
    1SAPS   C21   24   2.049   5.768  10.458  0.6792 -0.2355  0.2823
    1SAPS   O22   25   2.074   5.648  10.459 -0.1168 -0.0535 -0.1614
    1SAPS   C22   26   2.042   5.841  10.325  0.0017 -0.0381  0.1424
    1SAPS   H2R   27   1.942   5.888  10.327 -1.5057 -3.0007  1.3706
    1SAPS   H2S   28   2.115   5.924  10.316 -1.3067  1.2157  0.6017
    1SAPS    C3   29   1.838   5.730  10.697 -0.0721  0.5598 -0.9425
    1SAPS    HX   30   1.782   5.820  10.664 -0.8815  0.6582  0.5853
    1SAPS    HY   31   1.818   5.699  10.802 -0.8768  1.2261 -0.8934
    1SAPS   O31   32   1.805   5.619  10.610  0.5451  0.0951 -0.2741
    1SAPS   C31   33   1.670   5.599  10.591 -0.5332 -0.1725  0.0522
    1SAPS   O32   34   1.584   5.662  10.646  0.1387 -0.3039 -0.3588
    1SAPS   C32   35   1.637   5.492  10.484  0.3015  0.5431  0.4322
    1SAPS   H2X   36   1.531   5.461  10.495  0.7288 -1.3370 -0.3576
    1SAPS   H2Y   37   1.693   5.402  10.521  0.8967 -0.0478 -1.7762
    1SAPS   C23   38   2.059   5.750  10.199  0.0802 -0.3745  0.4665
    1SAPS   H3R   39   1.981   5.672  10.209 -0.0278 -0.2233  0.8110
    1SAPS   H3S   40   2.157   5.698  10.197 -0.3325 -1.1516 -0.6976
    1SAPS   C24   41   2.035   5.817  10.063  0.4886 -0.3179  0.2639
    1SAPS   H4R   42   1.932   5.859  10.058  0.8386  0.7473  1.4683
    1SAPS   H4S   43   2.043   5.733   9.991  0.4106  1.4921 -1.9933
    1SAPS   C25   44   2.137   5.921  10.020  0.4606  0.0563 -0.0087
    1SAPS   H5R   45   2.187   5.976  10.102  1.6929 -1.9076  0.6205
    1SAPS   C26   46   2.164   5.947   9.892 -0.0764 -0.2269 -0.3276
    1SAPS   H6R   47   2.239   6.022   9.866 -1.3650  0.3700 -2.6540
    1SAPS   C27   48   2.103   5.880   9.772 -0.0760  0.9041 -0.7164
    1SAPS   H7R   49   2.014   5.818   9.795  1.0011 -0.9675 -1.3408
    1SAPS   H7S   50   2.178   5.811   9.728 -1.0679  0.1832 -1.3178
    1SAPS   C28   51   2.052   5.971   9.668  0.3899 -0.0054 -0.0723
    1SAPS   H8R   52   1.999   6.059   9.707 -0.5832 -1.0877  1.1141
    1SAPS   C29   53   2.069   5.967   9.537 -0.5987 -0.2383 -0.6028
    1SAPS   H9R   54   2.040   6.051   9.472  1.7169 -0.3976 -1.9870
    1SAPS  C210   55   2.137   5.859   9.459 -0.4916 -0.4799  0.5008
    1SAPS  H10R   56   2.062   5.781   9.433 -1.0906  0.8280 -2.0572
    1SAPS  H10S   57   2.214   5.800   9.513  0.3707 -0.7925 -1.0078
    1SAPS  C211   58   2.210   5.919   9.336 -0.3326 -0.6704  0.5775
    1SAPS  H11R   59   2.294   5.989   9.350 -2.6241  2.4732 -0.2763
    1SAPS  C212   60   2.173   5.903   9.207 -0.2346  0.0942  0.9290
    1SAPS  H12R   61   2.251   5.937   9.137 -0.9739 -0.3119 -0.1145
    1SAPS  C213   62   2.066   5.819   9.146 -0.4575  0.3608 -0.4041
    1SAPS  H13R   63   2.013   5.756   9.220  0.7838 -0.2059  0.0245
    1SAPS  H13S   64   2.118   5.748   9.079  1.8096 -1.3083  2.9029
    1SAPS  C214   65   1.961   5.908   9.085 -0.2856 -0.0318  0.3346
    1SAPS  H14R   66   1.892   5.957   9.156  0.5818  0.0264  1.1551
    1SAPS  C215   67   1.956   5.932   8.948  0.3665 -0.8174 -0.4433
    1SAPS  H15R   68   1.880   6.000   8.906  0.3423 -1.1370 -0.9228
    1SAPS  C216   69   2.046   5.869   8.842 -0.0926  0.2181  0.4159
    1SAPS  H16R   70   1.983   5.813   8.770 -0.2885  1.2910 -0.2601
    1SAPS  H16S   71   2.113   5.789   8.882 -1.8538 -1.8010 -0.4908
    1SAPS  C217   72   2.135   5.973   8.775 -0.2879 -0.3474  0.0721
    1SAPS  H17R   73   2.203   6.023   8.847  0.7901  1.5291 -2.1358
    1SAPS  H17S   74   2.073   6.057   8.738  2.0620  0.9668 -1.1372
    1SAPS  C218   75   2.216   5.911   8.655  0.1952  1.6687  0.2039
    1SAPS  H18R   76   2.148   5.876   8.575  0.7301  1.4529 -0.1563
    1SAPS  H18S   77   2.263   5.820   8.700 -0.4979  1.9567  1.5928
    1SAPS  C219   78   2.320   6.005   8.599 -0.2665 -0.0252  0.2026
    1SAPS  H19R   79   2.375   6.036   8.690 -1.4351 -0.8944  1.2468
    1SAPS  H19S   80   2.278   6.101   8.563 -1.1389 -0.9530 -1.3849
    1SAPS  C220   81   2.404   5.948   8.491  0.1509  0.7174  0.0844
    1SAPS  H20R   82   2.369   5.984   8.391 -0.7840  0.7525  0.4073
    1SAPS  H20S   83   2.401   5.837   8.502 -1.4484  0.7602  0.4347
    1SAPS  H20T   84   2.502   5.998   8.496  1.8865 -2.2988 -1.0710
    1SAPS   C33   85   1.684   5.519  10.337  0.6011 -0.3133 -0.0135
    1SAPS   H3X   86   1.791   5.486  10.334  1.3083  1.5724  1.8005
    1SAPS   H3Y   87   1.701   5.629  10.330 -0.3919 -0.0594  1.2637
    1SAPS   C34   88   1.589   5.450  10.237 -0.0288  0.2614  0.2472
    1SAPS   H4X   89   1.493   5.504  10.222  0.0770  0.9565  1.8730
    1SAPS   H4Y   90   1.551   5.357  10.282 -1.3137  0.9107  0.5441
    1SAPS   C35   91   1.648   5.409  10.102 -0.0511 -0.2697 -1.2704
    1SAPS   H5X   92   1.569   5.350  10.051 -3.0810  3.6742 -1.5355
    1SAPS   H5Y   93   1.735   5.346  10.131 -0.3794 -0.7930 -1.4143
    1SAPS   C36   94   1.700   5.524  10.024 -0.6293  0.4456  0.2602
    1SAPS   H6X   95   1.741   5.610  10.082  2.6040 -0.7553 -0.0495
    1SAPS   H6Y   96   1.622   5.575   9.963  1.4622  2.1696 -1.0869
    1SAPS   C37   97   1.812   5.491   9.924 -0.0385  0.2377 -0.3126
    1SAPS   H7X   98   1.794   5.402   9.860  1.5673 -0.9961  0.8577
    1SAPS   H7Y   99   1.905   5.467   9.980  0.7566 -3.5315 -2.8313
    1SAPS   C38  100   1.833   5.609   9.822 -1.1886 -0.5507 -0.0910
    1SAPS   H8X  101   1.937   5.596   9.786 -0.7905  1.8320  0.0518
    1SAPS   H8Y  102   1.825   5.713   9.861  0.6349  1.2025 -3.8544
    1SAPS   C39  103   1.727   5.594   9.706 -1.0643 -0.0854  0.1743
    1SAPS   H9X  104   1.628   5.616   9.753 -0.2421  2.5166  0.8524
    1SAPS   H9Y  105   1.735   5.496   9.654 -1.4389  0.3668 -0.7500
    1SAPS  C310  106   1.751   5.694   9.590 -0.1814  1.6128 -0.4666
    1SAPS  H10X  107   1.852   5.684   9.545 -0.4099 -4.6602 -0.4992
    1SAPS  H10Y  108   1.749   5.798   9.628 -1.1365  0.9255  1.4691
    1SAPS  C311  109   1.642   5.679   9.478 -0.0710 -0.4149  0.3809
    1SAPS  H11X  110   1.540   5.691   9.521 -1.5857 -0.2094 -2.9333
    1SAPS  H11Y  111   1.635   5.580   9.429 -3.6780 -0.2593  0.2745
    1SAPS  C312  112   1.674   5.787   9.373 -0.3181  0.3656 -0.4389
    1SAPS  H12X  113   1.759   5.756   9.310  1.7426  1.1208  1.8240
    1SAPS  H12Y  114   1.710   5.874   9.432 -0.7718  0.7324 -0.6884
    1SAPS  C313  115   1.550   5.832   9.295  0.1253 -0.7307  0.2910
    1SAPS  H13X  116   1.567   5.937   9.262 -0.9570 -0.6696 -0.1046
    1SAPS  H13Y  117   1.457   5.838   9.354 -0.1974 -2.3747 -0.0252
    1SAPS  C314  118   1.541   5.746   9.176  0.8028  0.1059 -0.1432
    1SAPS  H14X  119   1.532   5.639   9.205 -0.0263  0.3973  0.7037
    1SAPS  H14Y  120   1.634   5.762   9.116  1.8023  0.2513  1.4085
    1SAPS  C315  121   1.435   5.795   9.080  0.5786 -1.0696 -0.3578
    1SAPS  H15X  122   1.491   5.868   9.017 -0.7591  1.8646  1.5902
    1SAPS  H15Y  123   1.344   5.843   9.124 -0.1733 -0.9835 -1.9401
    1SAPS  C316  124   1.386   5.685   8.979  0.2258  0.2917  0.3675
    1SAPS  H16X  125   1.328   5.605   9.029 -1.2157  0.3789 -1.0764
    1SAPS  H16Y  126   1.475   5.639   8.932 -0.0995  1.6195 -1.6759
    1SAPS  C317  127   1.292   5.740   8.873 -0.1490 -0.1962 -0.2051
    1SAPS  H17X  128   1.295   5.680   8.780  2.9747 -0.0496 -0.2789
    1SAPS  H17Y  129   1.329   5.841   8.845 -0.7129 -0.3130 -1.4266
    1SAPS  C318  130   1.147   5.754   8.924  0.4395  0.6123  0.6169
    1SAPS  H18X  131   1.096   5.656   8.908 -1.6648  1.5448  1.3436
    1SAPS  H18Y  132   1.092   5.825   8.860 -2.0239 -1.7202 -0.0384
    1SAPS  H18Z  133   1.132   5.788   9.029 -2.6171  2.2050 -0.2207
    2SAPS     N  134   6.009   5.970  11.198 -0.7075 -0.0984  1.0029
    2SAPS   HN1  135   6.003   5.870  11.169 -3.2651  0.3506 -0.3321
    2SAPS   HN2  136   6.102   5.989  11.241 -0.4930 -0.5586  0.7584
    2SAPS   HN3  137   5.937   5.985  11.271 -0.1712  2.0089  1.1583
    2SAPS   C12  138   5.977   6.048  11.077  0.4717  0.2000  0.1697
    2SAPS  H12A  139   5.902   5.991  11.024 -1.6042  3.1503 -0.3506
    2SAPS   C13  140   5.908   6.187  11.090  0.2710  0.7952 -0.4724
    2SAPS  O13A  141   5.819   6.197  11.180  0.0571 -0.1725  0.1781
    2SAPS  O13B  142   5.893   6.251  10.986 -0.2641 -0.1772  0.1778
    2SAPS   C11  143   6.102   6.057  10.973 -0.2867  0.0727 -0.5429
    2SAPS  H11A  144   6.178   6.122  11.022 -2.2872  0.4973  2.1617
    2SAPS  H11B  145   6.072   6.105  10.877 -0.7261  1.6399  0.3326
    2SAPS     P  146   6.274   5.911  10.841  0.1151  0.2170  0.4820
    2SAPS   O13  147   6.405   5.975  10.876 -0.4627  0.1288 -0.1812
    2SAPS   O14  148   6.287   5.769  10.811  0.3022  0.7456 -0.6237
    2SAPS   O12  149   6.168   5.933  10.955 -0.2052 -0.2047  0.3128
    2SAPS   O11  150   6.209   5.988  10.721  0.4679 -0.3842  0.1435
    2SAPS    C1  151   6.089   5.929  10.664  0.5125  0.3566 -0.2274
    2SAPS    HA  152   6.100   5.822  10.635 -2.7505  0.3842 -2.0115
    2SAPS    HB  153   6.007   5.928  10.739  0.9767 -1.0545  0.2994
    2SAPS    C2  154   6.034   6.015  10.546  0.1715 -0.3640  0.9508
    2SAPS    HS  155   5.931   5.982  10.520  0.1060 -0.1321  0.9155
    2SAPS   O21  156   6.123   6.008  10.437 -0.2854  0.1079 -0.6398
    2SAPS   C21  157   6.122   5.894  10.371 -0.3410 -0.0163  0.7872
    2SAPS   O22  158   6.069   5.789  10.394  0.2760  0.2875 -0.2064
    2SAPS   C22  159   6.209   5.929  10.247 -0.7647 -0.1355  0.4556
    2SAPS   H2R  160   6.253   6.030  10.257 -3.3256  0.9440  1.5299
    2SAPS   H2S  161   6.294   5.858  10.253 -0.8752 -0.3242 -0.1370
    2SAPS    C3  162   6.011   6.169  10.594 -0.3737  1.4387  0.2053
    2SAPS    HX  163   6.106   6.207  10.635 -0.2848  0.7886  0.6114
    2SAPS    HY  164   5.932   6.164  10.673 -0.9417 -1.0541 -0.4140
    2SAPS   O31  165   5.954   6.248  10.492 -0.0815 -0.3339  0.1854
    2SAPS   C31  166   6.045   6.302  10.412 -1.3204  0.4283 -0.1179
    2SAPS   O32  167   6.169   6.284  10.413  0.7364 -0.3598  0.2240
    2SAPS   C32  168   5.981   6.388  10.309 -0.7452 -1.1294 -0.7550
    2SAPS   H2X  169   5.927   6.467  10.366 -0.1322 -1.3869  0.2061
    2SAPS   H2Y  170   5.895   6.330  10.269  0.9494 -3.5782 -1.0481
    2SAPS   C23  171   6.147   5.919  10.106 -0.7472 -0.5373 -0.5823
    2SAPS   H3R  172   6.083   5.830  10.094 -0.4350 -0.8496  0.0211
    2SAPS   H3S  173   6.228   5.908  10.032  2.4628  0.9689  2.3855
    2SAPS   C24  174   6.064   6.045  10.074 -0.5604 -0.6215  0.2761
    2SAPS   H4R  175   6.102   6.097   9.983 -2.0416  2.5090  1.3176
    2SAPS   H4S  176   6.080   6.115  10.158  1.3762  0.2956 -0.7945
    2SAPS   C25  177   5.924   6.012  10.038 -0.5284  0.3132 -0.1503
    2SAPS   H5R  178   5.849   6.062  10.101 -1.1179 -0.2776 -0.3750
    2SAPS   C26  179   5.880   5.947   9.929  0.5878 -0.5823  0.3913
    2SAPS   H6R  180   5.771   5.933   9.927  0.1526  2.3320 -2.5956
    2SAPS   C27  181   5.965   5.887   9.821  0.2495 -0.1533 -0.1028
    2SAPS   H7R  182   6.044   5.820   9.861  1.2543 -0.5381 -2.5514
    2SAPS   H7S  183   6.021   5.965   9.766 -2.0667  0.9539 -1.0527
    2SAPS   C28  184   5.882   5.795   9.728  0.6463  0.4004 -0.6421
    2SAPS   H8R  185   5.815   5.722   9.775  1.4106 -0.9339 -1.5686
    2SAPS   C29  186   5.899   5.775   9.602  0.7433  0.2261  0.1220
    2SAPS   H9R  187   5.835   5.703   9.548  0.6687  1.6425 -1.7550
    2SAPS  C210  188   6.003   5.845   9.517  0.0381 -0.6797  0.1740
    2SAPS  H10R  189   6.092   5.837   9.582 -0.1460 -0.6333  0.4372
    2SAPS  H10S  190   5.972   5.952   9.505  0.1986 -0.8320 -2.0659
    2SAPS  C211  191   6.017   5.791   9.375  0.1713 -0.0498 -0.7258
    2SAPS  H11R  192   6.010   5.682   9.380 -2.3357  0.1030  2.0034
    2SAPS  C212  193   6.035   5.860   9.266 -0.5044  0.3186  0.1571
    2SAPS  H12R  194   6.034   5.804   9.171  0.0873  0.3226  0.1481
    2SAPS  C213  195   6.045   6.010   9.241  0.3089  0.2831  0.1607
    2SAPS  H13R  196   6.113   6.050   9.319  0.7558  0.1040 -0.1348
    2SAPS  H13S  197   5.948   6.055   9.273  0.2583  0.5167 -0.3068
    2SAPS  C214  198   6.110   6.045   9.109 -0.3993 -0.2491 -0.0955
    2SAPS  H14R  199   6.219   6.050   9.124 -0.4378 -0.8900  0.4600
    2SAPS  C215  200   6.062   6.035   8.981 -0.3573  0.0153 -0.1169
    2SAPS  H15R  201   6.139   6.038   8.903  2.2245 -0.5304  2.2483
    2SAPS  C216  202   5.920   5.995   8.945 -0.7030  0.3107  1.0604
    2SAPS  H16R  203   5.865   5.948   9.029  0.5444  0.3516  1.9192
    2SAPS  H16S  204   5.919   5.905   8.879 -0.5535 -0.5357  2.1808
    2SAPS  C217  205   5.840   6.120   8.902  0.3261 -0.5059  0.1721
    2SAPS  H17R  206   5.853   6.216   8.957  1.4608 -0.1499 -0.6726
    2SAPS  H17S  207   5.735   6.099   8.931  0.7896 -3.9628 -0.1908
    2SAPS  C218  208   5.847   6.138   8.750 -0.3330 -0.2727  0.6202
    2SAPS  H18R  209   5.801   6.048   8.704 -0.5758  0.0178  0.2842
    2SAPS  H18S  210   5.954   6.139   8.720 -0.5647 -0.3033 -0.2357
    2SAPS  C219  211   5.770   6.266   8.690 -0.2029 -0.3572 -0.3782
    2SAPS  H19R  212   5.807   6.358   8.740 -1.4874  0.0873 -0.2211
    2SAPS  H19S  213   5.664   6.264   8.723 -0.0427 -0.3955  0.1469
    2SAPS  C220  214   5.786   6.284   8.538 -0.8298  0.1007  0.0769
    2SAPS  H20R  215   5.890   6.287   8.499 -0.3409 -1.4299  1.1508
    2SAPS  H20S  216   5.738   6.378   8.506  0.4495  1.3596  1.6549
    2SAPS  H20T  217   5.734   6.197   8.493  1.7778 -0.1213 -2.8500
    2SAPS   C33  218   6.074   6.445  10.193  0.2212 -0.3716  0.2760
    2SAPS   H3X  219   6.143   6.365  10.158  0.6225 -0.4863  1.2906
    2SAPS   H3Y  220   6.136   6.529  10.232 -3.6611  2.3332  1.3187
    2SAPS   C34  221   5.982   6.491  10.074 -0.8043  0.2174 -1.0629
    2SAPS   H4X  222   6.043   6.551  10.003  1.8107  0.1161  0.9316
    2SAPS   H4Y  223   5.896   6.545  10.119  0.5028  0.3962  1.4088
    2SAPS   C35  224   5.927   6.370   9.991 -0.1028 -0.4020  0.5185
    2SAPS   H5X  225   5.872   6.295  10.052  0.1455  0.3087  1.6378
    2SAPS   H5Y  226   6.027   6.330   9.962 -0.0301 -0.6014  1.0448
    2SAPS   C36  227   5.853   6.400   9.862 -0.2893 -0.0895 -0.1518
    2SAPS   H6X  228   5.759   6.453   9.888  0.0551  0.8779 -0.8645
    2SAPS   H6Y  229   5.843   6.302   9.811  2.2391 -0.6423  0.2969
    2SAPS   C37  230   5.932   6.480   9.753 -0.3816  0.6031 -0.6011
    2SAPS   H7X  231   6.036   6.442   9.744 -0.7966 -0.6599 -0.3032
    2SAPS   H7Y  232   5.919   6.584   9.790 -1.8284  0.0488  0.5265
    2SAPS   C38  233   5.860   6.464   9.625  0.4904 -0.8982 -0.4444
    2SAPS   H8X  234   5.755   6.499   9.625  1.4541  2.7414 -3.5755
    2SAPS   H8Y  235   5.853   6.363   9.580  0.1015  0.5335 -3.9883
    2SAPS   C39  236   5.922   6.558   9.517 -0.6940 -0.4856 -0.1230
    2SAPS   H9X  237   6.032   6.556   9.531 -0.6463  0.3304 -0.3309
    2SAPS   H9Y  238   5.888   6.664   9.526 -1.7388 -0.9235  1.7214
    2SAPS  C310  239   5.895   6.503   9.382 -0.0229 -0.3935  0.1494
    2SAPS  H10X  240   5.787   6.491   9.359 -0.2205  0.7750  0.4090
    2SAPS  H10Y  241   5.923   6.396   9.380 -0.3096 -0.4926  0.8838
    2SAPS  C311  242   5.962   6.579   9.266 -0.2141  0.2080 -0.3719
    2SAPS  H11X  243   6.066   6.612   9.288 -0.3731 -0.0047  0.7597
    2SAPS  H11Y  244   5.907   6.671   9.236 -0.3125  0.5660  0.8492
    2SAPS  C312  245   5.949   6.485   9.145  0.0092  0.3304 -0.0425
    2SAPS  H12X  246   5.846   6.448   9.128  0.6523 -0.4101 -2.9222
    2SAPS  H12Y  247   6.011   6.400   9.180  0.1148  0.8458  1.0577
    2SAPS  C313  248   5.999   6.544   9.016  0.1316 -0.3676  0.5152
    2SAPS  H13X  249   6.024   6.463   8.944  0.0331  0.5940 -0.6553
    2SAPS  H13Y  250   6.100   6.576   9.050  1.4307 -1.8167 -1.7181
    2SAPS  C314  251   5.915   6.654   8.950 -0.0478  0.4173 -0.1809
    2SAPS  H14X  252   5.886   6.740   9.014 -3.5619 -1.0103  0.3588
    2SAPS  H14Y  253   5.816   6.613   8.921 -0.9951  1.1868  1.7859
    2SAPS  C315  254   5.981   6.704   8.820 -0.3567 -0.1470  0.6403
    2SAPS  H15X  255   6.089   6.731   8.828  0.0273 -0.7466 -1.7756
    2SAPS  H15Y  256   5.934   6.802   8.800  0.2947  0.0264 -0.0954
    2SAPS  C316  257   5.953   6.609   8.689 -0.1498  0.4154 -0.4486
    2SAPS  H16X  258   5.846   6.581   8.695  0.0064  0.0817  2.2201
    2SAPS  H16Y  259   6.012   6.515   8.701 -1.4299 -0.3055  0.4646
    2SAPS  C317  260   5.981   6.686   8.564  0.2267 -0.8175  0.4058
    2SAPS  H17X  261   5.905   6.767   8.557  1.3174  0.1803 -0.2050
    2SAPS  H17Y  262   5.969   6.620   8.475 -2.1022  1.6191 -1.2553
    2SAPS  C318  263   6.118   6.760   8.554  0.1397 -0.1591  0.5126
    2SAPS  H18X  264   6.119   6.822   8.646 -1.3543  0.5023  0.1096
    2SAPS  H18Y  265   6.127   6.817   8.460 -1.6461 -1.2774 -0.3846
    2SAPS  H18Z  266   6.208   6.696   8.569  0.0783 -0.7926 -1.5352
    3SAPS     N  267   6.016   0.382  10.694 -0.4181  1.5782  0.1716
    3SAPS   HN1  268   6.043   0.295  10.644  0.5215  2.1275 -0.3029
    3SAPS   HN2  269   5.947   0.426  10.630  1.5845 -1.5203 -4.7102
    3SAPS   HN3  270   6.100   0.443  10.698  1.9047 -1.3020 -1.0330
    3SAPS   C12  271   5.988   0.336  10.833 -0.4234  0.1972  0.8641
    3SAPS  H12A  272   6.031   0.417  10.889 -0.6402  1.5317 -0.8091
    3SAPS   C13  273   5.835   0.325  10.853 -0.1969  0.7322  0.0681
    3SAPS  O13A  274   5.750   0.366  10.768 -0.7722  0.2807 -0.3460
    3SAPS  O13B  275   5.797   0.298  10.969  0.0685  0.5284 -0.1805
    3SAPS   C11  276   6.068   0.209  10.865 -0.2903  0.2785  0.0188
    3SAPS  H11A  277   6.037   0.176  10.966  0.1768 -1.5436 -0.3918
    3SAPS  H11B  278   6.178   0.217  10.878 -0.3472 -0.8105  1.3596
    3SAPS     P  279   6.045  -0.052  10.817  0.0762  0.0233  0.1950
    3SAPS   O13  280   6.113  -0.075  10.948 -0.1175  0.4070  0.5303
    3SAPS   O14  281   5.910  -0.107  10.806  0.1762  0.2021  0.3478
    3SAPS   O12  282   6.048   0.105  10.772 -0.1363  0.4081  0.0176
    3SAPS   O11  283   6.137  -0.125  10.714 -0.0055  0.2237 -0.2079
    3SAPS    C1  284   6.266  -0.072  10.677 -0.4050 -0.0955 -0.0709
    3SAPS    HA  285   6.287   0.033  10.705  0.1252  0.7021 -3.0461
    3SAPS    HB  286   6.351  -0.119  10.730 -2.1841 -0.9480  2.1870
    3SAPS    C2  287   6.291  -0.096  10.537  0.4855 -0.2979  0.4690
    3SAPS    HS  288   6.379  -0.043  10.493  0.0505 -0.8248 -1.0876
    3SAPS   O21  289   6.169  -0.078  10.458 -0.0154  0.1207 -0.8494
    3SAPS   C21  290   6.127   0.048  10.451  0.6237 -0.5848 -0.1390
    3SAPS   O22  291   6.181   0.147  10.504  0.4406 -0.3602 -0.2178
    3SAPS   C22  292   6.018   0.052  10.337  0.2055  0.0537 -0.3529
    3SAPS   H2R  293   6.037  -0.044  10.284 -1.1788 -1.7372  2.2094
    3SAPS   H2S  294   5.919   0.057  10.388  0.4888  3.9097  0.1318
    3SAPS    C3  295   6.333  -0.245  10.515  0.9620 -0.0775  0.3523
    3SAPS    HX  296   6.250  -0.304  10.559  0.9061 -0.1520  0.1495
    3SAPS    HY  297   6.417  -0.267  10.584 -0.1396 -0.9721  1.4683
    3SAPS   O31  298   6.358  -0.271  10.369  0.1305  0.0119 -0.3227
    3SAPS   C31  299   6.433  -0.376  10.361 -0.4711 -0.1586  0.2044
    3SAPS   O32  300   6.466  -0.455  10.451  0.3660 -0.1691 -0.3560
    3SAPS   C32  301   6.460  -0.401  10.212  0.7661  0.8339  0.1539
    3SAPS   H2X  302   6.554  -0.348  10.186  0.6568  1.3001  0.6918
    3SAPS   H2Y  303   6.379  -0.367  10.145  1.5497 -1.5916 -2.1994
    3SAPS   C23  304   6.043   0.180  10.249  0.4073  1.3255 -0.6172
    3SAPS   H3R  305   6.131   0.167  10.182 -0.9224 -0.2037 -2.1716
    3SAPS   H3S  306   6.061   0.276  10.301  2.1379  1.7134 -1.8241
    3SAPS   C24  307   5.915   0.211  10.167 -0.3721  0.3700  0.0131
    3SAPS   H4R  308   5.928   0.313  10.127  2.6944  0.3703  0.8005
    3SAPS   H4S  309   5.821   0.220  10.226 -1.0984 -0.6728 -0.9413
    3SAPS   C25  310   5.912   0.115  10.045 -0.5746 -0.2567  0.2141
    3SAPS   H5R  311   5.920   0.007  10.061  0.8459 -0.4298 -1.3553
    3SAPS   C26  312   5.930   0.152   9.917  0.5904 -0.5323  0.2438
    3SAPS   H6R  313   5.931   0.074   9.840 -1.2703 -0.0538 -0.2995
    3SAPS   C27  314   5.949   0.298   9.870 -0.3114  0.5318 -0.3332
    3SAPS   H7R  315   6.058   0.322   9.863  0.2636 -1.6676  0.4512
    3SAPS   H7S  316   5.901   0.374   9.936  0.9724  0.3219  0.9115
    3SAPS   C28  317   5.880   0.312   9.734  0.3394 -0.1482 -0.0903
    3SAPS   H8R  318   5.770   0.314   9.730  0.3423  0.5257  0.0559
    3SAPS   C29  319   5.942   0.327   9.616 -0.6984  0.0581  0.1100
    3SAPS   H9R  320   5.871   0.342   9.533  0.4406  1.4930 -0.6721
    3SAPS  C210  321   6.091   0.331   9.595  0.1952 -0.3503  0.5300
    3SAPS  H10R  322   6.146   0.261   9.660 -1.2763 -1.1960  0.9163
    3SAPS  H10S  323   6.115   0.428   9.644  2.3868 -0.6652  0.1426
    3SAPS  C211  324   6.146   0.347   9.455 -0.1875  0.2469 -0.1709
    3SAPS  H11R  325   6.227   0.421   9.457  0.2037 -0.1114  2.6527
    3SAPS  C212  326   6.110   0.290   9.341 -0.3154  0.5975 -0.0620
    3SAPS  H12R  327   6.169   0.314   9.251 -1.2870  0.6064 -0.7137
    3SAPS  C213  328   6.001   0.193   9.319  0.7644 -0.2894  0.1261
    3SAPS  H13R  329   5.907   0.231   9.364  0.8673 -1.0850  1.0614
    3SAPS  H13S  330   6.020   0.103   9.381 -2.6198  0.1160  2.0060
    3SAPS  C214  331   5.977   0.140   9.182 -0.2065 -0.2446  0.3529
    3SAPS  H14R  332   6.057   0.074   9.146  0.3364  1.2672 -1.3776
    3SAPS  C215  333   5.872   0.174   9.095 -0.4754 -0.1652 -0.4361
    3SAPS  H15R  334   5.867   0.137   8.992  0.4892 -1.4421 -0.0457
    3SAPS  C216  335   5.771   0.283   9.127 -0.5738  0.1116  0.0952
    3SAPS  H16R  336   5.778   0.339   9.223 -0.9433  2.0931 -0.9932
    3SAPS  H16S  337   5.667   0.245   9.118 -0.1590 -0.5713 -3.0673
    3SAPS  C217  338   5.796   0.402   9.034 -0.1720  0.3433 -0.4781
    3SAPS  H17R  339   5.896   0.448   9.040 -0.4042  0.6494  3.0193
    3SAPS  H17S  340   5.720   0.478   9.059 -0.2391 -0.3431  1.5905
    3SAPS  C218  341   5.769   0.365   8.888 -0.5137 -1.2690 -0.8563
    3SAPS  H18R  342   5.678   0.307   8.863  0.4575 -2.5056 -1.6218
    3SAPS  H18S  343   5.861   0.311   8.857  1.5765  0.8254  1.2666
    3SAPS  C219  344   5.760   0.494   8.802  0.4366 -0.4885 -0.7778
    3SAPS  H19R  345   5.845   0.562   8.821  0.9658 -0.9689 -1.3644
    3SAPS  H19S  346   5.666   0.545   8.833 -0.0385 -1.3483 -0.7731
    3SAPS  C220  347   5.733   0.468   8.651  0.0882 -0.4321  0.3817
    3SAPS  H20R  348   5.647   0.398   8.641  0.0649 -0.3147 -0.2870
    3SAPS  H20S  349   5.819   0.410   8.612  0.8718  1.0373 -0.1491
    3SAPS  H20T  350   5.716   0.562   8.595 -1.5072 -1.2633 -0.6040
    3SAPS   C33  351   6.487  -0.550  10.183  0.2200  1.0324 -0.3615
    3SAPS   H3X  352   6.422  -0.612  10.248  1.5420  0.0381  0.0552
    3SAPS   H3Y  353   6.588  -0.580  10.217  0.0945 -0.0068 -0.8491
    3SAPS   C34  354   6.475  -0.593  10.032  0.0666 -0.6792 -0.2676
    3SAPS   H4X  355   6.551  -0.524   9.988 -0.4856  1.0542  1.3774
    3SAPS   H4Y  356   6.377  -0.561   9.991  0.1627 -1.5533 -1.1986
    3SAPS   C35  357   6.502  -0.738   9.992 -0.8230 -0.1856  1.3402
    3SAPS   H5X  358   6.424  -0.810  10.023 -2.4397  1.6465  1.7468
    3SAPS   H5Y  359   6.595  -0.774  10.041  0.6330  0.7803 -0.5595
    3SAPS   C36  360   6.512  -0.766   9.839  0.4140 -0.4213  0.2429
    3SAPS   H6X  361   6.587  -0.706   9.783  0.9317 -1.5200 -0.2951
    3SAPS   H6Y  362   6.410  -0.755   9.796  0.7062 -0.6136 -0.5174
    3SAPS   C37  363   6.561  -0.916   9.824  0.4001  0.6305  0.2187
    3SAPS   H7X  364   6.516  -0.971   9.910 -0.2514  1.7736  0.6461
    3SAPS   H7Y  365   6.671  -0.927   9.824  0.2412 -1.5312  1.6853
    3SAPS   C38  366   6.513  -0.985   9.699  0.6770 -0.0735  0.4037
    3SAPS   H8X  367   6.404  -0.971   9.683  0.9308 -0.4691 -2.2564
    3SAPS   H8Y  368   6.536  -1.093   9.716  3.1491  0.3363  0.0694
    3SAPS   C39  369   6.578  -0.936   9.569 -0.5044  0.2887  0.3979
    3SAPS   H9X  370   6.686  -0.960   9.575 -0.4437  0.7980  1.4497
    3SAPS   H9Y  371   6.565  -0.826   9.555  0.2394  0.0512 -3.0506
    3SAPS  C310  372   6.516  -0.995   9.441  0.1564 -0.0504 -0.1259
    3SAPS  H10X  373   6.406  -1.002   9.456 -0.0236 -3.6746 -2.0486
    3SAPS  H10Y  374   6.557  -1.098   9.434  0.6661  0.2079 -1.0112
    3SAPS  C311  375   6.537  -0.925   9.306  0.1627  0.6046 -0.3787
    3SAPS  H11X  376   6.647  -0.925   9.290  0.1289 -1.7714 -1.0007
    3SAPS  H11Y  377   6.503  -0.819   9.311  0.9088  0.8055  0.7931
    3SAPS  C312  378   6.480  -0.989   9.178  0.3004 -0.4988  0.2830
    3SAPS  H12X  379   6.369  -0.989   9.180  0.3075 -1.2719  1.1629
    3SAPS  H12Y  380   6.513  -1.095   9.172  0.8842 -0.2543 -3.2257
    3SAPS  C313  381   6.519  -0.901   9.055 -0.1155 -0.3518  0.2299
    3SAPS  H13X  382   6.630  -0.892   9.048 -0.1719 -0.8372 -2.3836
    3SAPS  H13Y  383   6.472  -0.801   9.061  0.8543  0.0788  0.9818
    3SAPS  C314  384   6.469  -0.971   8.924  0.5383 -0.7445 -0.3223
    3SAPS  H14X  385   6.363  -1.001   8.937 -0.5537  1.9548 -2.1471
    3SAPS  H14Y  386   6.522  -1.061   8.887  1.8677 -0.2812  0.3645
    3SAPS  C315  387   6.458  -0.875   8.801  0.1066  0.3540 -0.3438
    3SAPS  H15X  388   6.389  -0.789   8.814  1.0794  0.9752  1.1148
    3SAPS  H15Y  389   6.428  -0.939   8.716  0.5161 -0.9502  0.4589
    3SAPS  C316  390   6.599  -0.825   8.765  0.0078 -0.4182 -0.4587
    3SAPS  H16X  391   6.672  -0.906   8.786 -0.9421 -0.9602  0.8973
    3SAPS  H16Y  392   6.631  -0.748   8.839  1.0917  0.8589 -2.1627
    3SAPS  C317  393   6.610  -0.766   8.626 -0.1328 -0.0232  0.1744
    3SAPS  H17X  394   6.519  -0.705   8.610 -0.2522 -0.0869  0.5855
    3SAPS  H17Y  395   6.610  -0.839   8.542  0.5443  1.3624 -1.0789
    3SAPS  C318  396   6.722  -0.668   8.595 -0.2422  0.3859 -0.0087
    3SAPS  H18X  397   6.706  -0.622   8.496  1.0704 -0.6899 -0.7514
    3SAPS  H18Y  398   6.819  -0.723   8.594 -0.5280 -0.1232 -0.8479
    3SAPS  H18Z  399   6.727  -0.587   8.671 -2.1761 -0.1525  0.7581
    4SAPS     N  400   0.961   1.351  10.803  0.7110  0.2819 -0.2038
    4SAPS   HN1  401   0.888   1.292  10.849  2.3024 -0.1898  1.8584
    4SAPS   HN2  402   0.915   1.431  10.756 -1.9399 -0.7599  0.4010
    4SAPS   HN3  403   0.995   1.290  10.726  1.6730 -0.1968  0.5765
    4SAPS   C12  404   1.075   1.379  10.895 -0.3374 -0.2450 -0.2170
    4SAPS  H12A  405   1.084   1.486  10.897 -2.8047  0.0282 -0.4782
    4SAPS   C13  406   1.060   1.319  11.038 -0.1974 -0.4559  0.0310
    4SAPS  O13A  407   0.952   1.272  11.079  0.1613  0.1327  0.8403
    4SAPS  O13B  408   1.158   1.330  11.114 -0.4942 -0.0306 -0.3563
    4SAPS   C11  409   1.204   1.320  10.831 -0.5372 -0.1499  0.4771
    4SAPS  H11A  410   1.189   1.210  10.827 -1.1463 -0.0439 -0.4796
    4SAPS  H11B  411   1.289   1.340  10.900 -1.0231 -1.1685  1.4103
    4SAPS     P  412   1.357   1.448  10.659  0.2156 -0.2586 -0.1273
    4SAPS   O13  413   1.354   1.593  10.690 -0.8105 -0.0802 -0.1699
    4SAPS   O14  414   1.464   1.372  10.716 -0.0446 -0.2161  0.5551
    4SAPS   O12  415   1.223   1.370  10.700 -0.2368 -0.4088 -0.4326
    4SAPS   O11  416   1.357   1.441  10.506 -0.5455  0.4446 -0.8811
    4SAPS    C1  417   1.346   1.310  10.436 -0.6905 -0.9426 -0.5470
    4SAPS    HA  418   1.444   1.260  10.450 -0.7938 -0.6810  1.3802
    4SAPS    HB  419   1.268   1.241  10.476 -2.0332  0.3139 -0.9138
    4SAPS    C2  420   1.320   1.326  10.286 -0.0785  0.6831  0.7700
    4SAPS    HS  421   1.306   1.223  10.246 -0.3041  0.8978  0.2871
    4SAPS   O21  422   1.428   1.403  10.239  0.3858  0.2991  0.3476
    4SAPS   C21  423   1.505   1.342  10.158  0.2811  0.1027 -0.1230
    4SAPS   O22  424   1.508   1.221  10.139  0.3710  0.1017 -0.0890
    4SAPS   C22  425   1.584   1.450  10.094  0.4196 -0.1740  0.5803
    4SAPS   H2R  426   1.531   1.547  10.105 -1.1704 -0.9493  0.0538
    4SAPS   H2S  427   1.678   1.464  10.152  1.3660  0.1838 -0.9706
    4SAPS    C3  428   1.185   1.392  10.262  0.3644  0.1683  0.3605
    4SAPS    HX  429   1.187   1.492  10.312  0.3475  0.5970 -0.4829
    4SAPS    HY  430   1.101   1.332  10.305 -1.9058  2.3352 -0.7522
    4SAPS   O31  431   1.148   1.400  10.123  0.0414 -0.6913 -0.2348
    4SAPS   C31  432   1.184   1.512  10.059  0.5704  0.4860 -1.2683
    4SAPS   O32  433   1.233   1.612  10.112  0.1859 -0.5750  0.1352
    4SAPS   C32  434   1.154   1.497   9.909 -0.1893 -0.6284 -1.0123
    4SAPS   H2X  435   1.045   1.476   9.905 -1.1671  3.5187 -1.4349
    4SAPS   H2Y  436   1.222   1.414   9.881  1.2851  0.2307 -0.1381
    4SAPS   C23  437   1.612   1.398   9.953 -1.0348 -0.5753 -0.2522
    4SAPS   H3R  438   1.605   1.288   9.934 -0.3024 -0.7924  0.6968
    4SAPS   H3S  439   1.713   1.435   9.926 -1.9155  2.5070  0.2756
    4SAPS   C24  440   1.532   1.476   9.843 -0.1743 -0.2139 -0.2161
    4SAPS   H4R  441   1.560   1.583   9.853 -1.6228  0.2463 -0.8367
    4SAPS   H4S  442   1.426   1.475   9.876  0.2111  1.1316  1.2356
    4SAPS   C25  443   1.559   1.420   9.712 -0.3333 -0.7440  0.2875
    4SAPS   H5R  444   1.542   1.312   9.699  1.9425 -1.0145 -0.9987
    4SAPS   C26  445   1.618   1.482   9.609 -0.3851 -0.4180 -0.1148
    4SAPS   H6R  446   1.625   1.424   9.516  2.9535 -1.8445  0.8900
    4SAPS   C27  447   1.664   1.625   9.602 -0.1109  0.0078 -1.0371
    4SAPS   H7R  448   1.753   1.639   9.537  0.7967  0.4851  0.2933
    4SAPS   H7S  449   1.700   1.670   9.697 -1.8196  3.4298 -1.8623
    4SAPS   C28  450   1.560   1.720   9.556  0.9267 -0.0036 -0.2335
    4SAPS   H8R  451   1.471   1.720   9.621  0.4287 -0.9566 -0.8856
    4SAPS   C29  452   1.563   1.815   9.465 -0.5367 -0.1159 -0.4211
    4SAPS   H9R  453   1.465   1.862   9.444  0.0428  1.3030 -0.0586
    4SAPS  C210  454   1.676   1.857   9.382  0.5656 -0.1760  0.5427
    4SAPS  H10R  455   1.760   1.869   9.454  0.1438 -0.4306  1.0878
    4SAPS  H10S  456   1.668   1.955   9.330 -0.1042 -0.7683 -0.4850
    4SAPS  C211  457   1.712   1.754   9.278 -0.2032 -0.2468 -0.2295
    4SAPS  H11R  458   1.696   1.648   9.303 -1.5170  0.3363  1.5004
    4SAPS  C212  459   1.762   1.775   9.155  0.0726  0.0750  0.4804
    4SAPS  H12R  460   1.784   1.687   9.093 -1.2105  1.3105 -1.8432
    4SAPS  C213  461   1.805   1.912   9.108 -0.1482 -0.7946 -0.6606
    4SAPS  H13R  462   1.854   1.967   9.192  1.4497 -2.5640 -0.3654
    4SAPS  H13S  463   1.719   1.970   9.068 -1.6701 -0.7338  2.3544
    4SAPS  C214  464   1.905   1.893   8.999  0.2607  0.5297 -0.0064
    4SAPS  H14R  465   2.007   1.867   9.030 -0.0968 -1.3303 -0.2875
    4SAPS  C215  466   1.879   1.886   8.866  0.2510  0.0917 -0.4995
    4SAPS  H15R  467   1.957   1.848   8.797 -0.9639 -1.6324 -1.0129
    4SAPS  C216  468   1.746   1.904   8.800 -0.6181  0.1049 -0.0372
    4SAPS  H16R  469   1.758   1.945   8.697  2.1499  2.1369  0.9805
    4SAPS  H16S  470   1.684   1.984   8.846  1.7758  1.8392  0.4102
    4SAPS  C217  471   1.661   1.778   8.777  0.2815 -0.1624  0.1637
    4SAPS  H17R  472   1.647   1.731   8.876 -1.7206  1.0454  0.5101
    4SAPS  H17S  473   1.725   1.707   8.720  0.6696  0.6064 -0.3823
    4SAPS  C218  474   1.527   1.814   8.713 -0.3893  0.1651 -0.0003
    4SAPS  H18R  475   1.540   1.842   8.606 -1.7740 -3.2625 -1.2053
    4SAPS  H18S  476   1.477   1.890   8.777 -0.1706 -0.1314  0.5309
    4SAPS  C219  477   1.433   1.694   8.691 -0.4756 -0.0017  0.2321
    4SAPS  H19R  478   1.336   1.727   8.648 -2.2147 -2.5195  1.9375
    4SAPS  H19S  479   1.408   1.659   8.793  0.8494  1.5439  1.1265
    4SAPS  C220  480   1.494   1.583   8.599 -0.1857  0.2914 -0.2070
    4SAPS  H20R  481   1.586   1.540   8.645 -1.4822 -1.2475  1.0672
    4SAPS  H20S  482   1.522   1.624   8.500 -1.0599  0.1081 -0.5334
    4SAPS  H20T  483   1.417   1.504   8.588  0.7759 -0.3872 -2.6469
    4SAPS   C33  484   1.180   1.631   9.822  0.7850 -0.7448 -0.8184
    4SAPS   H3X  485   1.267   1.691   9.858  0.9264  0.2464 -2.6498
    4SAPS   H3Y  486   1.099   1.705   9.839  0.4269 -1.4302  0.6296
    4SAPS   C34  487   1.196   1.606   9.667 -0.2689  0.0649 -1.2020
    4SAPS   H4X  488   1.248   1.510   9.650 -0.2128  0.0917 -1.1806
    4SAPS   H4Y  489   1.246   1.694   9.623  0.4110  0.0903 -0.4074
    4SAPS   C35  490   1.066   1.605   9.588  0.0810 -0.2493  0.2682
    4SAPS   H5X  491   1.024   1.706   9.609 -1.6674 -1.0917  1.0525
    4SAPS   H5Y  492   0.996   1.528   9.627 -0.5011  0.1473  0.0087
    4SAPS   C36  493   1.084   1.600   9.440 -0.1765 -0.1216 -0.0043
    4SAPS   H6X  494   1.109   1.495   9.414 -2.6345 -1.4917  2.7323
    4SAPS   H6Y  495   1.167   1.663   9.402 -1.0467  2.2115  1.7563
    4SAPS   C37  496   0.950   1.649   9.367 -0.8732 -0.8872  0.5002
    4SAPS   H7X  497   0.973   1.620   9.262  1.7698  2.4615 -0.0327
    4SAPS   H7Y  498   0.945   1.760   9.365 -0.5799 -0.8677 -1.3849
    4SAPS   C38  499   0.813   1.580   9.396 -0.0354  0.0690  0.2699
    4SAPS   H8X  500   0.784   1.605   9.500  1.2778  0.2194  0.6163
    4SAPS   H8Y  501   0.839   1.472   9.406 -2.0671 -0.2791  2.6591
    4SAPS   C39  502   0.703   1.571   9.286  0.0463 -0.2331 -0.6141
    4SAPS   H9X  503   0.628   1.498   9.323  0.2371 -1.1215 -1.9130
    4SAPS   H9Y  504   0.750   1.531   9.194  0.7337 -0.6495 -0.0897
    4SAPS  C310  505   0.638   1.712   9.260 -0.1935 -0.0335  0.1198
    4SAPS  H10X  506   0.723   1.770   9.217  0.6015 -0.2558  1.3126
    4SAPS  H10Y  507   0.608   1.764   9.354  0.9381  0.1469  0.3985
    4SAPS  C311  508   0.517   1.699   9.163 -0.0558  0.2160  0.8894
    4SAPS  H11X  509   0.483   1.803   9.144 -1.1729 -0.1254  0.9530
    4SAPS  H11Y  510   0.434   1.650   9.219 -2.4535 -0.3541 -2.7856
    4SAPS  C312  511   0.560   1.641   9.027  0.1120  0.3945  0.6220
    4SAPS  H12X  512   0.549   1.530   9.031 -3.8012  0.4960 -1.4872
    4SAPS  H12Y  513   0.662   1.680   9.007 -0.2635  1.7418  1.2536
    4SAPS  C313  514   0.458   1.666   8.915  0.4190  0.6103 -0.3987
    4SAPS  H13X  515   0.457   1.772   8.879 -1.6242  0.5412 -0.6721
    4SAPS  H13Y  516   0.356   1.655   8.958  0.3988  3.8523  0.7091
    4SAPS  C314  517   0.455   1.573   8.795  0.0464  0.1292 -0.3001
    4SAPS  H14X  518   0.385   1.617   8.721 -0.5423 -1.0782 -0.4789
    4SAPS  H14Y  519   0.411   1.477   8.830  0.7261  0.4963  1.6902
    4SAPS  C315  520   0.585   1.538   8.723 -0.1188 -0.0033  0.0981
    4SAPS  H15X  521   0.649   1.485   8.797  0.4375  0.9632  0.3253
    4SAPS  H15Y  522   0.649   1.628   8.709  0.8851 -0.5954  0.7038
    4SAPS  C316  523   0.559   1.454   8.596  0.6645 -0.2740 -0.6382
    4SAPS  H16X  524   0.511   1.520   8.520  0.9830 -1.3186 -1.7778
    4SAPS  H16Y  525   0.493   1.372   8.632 -1.2514  1.0323 -1.0154
    4SAPS  C317  526   0.692   1.406   8.533  0.1040  0.4108  0.1749
    4SAPS  H17X  527   0.678   1.328   8.455 -0.5057  0.9793 -0.2876
    4SAPS  H17Y  528   0.758   1.368   8.614 -1.1314  0.6624  1.3455
    4SAPS  C318  529   0.775   1.512   8.469  0.3946  0.0488  0.2076
    4SAPS  H18X  530   0.791   1.597   8.539 -0.8383  1.1887 -0.8488
    4SAPS  H18Y  531   0.712   1.541   8.383  1.0043  2.3569  0.4832
    4SAPS  H18Z  532   0.871   1.472   8.431  0.1029  0.9556 -1.5780
    5SAPS     N  533   5.574   0.160  10.840  0.2774  0.1227  0.3078
    5SAPS   HN1  534   5.640   0.231  10.877 -0.2260  0.3289  0.8412
    5SAPS   HN2  535   5.600   0.123  10.747 -2.4514 -1.9448  0.2425
    5SAPS   HN3  536   5.479   0.203  10.840 -0.0337 -0.4819 -1.8118
    5SAPS   C12  537   5.576   0.030  10.929 -0.3496 -0.0432 -0.6229
    5SAPS  H12A  538   5.678  -0.007  10.924 -0.1979  0.4706 -1.3643
    5SAPS   C13  539   5.560   0.052  11.082 -0.2979  0.1539 -0.2633
    5SAPS  O13A  540   5.494   0.156  11.119 -0.2909  0.4144 -1.0974
    5SAPS  O13B  541   5.574  -0.049  11.160  0.1952 -0.7880  0.5867
    5SAPS   C11  542   5.481  -0.084  10.878  0.9353 -0.3832  0.0270
    5SAPS  H11A  543   5.519  -0.176  10.930  1.4875 -1.1417 -1.6554
    5SAPS  H11B  544   5.502  -0.106  10.771  2.3813  1.5952 -0.1543
    5SAPS     P  545   5.241  -0.164  10.850 -0.2658 -0.1368 -0.0511
    5SAPS   O13  546   5.289  -0.297  10.889 -0.0836  0.0619  0.1002
    5SAPS   O14  547   5.110  -0.124  10.895  0.7256 -0.2529  0.3820
    5SAPS   O12  548   5.346  -0.055  10.900 -0.1213  0.4249 -0.7195
    5SAPS   O11  549   5.252  -0.150  10.685  0.3382  0.4733 -0.2538
    5SAPS    C1  550   5.227  -0.026  10.619 -0.0813  0.1544 -0.5952
    5SAPS    HA  551   5.247   0.062  10.684  1.5398 -0.1342 -0.6550
    5SAPS    HB  552   5.291  -0.023  10.528 -1.0245 -2.2327 -1.4081
    5SAPS    C2  553   5.073  -0.011  10.588  0.2938  0.1510 -0.1084
    5SAPS    HS  554   5.018   0.021  10.679  0.6589  0.9520 -0.1693
    5SAPS   O21  555   5.029  -0.140  10.544 -1.1914  0.0736  0.2971
    5SAPS   C21  556   4.895  -0.152  10.536  0.1731 -0.1041 -0.0882
    5SAPS   O22  557   4.819  -0.083  10.603 -0.7251  0.3292  0.0768
    5SAPS   C22  558   4.853  -0.238  10.411 -0.4505 -0.1058 -0.1746
    5SAPS   H2R  559   4.940  -0.249  10.344 -0.8262  0.5324 -0.7722
    5SAPS   H2S  560   4.830  -0.339  10.452  0.7033 -0.6243 -0.7832
    5SAPS    C3  561   5.039   0.104  10.487  0.2833 -0.1192 -0.8196
    5SAPS    HX  562   5.086   0.195  10.531 -0.4919  1.3413 -2.8422
    5SAPS    HY  563   4.928   0.112  10.483  0.2115 -1.0995 -1.1306
    5SAPS   O31  564   5.074   0.075  10.349  0.7100 -0.1416 -0.3278
    5SAPS   C31  565   5.177   0.139  10.303 -0.3566  0.3708 -0.2253
    5SAPS   O32  566   5.255   0.208  10.356 -0.0020 -0.0962 -0.1389
    5SAPS   C32  567   5.182   0.115  10.154  0.2301  0.4617 -1.0935
    5SAPS   H2X  568   5.278   0.152  10.114  0.2441  1.3604 -0.2524
    5SAPS   H2Y  569   5.108   0.172  10.095  1.0508  0.4106 -2.2004
    5SAPS   C23  570   4.743  -0.174  10.331  0.1642 -0.5172  0.0806
    5SAPS   H3R  571   4.673  -0.133  10.406 -0.1267 -0.7934 -0.0356
    5SAPS   H3S  572   4.683  -0.255  10.284 -0.3330 -0.2917  0.3270
    5SAPS   C24  573   4.795  -0.072  10.228  0.4259  0.9676  0.4559
    5SAPS   H4R  574   4.865  -0.124  10.160 -0.7004 -0.7802  0.5622
    5SAPS   H4S  575   4.852   0.007  10.282 -0.0852  1.8567 -0.2608
    5SAPS   C25  576   4.683  -0.008  10.149 -0.1328  0.1938 -0.8105
    5SAPS   H5R  577   4.619   0.057  10.210 -1.4545 -0.4075 -1.5289
    5SAPS   C26  578   4.663  -0.016  10.012  0.2438  0.1628 -0.0686
    5SAPS   H6R  579   4.571   0.028   9.972 -1.5905 -2.0964  1.3675
    5SAPS   C27  580   4.738  -0.107   9.913 -0.3814 -0.1521  0.8087
    5SAPS   H7R  581   4.665  -0.156   9.845  1.7980 -0.9099 -1.1302
    5SAPS   H7S  582   4.784  -0.193   9.967 -0.8137 -0.3626  0.8466
    5SAPS   C28  583   4.837  -0.057   9.806  0.5881 -0.0875 -0.3121
    5SAPS   H8R  584   4.927  -0.120   9.792  0.2693 -0.5876 -0.1503
    5SAPS   C29  585   4.835   0.058   9.735  0.3087  0.0367 -0.8597
    5SAPS   H9R  586   4.922   0.080   9.671  2.0825  0.9452  1.7014
    5SAPS  C210  587   4.739   0.174   9.731 -0.1133  0.0574  0.2251
    5SAPS  H10R  588   4.786   0.252   9.795  0.5390  0.5205 -0.8029
    5SAPS  H10S  589   4.639   0.148   9.774 -0.1153 -3.1774 -1.4510
    5SAPS  C211  590   4.702   0.209   9.587  0.1238 -0.1489  0.6804
    5SAPS  H11R  591   4.724   0.314   9.560  0.3696 -0.1750  0.7703
    5SAPS  C212  592   4.635   0.137   9.493 -0.3195 -0.2202  0.1160
    5SAPS  H12R  593   4.613   0.192   9.401 -0.9289 -0.7936 -0.0922
    5SAPS  C213  594   4.579   0.000   9.515 -0.4037 -0.2751  0.3234
    5SAPS  H13R  595   4.482  -0.002   9.462  0.7715  0.1728 -1.9482
    5SAPS  H13S  596   4.557  -0.016   9.623 -2.7203  0.6747  0.0522
    5SAPS  C214  597   4.649  -0.124   9.486 -0.0304 -0.0232  0.0256
    5SAPS  H14R  598   4.714  -0.164   9.565  1.8047 -0.4448 -1.6085
    5SAPS  C215  599   4.622  -0.196   9.374  0.1680 -0.6270 -0.6768
    5SAPS  H15R  600   4.672  -0.294   9.377  0.2236 -0.6264 -1.3321
    5SAPS  C216  601   4.527  -0.188   9.256 -0.2644  0.4110  0.4770
    5SAPS  H16R  602   4.437  -0.126   9.278 -1.1024 -0.2785 -0.8333
    5SAPS  H16S  603   4.500  -0.293   9.230  2.4363  0.1961 -2.0157
    5SAPS  C217  604   4.600  -0.157   9.125 -0.0298  0.1113  0.5553
    5SAPS  H17R  605   4.684  -0.229   9.113 -1.7869 -1.9039 -0.3079
    5SAPS  H17S  606   4.641  -0.054   9.131 -1.2335  0.6135  0.4134
    5SAPS  C218  607   4.499  -0.166   9.004 -0.8278  0.1119 -0.5592
    5SAPS  H18R  608   4.440  -0.257   9.025 -1.6678  0.9814  1.0573
    5SAPS  H18S  609   4.439  -0.075   9.027 -2.2106 -1.8384  5.1487
    5SAPS  C219  610   4.559  -0.184   8.863 -0.1056  0.6904 -0.1932
    5SAPS  H19R  611   4.474  -0.155   8.799  1.2718 -0.2533 -2.5837
    5SAPS  H19S  612   4.584  -0.292   8.863 -0.1290  0.6871 -0.6335
    5SAPS  C220  613   4.686  -0.102   8.833  0.1663  0.5810  0.1004
    5SAPS  H20R  614   4.775  -0.139   8.889 -0.6691 -0.4312  0.8010
    5SAPS  H20S  615   4.674   0.005   8.858 -0.6037  1.0576 -2.1215
    5SAPS  H20T  616   4.729  -0.107   8.731 -1.1654  1.4806 -0.5136
    5SAPS   C33  617   5.169  -0.038  10.120  0.0256  0.2354  0.6312
    5SAPS   H3X  618   5.061  -0.063  10.127 -0.3779  0.3767 -3.0586
    5SAPS   H3Y  619   5.227  -0.099  10.192 -0.1787 -0.5595  0.1282
    5SAPS   C34  620   5.226  -0.078   9.986 -0.3566 -0.1353 -0.7178
    5SAPS   H4X  621   5.337  -0.084   9.987 -0.2968  0.5679 -1.5412
    5SAPS   H4Y  622   5.195   0.001   9.914 -0.2715  0.4468 -0.1306
    5SAPS   C35  623   5.191  -0.223   9.939 -0.3071 -0.7933  0.3518
    5SAPS   H5X  624   5.082  -0.202   9.936 -0.2335  0.3328  2.9812
    5SAPS   H5Y  625   5.213  -0.286  10.028  2.7489  0.1836  0.4150
    5SAPS   C36  626   5.239  -0.280   9.808 -0.3202 -0.4278 -0.2523
    5SAPS   H6X  627   5.225  -0.390   9.803  0.5399 -0.4922 -2.3535
    5SAPS   H6Y  628   5.349  -0.265   9.799 -0.4132 -0.3076 -1.3681
    5SAPS   C37  629   5.162  -0.224   9.682 -0.8576 -0.0778  0.4892
    5SAPS   H7X  630   5.191  -0.116   9.676  0.4730 -0.4356  0.0486
    5SAPS   H7Y  631   5.053  -0.241   9.687 -0.4826 -2.5139  1.4176
    5SAPS   C38  632   5.224  -0.276   9.551  0.2695 -0.4429  0.4810
    5SAPS   H8X  633   5.184  -0.379   9.539  4.2963 -2.0950 -0.3593
    5SAPS   H8Y  634   5.335  -0.280   9.548  0.2209 -2.9406 -1.3598
    5SAPS   C39  635   5.176  -0.188   9.429  0.4301 -0.4750 -0.2316
    5SAPS   H9X  636   5.226  -0.089   9.437  2.6425 -1.4717 -0.9762
    5SAPS   H9Y  637   5.066  -0.178   9.444  0.6384 -0.2016  1.3575
    5SAPS  C310  638   5.197  -0.238   9.291 -0.0901  0.0334 -0.2053
    5SAPS  H10X  639   5.165  -0.345   9.288  1.9644 -0.6984  1.4734
    5SAPS  H10Y  640   5.307  -0.227   9.285  0.0037  1.0534  2.2508
    5SAPS  C311  641   5.140  -0.146   9.185  0.1248  0.0346  0.2815
    5SAPS  H11X  642   5.207  -0.058   9.187  2.6300 -1.6304 -2.2593
    5SAPS  H11Y  643   5.033  -0.127   9.208 -0.7882 -3.0014 -0.9971
    5SAPS  C312  644   5.148  -0.193   9.041  0.3573 -0.1989 -0.0906
    5SAPS  H12X  645   5.094  -0.289   9.032  0.5850 -0.3091 -0.2701
    5SAPS  H12Y  646   5.256  -0.208   9.021  0.4490  0.0435  0.1990
    5SAPS  C313  647   5.091  -0.090   8.943  0.2950 -0.6667 -0.3663
    5SAPS  H13X  648   5.125   0.014   8.964 -1.5680  0.0064 -0.5450
    5SAPS  H13Y  649   4.981  -0.079   8.952  0.6482  1.7377  2.3441
    5SAPS  C314  650   5.120  -0.112   8.792  0.1117 -0.5105 -0.1573
    5SAPS  H14X  651   5.094  -0.216   8.763 -0.3546 -0.2880 -0.5441
    5SAPS  H14Y  652   5.227  -0.089   8.773 -0.1951  1.0219 -0.1350
    5SAPS  C315  653   5.045  -0.021   8.697  0.1084 -1.2835  0.1249
    5SAPS  H15X  654   5.040   0.079   8.744 -1.1616 -0.6656 -1.2167
    5SAPS  H15Y  655   4.940  -0.058   8.686 -0.7803  1.0488  0.3115
    5SAPS  C316  656   5.109  -0.013   8.556 -0.2619  0.2842 -0.6268
    5SAPS  H16X  657   5.132  -0.117   8.524  0.1684  0.2783 -0.2965
    5SAPS  H16Y  658   5.207   0.039   8.558 -0.7316  1.2580 -1.8851
    5SAPS  C317  659   5.014   0.062   8.465  0.3550 -0.1272  0.0890
    5SAPS  H17X  660   4.935  -0.006   8.426  1.6732 -2.1447  0.7659
    5SAPS  H17Y  661   5.068   0.078   8.370  0.0454  0.9515  0.0805
    5SAPS  C318  662   4.945   0.190   8.516 -0.2173 -0.0111 -0.1755
    5SAPS  H18X  663   4.868   0.177   8.595  0.3982 -0.8892  0.2887
    5SAPS  H18Y  664   4.883   0.240   8.438 -0.1996 -0.4776 -0.4912
    5SAPS  H18Z  665   5.022   0.261   8.554 -0.6526  0.5557 -0.3278
    6SAPS     N  666   3.439   0.526  11.079  0.7877 -0.0811  0.4319
    6SAPS   HN1  667   3.482   0.561  11.168  1.6081  0.8252 -0.2894
    6SAPS   HN2  668   3.448   0.601  11.007  1.6921 -0.9519 -0.3851
    6SAPS   HN3  669   3.340   0.501  11.095  0.6845 -1.7178 -2.2958
    6SAPS   C12  670   3.516   0.403  11.035 -0.4580 -0.0242  1.0126
    6SAPS  H12A  671   3.624   0.405  11.039 -0.4569 -1.1195  1.9043
    6SAPS   C13  672   3.481   0.269  11.098 -0.4791  0.0934  0.4320
    6SAPS  O13A  673   3.391   0.263  11.190 -0.5877  0.3200 -0.4324
    6SAPS  O13B  674   3.566   0.176  11.078 -0.0920  0.2338 -0.4168
    6SAPS   C11  675   3.475   0.380  10.884 -0.3635 -0.4416  0.3591
    6SAPS  H11A  676   3.368   0.351  10.877  0.2833 -2.7276 -2.3819
    6SAPS  H11B  677   3.537   0.297  10.844 -1.7626 -1.1962 -0.3243
    6SAPS     P  678   3.456   0.511  10.659  0.2908  0.2037  0.2628
    6SAPS   O13  679   3.311   0.540  10.653  0.2494  0.6030 -0.7488
    6SAPS   O14  680   3.542   0.618  10.598  0.1530  0.4713  0.6182
    6SAPS   O12  681   3.495   0.505  10.807  0.1877 -0.2547 -0.1492
    6SAPS   O11  682   3.496   0.374  10.604  0.1503 -0.3637 -0.0770
    6SAPS    C1  683   3.639   0.351  10.594  0.4825  0.7491  0.2637
    6SAPS    HA  684   3.701   0.434  10.553  1.4909  1.0528  2.2842
    6SAPS    HB  685   3.686   0.330  10.693  0.1847  1.6750  0.6192
    6SAPS    C2  686   3.654   0.230  10.494 -0.9570  0.2938  0.1498
    6SAPS    HS  687   3.761   0.221  10.465 -0.8713 -0.8393  0.7478
    6SAPS   O21  688   3.573   0.244  10.373 -0.3051  0.0137 -0.7129
    6SAPS   C21  689   3.611   0.342  10.298 -0.5236  0.1798  0.1953
    6SAPS   O22  690   3.698   0.425  10.326 -0.0831  0.2066 -0.6504
    6SAPS   C22  691   3.525   0.345  10.174 -0.1303 -0.3545  0.1001
    6SAPS   H2R  692   3.541   0.249  10.120 -0.7916  0.7109 -2.0916
    6SAPS   H2S  693   3.417   0.354  10.194  0.0521  3.4789  0.0615
    6SAPS    C3  694   3.623   0.090  10.567 -0.4494 -0.2544  0.4588
    6SAPS    HX  695   3.516   0.081  10.597 -0.7412  3.0209  0.7920
    6SAPS    HY  696   3.679   0.099  10.662  0.2002 -0.8740  0.1422
    6SAPS   O31  697   3.678  -0.014  10.490  0.1103 -0.6280  0.3328
    6SAPS   C31  698   3.597  -0.084  10.417 -0.5847 -0.5352  0.6485
    6SAPS   O32  699   3.478  -0.054  10.394  0.0969  0.5424  0.1869
    6SAPS   C32  700   3.673  -0.204  10.363  0.4224 -0.0659  0.1502
    6SAPS   H2X  701   3.606  -0.283  10.325  1.1700 -0.5474 -0.2017
    6SAPS   H2Y  702   3.745  -0.237  10.441  0.5967 -1.2512 -0.4850
    6SAPS   C23  703   3.543   0.473  10.080  0.2421 -0.3677  0.4458
    6SAPS   H3R  704   3.649   0.504  10.068 -0.3193  0.9213 -1.6055
    6SAPS   H3S  705   3.480   0.556  10.118 -0.7435 -0.6932 -0.4391
    6SAPS   C24  706   3.486   0.445   9.936  0.3678 -0.4933 -0.2608
    6SAPS   H4R  707   3.474   0.536   9.875 -0.4817 -0.7215 -0.4453
    6SAPS   H4S  708   3.382   0.407   9.949 -0.2971  0.3966 -2.4910
    6SAPS   C25  709   3.562   0.350   9.847  0.3117 -0.2319 -0.2643
    6SAPS   H5R  710   3.639   0.290   9.897  0.2954  1.0959  1.4756
    6SAPS   C26  711   3.550   0.325   9.716 -0.9221  0.1127 -0.2280
    6SAPS   H6R  712   3.607   0.243   9.669  0.7355  0.0718  1.6925
    6SAPS   C27  713   3.457   0.398   9.619  0.0307 -0.0612 -0.7636
    6SAPS   H7R  714   3.372   0.446   9.673 -0.1221 -1.5294  0.3514
    6SAPS   H7S  715   3.409   0.318   9.558 -0.2092 -0.5936  0.1054
    6SAPS   C28  716   3.529   0.500   9.529 -1.1687  0.1290 -0.3695
    6SAPS   H8R  717   3.551   0.593   9.583 -1.1828  0.6234 -1.1913
    6SAPS   C29  718   3.576   0.470   9.402  0.1367  0.2610  0.4146
    6SAPS   H9R  719   3.629   0.551   9.350  1.7446  0.3719  2.1373
    6SAPS  C210  720   3.568   0.343   9.322  0.5477 -0.4214  0.9305
    6SAPS  H10R  721   3.508   0.264   9.371 -0.9632  0.6939  0.9346
    6SAPS  H10S  722   3.672   0.306   9.309  0.7944  0.6777 -0.6434
    6SAPS  C211  723   3.498   0.372   9.186  0.2906 -0.3819  0.1902
    6SAPS  H11R  724   3.390   0.356   9.189  0.0295  0.4577 -2.3069
    6SAPS  C212  725   3.558   0.398   9.075 -0.4792  0.5123  0.9112
    6SAPS  H12R  726   3.494   0.405   8.985  0.2823  0.6987  0.3731
    6SAPS  C213  727   3.710   0.407   9.053  0.6328 -0.6206 -0.5357
    6SAPS  H13R  728   3.761   0.404   9.152 -1.6860  0.6631  0.7885
    6SAPS  H13S  729   3.725   0.503   9.000  0.5327 -0.5142 -0.3719
    6SAPS  C214  730   3.756   0.291   8.978 -1.0721  0.1953  0.0665
    6SAPS  H14R  731   3.740   0.197   9.033  2.3335 -0.0641  0.8390
    6SAPS  C215  732   3.821   0.290   8.862  0.0848 -0.7773  0.6784
    6SAPS  H15R  733   3.845   0.194   8.813  0.0727  0.4702 -1.9297
    6SAPS  C216  734   3.874   0.407   8.784 -1.0447  0.1163  0.3978
    6SAPS  H16R  735   3.984   0.418   8.798 -0.9294  0.3991 -0.6289
    6SAPS  H16S  736   3.833   0.504   8.820 -2.0781 -0.4255  0.6948
    6SAPS  C217  737   3.836   0.393   8.636 -0.4538 -0.0312  0.0199
    6SAPS  H17R  738   3.727   0.408   8.617 -0.3212 -0.6576 -1.3492
    6SAPS  H17S  739   3.862   0.290   8.605 -1.9076  0.4033 -3.0660
    6SAPS  C218  740   3.908   0.491   8.542  0.1282 -0.2467 -0.6084
    6SAPS  H18R  741   3.882   0.464   8.438  0.6296 -0.2151 -0.7423
    6SAPS  H18S  742   4.018   0.478   8.553  0.2617  0.9944 -0.3790
    6SAPS  C219  743   3.859   0.637   8.558 -0.1829 -0.8319 -0.1878
    6SAPS  H19R  744   3.752   0.627   8.587 -0.0020 -0.4102  0.6668
    6SAPS  H19S  745   3.847   0.684   8.458 -1.5016  0.7484  0.6563
    6SAPS  C220  746   3.950   0.721   8.650 -0.0893 -0.8737 -0.1369
    6SAPS  H20R  747   4.054   0.728   8.611  0.2146 -0.3949  0.7418
    6SAPS  H20S  748   3.950   0.679   8.753  0.1424  0.5427  0.4532
    6SAPS  H20T  749   3.916   0.826   8.646  0.6958 -0.6281 -0.5665
    6SAPS   C33  750   3.756  -0.163  10.239 -0.4770  0.6399  0.9119
    6SAPS   H3X  751   3.822  -0.249  10.216 -2.6427 -1.5595  2.4912
    6SAPS   H3Y  752   3.827  -0.078  10.250 -0.1817  0.2496  2.2846
    6SAPS   C34  753   3.667  -0.146  10.108  0.5032  0.6381 -0.5271
    6SAPS   H4X  754   3.594  -0.063  10.122  0.4754  0.4948  0.1944
    6SAPS   H4Y  755   3.604  -0.235  10.087  0.8956  0.5817 -1.5180
    6SAPS   C35  756   3.755  -0.136   9.984 -0.0835 -0.4487  0.5823
    6SAPS   H5X  757   3.821  -0.224   9.971  1.0544  0.5941 -1.0772
    6SAPS   H5Y  758   3.830  -0.060  10.012  0.0846 -0.2778 -0.3131
    6SAPS   C36  759   3.693  -0.108   9.846  0.3054 -0.1146  0.5264
    6SAPS   H6X  760   3.658  -0.003   9.841  0.1619 -0.2024 -1.9739
    6SAPS   H6Y  761   3.611  -0.177   9.816 -1.5218  2.4407 -0.7627
    6SAPS   C37  762   3.798  -0.133   9.730  0.2396  0.5085 -0.0584
    6SAPS   H7X  763   3.830  -0.239   9.716  1.1889  0.9574 -1.5714
    6SAPS   H7Y  764   3.885  -0.070   9.757  0.0500  1.0334 -0.6540
    6SAPS   C38  765   3.739  -0.085   9.598  0.8119 -0.6040 -0.8986
    6SAPS   H8X  766   3.734   0.025   9.613  1.2812 -0.8409  1.3220
    6SAPS   H8Y  767   3.635  -0.122   9.605  0.9238 -1.0303 -1.4109
    6SAPS   C39  768   3.812  -0.118   9.467  0.0484 -0.3078  0.1391
    6SAPS   H9X  769   3.812  -0.228   9.452 -0.7634 -0.3094  0.1495
    6SAPS   H9Y  770   3.918  -0.085   9.467  0.0722 -0.3866  0.0118
    6SAPS  C310  771   3.730  -0.059   9.347  0.3979 -0.9113 -0.3571
    6SAPS  H10X  772   3.718   0.051   9.347  1.4520 -0.7164 -3.0007
    6SAPS  H10Y  773   3.628  -0.098   9.368  0.1959 -0.2987 -0.1603
    6SAPS  C311  774   3.800  -0.098   9.214  0.9354 -0.5010 -1.2808
    6SAPS  H11X  775   3.837  -0.203   9.221 -0.7088 -1.0483 -0.3631
    6SAPS  H11Y  776   3.880  -0.021   9.208  0.5783  0.1376  1.2884
    6SAPS  C312  777   3.706  -0.095   9.094  0.1584 -0.8671  0.5537
    6SAPS  H12X  778   3.662   0.007   9.095  2.4247  0.1799 -0.0826
    6SAPS  H12Y  779   3.616  -0.159   9.106 -2.3811  2.2363 -0.5075
    6SAPS  C313  780   3.785  -0.124   8.967  0.3463 -0.6881  0.5240
    6SAPS  H13X  781   3.842  -0.218   8.981 -0.5904 -1.2612  0.6038
    6SAPS  H13Y  782   3.857  -0.039   8.964 -1.4339  0.8893  0.4274
    6SAPS  C314  783   3.704  -0.123   8.839 -0.2695 -0.7399  0.0403
    6SAPS  H14X  784   3.675  -0.016   8.835 -1.4672 -1.0423  0.4246
    6SAPS  H14Y  785   3.609  -0.179   8.842 -1.9573  1.7964 -1.8045
    6SAPS  C315  786   3.786  -0.160   8.708 -0.1831 -0.0727 -0.2928
    6SAPS  H15X  787   3.724  -0.144   8.618 -0.9530 -1.2141  0.0072
    6SAPS  H15Y  788   3.795  -0.271   8.704  1.3233 -0.0175  0.6170
    6SAPS  C316  789   3.920  -0.100   8.697 -0.2271  0.0843 -0.1921
    6SAPS  H16X  790   3.987  -0.152   8.768 -1.5362 -2.6336 -0.8116
    6SAPS  H16Y  791   3.916   0.008   8.722 -0.0991 -0.0905  0.6075
    6SAPS  C317  792   3.990  -0.120   8.560  0.2042  0.9555 -0.1585
    6SAPS  H17X  793   3.922  -0.056   8.500 -1.0189  0.9646  1.1933
    6SAPS  H17Y  794   3.976  -0.226   8.528  2.1760  0.6766 -0.2286
    6SAPS  C318  795   4.134  -0.074   8.556  0.5256 -0.2792  0.1530
    6SAPS  H18X  796   4.144   0.036   8.564  0.7542 -0.2499 -0.5401
    6SAPS  H18Y  797   4.171  -0.103   8.456 -1.6499  1.9030 -1.3919
    6SAPS  H18Z  798   4.197  -0.135   8.625 -0.5361 -1.0877  0.4437
    7SAPS     N  799   1.606   2.255  10.883 -0.1239 -0.4177 -0.0145
    7SAPS   HN1  800   1.614   2.153  10.863  2.1411 -0.0375 -1.4214
    7SAPS   HN2  801   1.685   2.309  10.843 -1.1087  0.0776 -1.3697
    7SAPS   HN3  802   1.609   2.270  10.986 -1.3464  0.4796 -0.0868
    7SAPS   C12  803   1.472   2.319  10.839  0.0745 -0.0911  0.7695
    7SAPS  H12A  804   1.389   2.288  10.900 -2.0777  1.2445 -1.2771
    7SAPS   C13  805   1.487   2.477  10.845 -0.0851  0.7096 -0.3355
    7SAPS  O13A  806   1.592   2.527  10.892 -0.4584 -0.1606 -0.3005
    7SAPS  O13B  807   1.391   2.542  10.803  0.4242  0.0352 -0.2574
    7SAPS   C11  808   1.433   2.282  10.698  0.0864 -0.2224  1.2442
    7SAPS  H11A  809   1.529   2.291  10.643  0.0210  0.0083  1.1665
    7SAPS  H11B  810   1.354   2.342  10.648  1.9569  1.3337  0.0074
    7SAPS     P  811   1.252   2.087  10.721  0.0902  0.0062  0.0840
    7SAPS   O13  812   1.229   1.955  10.667  0.0453  0.3258 -0.1673
    7SAPS   O14  813   1.236   2.094  10.867 -0.0374  0.0986  0.1306
    7SAPS   O12  814   1.399   2.143  10.692 -0.1003 -0.1240 -0.5564
    7SAPS   O11  815   1.147   2.184  10.654  0.7276 -0.4656  0.0000
    7SAPS    C1  816   1.008   2.150  10.639 -0.1959 -0.7199  0.5130
    7SAPS    HA  817   0.981   2.058  10.694  0.5017  0.5457  3.1672
    7SAPS    HB  818   0.947   2.231  10.684 -0.0685  0.1358 -0.8115
    7SAPS    C2  819   0.980   2.144  10.483 -0.0084 -0.0097 -0.5173
    7SAPS    HS  820   0.879   2.188  10.469 -0.2007 -0.1408  0.3767
    7SAPS   O21  821   0.975   2.004  10.450 -0.3666 -0.2471  0.4135
    7SAPS   C21  822   0.867   1.938  10.475 -0.0699  0.0127  0.0705
    7SAPS   O22  823   0.768   1.975  10.538 -0.2635 -1.5094  0.7757
    7SAPS   C22  824   0.897   1.795  10.427  0.3230  0.3630 -0.5479
    7SAPS   H2R  825   0.992   1.767  10.477 -0.1198  0.2900  0.2863
    7SAPS   H2S  826   0.810   1.727  10.446  1.0608 -0.7907 -1.1853
    7SAPS    C3  827   1.077   2.230  10.408 -0.5265 -0.4713 -0.4665
    7SAPS    HX  828   1.174   2.176  10.412 -1.2890 -1.8169  0.5312
    7SAPS    HY  829   1.102   2.327  10.457  3.1813 -1.2602 -0.4938
    7SAPS   O31  830   1.029   2.259  10.272  0.4113  0.2398  0.2667
    7SAPS   C31  831   1.087   2.193  10.175 -0.5206  0.7632 -0.6658
    7SAPS   O32  832   1.172   2.102  10.181 -0.3439 -0.4556 -0.3169
    7SAPS   C32  833   1.028   2.241  10.045  0.3008 -0.0866  0.1947
    7SAPS   H2X  834   1.017   2.352  10.047  0.4954 -0.0770  1.7324
    7SAPS   H2Y  835   0.928   2.193  10.039  0.4193 -0.1914 -1.5440
    7SAPS   C23  836   0.933   1.781  10.281 -0.4267  0.4865  0.2473
    7SAPS   H3R  837   0.944   1.674  10.253  2.9283  0.6725  0.3842
    7SAPS   H3S  838   1.034   1.826  10.268  0.3640 -1.4027 -0.4374
    7SAPS   C24  839   0.818   1.818  10.189  0.8032 -0.5007  0.2066
    7SAPS   H4R  840   0.784   1.918  10.222  0.8446 -0.5770  0.4829
    7SAPS   H4S  841   0.733   1.752  10.218  0.1672 -0.3628 -1.2706
    7SAPS   C25  842   0.858   1.816  10.039 -0.1082  0.6992  0.4183
    7SAPS   H5R  843   0.957   1.862  10.026 -0.0862  0.9079  1.2232
    7SAPS   C26  844   0.796   1.761   9.931 -0.3008 -0.2814 -0.5555
    7SAPS   H6R  845   0.846   1.773   9.833  0.3158  0.7673 -0.1314
    7SAPS   C27  846   0.658   1.694   9.937 -0.2825 -0.2707 -0.5277
    7SAPS   H7R  847   0.580   1.773   9.948  2.0322  2.1193 -0.1098
    7SAPS   H7S  848   0.652   1.625  10.024 -1.2006 -1.2363 -1.3363
    7SAPS   C28  849   0.628   1.614   9.813  0.0546 -0.2048  0.2107
    7SAPS   H8R  850   0.671   1.513   9.806  0.3282 -0.0333 -0.6774
    7SAPS   C29  851   0.551   1.645   9.705  0.0209  0.4915 -0.6709
    7SAPS   H9R  852   0.541   1.576   9.620  0.8930 -0.0898 -0.3099
    7SAPS  C210  853   0.480   1.777   9.696 -0.1565 -0.2105  0.1907
    7SAPS  H10R  854   0.487   1.819   9.594 -2.7017 -2.1856 -0.8964
    7SAPS  H10S  855   0.531   1.856   9.755  0.9036 -0.8078  0.1125
    7SAPS  C211  856   0.337   1.760   9.752 -0.4225 -0.6623  0.1334
    7SAPS  H11R  857   0.312   1.804   9.850  0.5642  1.6575 -0.5781
    7SAPS  C212  858   0.235   1.689   9.687  0.3818 -0.8252  0.4030
    7SAPS  H12R  859   0.137   1.691   9.736  0.4526  2.0853  0.5659
    7SAPS  C213  860   0.242   1.621   9.554 -0.1798 -0.1572 -0.1456
    7SAPS  H13R  861   0.341   1.626   9.505 -0.5420  0.6341 -0.8224
    7SAPS  H13S  862   0.173   1.673   9.484  2.3836 -0.3176 -2.9898
    7SAPS  C214  863   0.192   1.476   9.553 -0.1474  0.0682 -0.4493
    7SAPS  H14R  864   0.118   1.453   9.630  1.2397  2.1165  1.6380
    7SAPS  C215  865   0.242   1.373   9.476 -0.7585  0.1817  0.1620
    7SAPS  H15R  866   0.192   1.276   9.491 -3.2037  1.4848  1.1283
    7SAPS  C216  867   0.340   1.366   9.361  0.2612 -0.5694 -0.1174
    7SAPS  H16R  868   0.394   1.270   9.376 -1.3818 -1.3287  1.2920
    7SAPS  H16S  869   0.413   1.449   9.350  0.6186 -0.5840  1.7028
    7SAPS  C217  870   0.260   1.365   9.229 -0.2473  0.0382 -0.5809
    7SAPS  H17R  871   0.336   1.358   9.148 -0.1824  1.1136 -0.6330
    7SAPS  H17S  872   0.205   1.461   9.217 -0.6542 -0.1837 -0.5153
    7SAPS  C218  873   0.166   1.248   9.216 -0.0001  0.0646  0.0378
    7SAPS  H18R  874   0.073   1.279   9.269 -0.8412 -0.3574 -1.1391
    7SAPS  H18S  875   0.192   1.152   9.265 -0.9360 -1.4991 -2.3202
    7SAPS  C219  876   0.120   1.233   9.070  0.3754  0.3401 -0.2284
    7SAPS  H19R  877   0.055   1.143   9.064  3.6976 -2.2255 -0.5579
    7SAPS  H19S  878   0.210   1.214   9.008  0.7921 -0.0049  0.4705
    7SAPS  C220  879   0.044   1.348   9.009 -0.1789  1.1212 -0.4112
    7SAPS  H20R  880   0.010   1.325   8.905  0.2174  4.5114 -1.4123
    7SAPS  H20S  881   0.092   1.448   9.011  0.8820  0.6093  0.7729
    7SAPS  H20T  882  -0.052   1.362   9.064  0.5384  2.5101  0.5244
    7SAPS   C33  883   1.101   2.204   9.921 -0.2208 -0.6743 -0.2640
    7SAPS   H3X  884   1.130   2.097   9.928  0.8505 -0.3506  0.3290
    7SAPS   H3Y  885   1.194   2.264   9.921 -0.1702 -0.7478 -0.6541
    7SAPS   C34  886   1.015   2.234   9.798  0.3198  0.8887 -0.2330
    7SAPS   H4X  887   1.092   2.229   9.718  2.5107  0.9291  1.7682
    7SAPS   H4Y  888   0.972   2.335   9.814  0.4277  0.8587  0.2471
    7SAPS   C35  889   0.897   2.136   9.771 -0.1963  0.7648 -0.1262
    7SAPS   H5X  890   0.817   2.146   9.847 -0.0344 -0.6344  0.2493
    7SAPS   H5Y  891   0.937   2.038   9.801 -0.6094  0.7182  0.2965
    7SAPS   C36  892   0.846   2.127   9.632  0.4491  0.2276 -0.6131
    7SAPS   H6X  893   0.931   2.092   9.569 -0.2312  0.2779 -1.5881
    7SAPS   H6Y  894   0.806   2.227   9.604  0.0857  0.2196 -0.1462
    7SAPS   C37  895   0.721   2.031   9.619  0.0957  0.0115  0.3907
    7SAPS   H7X  896   0.636   2.056   9.686 -0.6494 -1.5564  0.0743
    7SAPS   H7Y  897   0.750   1.924   9.616 -2.5263 -0.7162 -1.3730
    7SAPS   C38  898   0.668   2.059   9.474  0.3451  0.4559 -0.4572
    7SAPS   H8X  899   0.636   2.165   9.474 -1.5954 -0.0737  1.3693
    7SAPS   H8Y  900   0.574   2.003   9.456  0.4427 -0.1751  0.9161
    7SAPS   C39  901   0.771   2.042   9.364  0.3357 -0.3916 -0.4524
    7SAPS   H9X  902   0.816   1.941   9.377 -1.4593 -1.2785 -0.8155
    7SAPS   H9Y  903   0.844   2.125   9.371  0.0346  0.0232 -1.9601
    7SAPS  C310  904   0.703   2.063   9.225 -0.3001  0.3154  0.5946
    7SAPS  H10X  905   0.662   2.166   9.221  0.6783  0.8296  2.3635
    7SAPS  H10Y  906   0.621   1.990   9.206 -0.4431  0.7873 -0.6589
    7SAPS  C311  907   0.804   2.034   9.110  0.8219  0.8609  0.5936
    7SAPS  H11X  908   0.864   1.942   9.125 -0.4825 -0.4476 -1.6398
    7SAPS  H11Y  909   0.886   2.109   9.109  2.7938 -1.1718  1.0936
    7SAPS  C312  910   0.730   2.028   8.975 -0.0989 -0.0389  0.4017
    7SAPS  H12X  911   0.686   2.125   8.944  0.3647 -0.5567 -2.0964
    7SAPS  H12Y  912   0.634   1.974   8.987 -0.1072 -0.1780 -0.2294
    7SAPS  C313  913   0.815   1.973   8.862 -0.5848 -0.1955  0.2421
    7SAPS  H13X  914   0.907   1.928   8.905  0.1198  0.5232 -0.4871
    7SAPS  H13Y  915   0.861   2.054   8.803 -0.1864  0.2636  1.1590
    7SAPS  C314  916   0.737   1.877   8.771 -0.0049  0.1346  0.2273
    7SAPS  H14X  917   0.681   1.806   8.835 -0.6369  0.0106 -0.4499
    7SAPS  H14Y  918   0.812   1.820   8.712  1.5110 -0.4653  2.5521
    7SAPS  C315  919   0.651   1.956   8.667  0.4148 -0.2833 -0.1902
    7SAPS  H15X  920   0.716   2.027   8.612 -0.6981  1.4771  0.6656
    7SAPS  H15Y  921   0.575   2.011   8.726  1.4454 -0.1875  1.0929
    7SAPS  C316  922   0.581   1.857   8.572  0.0799 -0.2350  0.5029
    7SAPS  H16X  923   0.512   1.792   8.629 -0.4521  1.5246  1.9648
    7SAPS  H16Y  924   0.659   1.789   8.531 -0.6181 -1.5692  1.3131
    7SAPS  C317  925   0.515   1.931   8.452 -0.0182 -0.0298  0.2919
    7SAPS  H17X  926   0.599   1.998   8.425 -0.5801  0.3441 -0.5636
    7SAPS  H17Y  927   0.430   1.999   8.475  0.6679  0.7274  0.6594
    7SAPS  C318  928   0.472   1.841   8.336  0.2608  0.4424  0.1845
    7SAPS  H18X  929   0.554   1.771   8.308 -0.4136 -0.2351 -0.1444
    7SAPS  H18Y  930   0.441   1.894   8.243 -2.1787 -0.7731  0.2139
    7SAPS  H18Z  931   0.383   1.782   8.366 -0.0841  0.8440 -0.0317
    8SAPS     N  932   3.972   2.722  11.013 -0.0394 -0.0240 -0.2804
    8SAPS   HN1  933   4.072   2.714  11.039  0.0168  0.3019 -0.3899
    8SAPS   HN2  934   3.938   2.623  11.012  1.0346 -0.4305  0.7706
    8SAPS   HN3  935   3.971   2.752  10.913 -1.3239 -4.0433 -1.7023
    8SAPS   C12  936   3.885   2.805  11.104  0.0628  0.0861  0.2377
    8SAPS  H12A  937   3.785   2.795  11.062  0.2375  0.0056 -0.1644
    8SAPS   C13  938   3.878   2.750  11.253  0.3455  0.2321  0.1166
    8SAPS  O13A  939   3.943   2.646  11.273  0.1139  0.2855 -0.3922
    8SAPS  O13B  940   3.786   2.792  11.328 -0.3318 -0.4125 -0.0331
    8SAPS   C11  941   3.945   2.950  11.100 -0.3540  0.0387  0.0285
    8SAPS  H11A  942   4.033   2.952  11.168  0.3916 -0.9636 -0.8840
    8SAPS  H11B  943   3.864   3.019  11.134 -1.8894 -2.2822  1.3355
    8SAPS     P  944   4.074   3.128  10.961  0.0326  0.1122 -0.1844
    8SAPS   O13  945   3.993   3.236  11.020  0.0694 -0.2431  0.0740
    8SAPS   O14  946   4.207   3.111  11.013  0.2259  0.1746  0.0867
    8SAPS   O12  947   3.995   2.990  10.973 -0.3515  0.1187 -0.0900
    8SAPS   O11  948   4.092   3.153  10.800  0.0799  0.2547  0.0068
    8SAPS    C1  949   3.979   3.138  10.709 -0.1812  0.7070 -0.9670
    8SAPS    HA  950   3.901   3.071  10.751  0.5629  0.5606  0.2464
    8SAPS    HB  951   3.935   3.240  10.698 -1.1379  0.2266 -1.7257
    8SAPS    C2  952   4.020   3.085  10.569  0.9064 -0.3842 -0.2398
    8SAPS    HS  953   4.084   2.995  10.579  0.1209 -0.9103  0.1866
    8SAPS   O21  954   4.094   3.187  10.495  0.0849 -0.3846 -0.4789
    8SAPS   C21  955   4.218   3.167  10.472 -1.6575  0.0831 -0.1183
    8SAPS   O22  956   4.284   3.068  10.505 -0.2280 -0.5108  0.1876
    8SAPS   C22  957   4.267   3.284  10.389  0.7034 -0.0032  0.1493
    8SAPS   H2R  958   4.187   3.360  10.376  0.2582 -0.2094  1.4796
    8SAPS   H2S  959   4.359   3.330  10.430  0.5124  2.4471 -1.9491
    8SAPS    C3  960   3.884   3.059  10.494  0.8606  0.3343  0.2654
    8SAPS    HX  961   3.829   3.155  10.500  3.3573  1.8410  0.4925
    8SAPS    HY  962   3.827   2.977  10.543  1.1794  1.0834  1.9613
    8SAPS   O31  963   3.912   3.018  10.355  0.6307 -0.1512 -1.0239
    8SAPS   C31  964   3.938   2.891  10.337 -0.2982  0.0045  0.8211
    8SAPS   O32  965   3.950   2.810  10.423  0.2026  0.1516  0.1925
    8SAPS   C32  966   3.930   2.864  10.181 -0.0824  0.0638  0.9056
    8SAPS   H2X  967   3.972   2.953  10.129 -1.3024 -0.6624 -1.4539
    8SAPS   H2Y  968   3.825   2.850  10.148  0.6150 -0.6354 -1.1386
    8SAPS   C23  969   4.315   3.235  10.246 -0.1162 -0.1670  0.4507
    8SAPS   H3R  970   4.413   3.182  10.245 -1.1440 -2.1507  0.2645
    8SAPS   H3S  971   4.326   3.324  10.181  1.9598  0.1923  1.2206
    8SAPS   C24  972   4.199   3.173  10.171 -0.6773 -0.1428 -0.7465
    8SAPS   H4R  973   4.156   3.091  10.231 -0.8005  0.2663 -0.2756
    8SAPS   H4S  974   4.234   3.140  10.071  0.1187  0.1197 -0.5577
    8SAPS   C25  975   4.077   3.257  10.150 -0.0515 -0.1388 -0.5209
    8SAPS   H5R  976   3.982   3.233  10.201 -0.7583  3.4350  0.0799
    8SAPS   C26  977   4.059   3.346  10.055  0.1282 -0.6266 -1.2096
    8SAPS   H6R  978   3.964   3.401  10.051 -0.3844 -1.5467 -3.7356
    8SAPS   C27  979   4.164   3.396   9.964  0.2546 -0.2193  0.1626
    8SAPS   H7R  980   4.248   3.325   9.947  1.4757  1.4008 -0.8898
    8SAPS   H7S  981   4.211   3.484  10.011 -2.8271  0.9413  1.2806
    8SAPS   C28  982   4.115   3.443   9.833  0.8091 -0.9329  0.2802
    8SAPS   H8R  983   4.070   3.543   9.834  1.9955 -0.3795  1.6005
    8SAPS   C29  984   4.131   3.390   9.709  0.1412  0.8954 -0.1047
    8SAPS   H9R  985   4.090   3.437   9.618  1.0275 -0.8311 -1.4327
    8SAPS  C210  986   4.201   3.262   9.670 -0.0809  0.2577 -0.1716
    8SAPS  H10R  987   4.128   3.201   9.613  1.2076 -2.3180  0.7892
    8SAPS  H10S  988   4.222   3.186   9.748 -2.3885 -1.6577 -1.2943
    8SAPS  C211  989   4.324   3.297   9.581  0.4640 -0.0081 -0.6752
    8SAPS  H11R  990   4.421   3.278   9.629  0.8667  1.1201 -1.0091
    8SAPS  C212  991   4.326   3.341   9.454 -0.1767  0.9983  0.3727
    8SAPS  H12R  992   4.422   3.347   9.401 -0.7102  1.3902 -0.5494
    8SAPS  C213  993   4.210   3.363   9.365  0.3706  0.0662 -0.5176
    8SAPS  H13R  994   4.214   3.472   9.346 -1.5396  0.4838  1.1489
    8SAPS  H13S  995   4.115   3.350   9.422  1.1419 -1.7381  0.4677
    8SAPS  C214  996   4.220   3.280   9.240 -0.3004 -0.0710 -0.2666
    8SAPS  H14R  997   4.240   3.172   9.247  0.4469  0.0874  0.2184
    8SAPS  C215  998   4.198   3.327   9.115 -0.4892  0.1237  0.6778
    8SAPS  H15R  999   4.214   3.262   9.028  1.2364  2.0698 -0.5556
    8SAPS  C216 1000   4.161   3.470   9.070 -0.3513 -0.7440 -0.1305
    8SAPS  H16R 1001   4.255   3.520   9.038 -0.4209 -0.8685 -0.5381
    8SAPS  H16S 1002   4.106   3.519   9.152 -2.2004  1.1601 -2.3447
    8SAPS  C217 1003   4.058   3.502   8.958 -0.8667  0.0809  1.0867
    8SAPS  H17R 1004   4.032   3.610   8.965 -0.0614  0.4815 -1.2253
    8SAPS  H17S 1005   3.971   3.437   8.980 -0.9583  0.3460  1.5236
    8SAPS  C218 1006   4.117   3.479   8.816  0.0700 -0.2074 -0.0457
    8SAPS  H18R 1007   4.155   3.374   8.809 -1.8891 -0.9519 -0.3394
    8SAPS  H18S 1008   4.196   3.552   8.790 -0.4902  0.1666 -0.7294
    8SAPS  C219 1009   4.000   3.512   8.716 -0.7305 -0.3101 -0.2456
    8SAPS  H19R 1010   3.951   3.603   8.757 -1.9036 -0.9721 -0.1294
    8SAPS  H19S 1011   3.921   3.433   8.719 -1.5114  0.4478 -0.4993
    8SAPS  C220 1012   4.026   3.548   8.566  0.5731  0.1557  0.4663
    8SAPS  H20R 1013   4.042   3.466   8.492  2.6279  2.9583 -2.4737
    8SAPS  H20S 1014   4.116   3.613   8.575 -0.5043  1.4861  2.0012
    8SAPS  H20T 1015   3.950   3.603   8.506  0.0713 -0.4857  0.5023
    8SAPS   C33 1016   4.014   2.740  10.137  0.2463 -0.5116  0.4043
    8SAPS   H3X 1017   3.974   2.706  10.040  0.7593  0.9507 -0.3628
    8SAPS   H3Y 1018   4.001   2.660  10.213 -0.2920 -2.9820 -2.1608
    8SAPS   C34 1019   4.159   2.769  10.118  0.6890 -0.2297  0.1390
    8SAPS   H4X 1020   4.218   2.675  10.118  0.6694 -0.2542  1.2863
    8SAPS   H4Y 1021   4.189   2.825  10.209  0.6600  1.1742 -0.6818
    8SAPS   C35 1022   4.194   2.865   9.995 -0.1920  0.1881 -0.3960
    8SAPS   H5X 1023   4.296   2.905  10.010 -0.1518  0.1529 -0.5719
    8SAPS   H5Y 1024   4.123   2.949   9.982  0.8669  1.3184  0.9026
    8SAPS   C36 1025   4.194   2.789   9.861  0.1446 -0.4558  0.2877
    8SAPS   H6X 1026   4.087   2.767   9.841  0.0543 -1.8900  2.1056
    8SAPS   H6Y 1027   4.247   2.693   9.875 -0.1386 -0.5761  0.5567
    8SAPS   C37 1028   4.255   2.877   9.745 -0.4790 -0.0742  0.5957
    8SAPS   H7X 1029   4.357   2.897   9.783 -0.3294 -1.2581  0.8632
    8SAPS   H7Y 1030   4.193   2.970   9.741 -0.6619 -0.0116  3.3430
    8SAPS   C38 1031   4.257   2.795   9.617 -0.3547 -0.2829  0.3012
    8SAPS   H8X 1032   4.159   2.764   9.576 -0.9741  0.8831  0.8586
    8SAPS   H8Y 1033   4.311   2.700   9.637  0.1600 -0.0410  0.0942
    8SAPS   C39 1034   4.335   2.877   9.518 -0.3048 -0.6526 -0.1936
    8SAPS   H9X 1035   4.439   2.891   9.553 -1.1522 -0.4012  2.3877
    8SAPS   H9Y 1036   4.289   2.978   9.522 -1.6899 -1.3056  1.5260
    8SAPS  C310 1037   4.323   2.827   9.371  0.0696  0.6282 -0.4415
    8SAPS  H10X 1038   4.213   2.815   9.362 -0.5044  2.3966  2.5086
    8SAPS  H10Y 1039   4.371   2.728   9.362 -2.0738 -0.4118 -1.1213
    8SAPS  C311 1040   4.378   2.929   9.273 -0.1048  0.4502  0.2464
    8SAPS  H11X 1041   4.488   2.927   9.285 -0.0461 -1.6575 -0.1626
    8SAPS  H11Y 1042   4.347   3.029   9.310 -2.2742  0.2103 -0.7782
    8SAPS  C312 1043   4.330   2.900   9.132  0.1299  0.2499  0.1852
    8SAPS  H12X 1044   4.219   2.897   9.133  0.1457 -1.3171  1.6906
    8SAPS  H12Y 1045   4.368   2.805   9.089  0.2655  0.4083 -0.0512
    8SAPS  C313 1046   4.380   3.008   9.025  0.2918  0.5858 -0.0313
    8SAPS  H13X 1047   4.489   3.006   9.003  0.0294  0.0193 -1.3750
    8SAPS  H13Y 1048   4.358   3.110   9.063 -1.3210 -0.6911  2.7951
    8SAPS  C314 1049   4.320   3.002   8.882 -0.7070 -0.2538  0.2583
    8SAPS  H14X 1050   4.211   2.990   8.901 -0.2733  0.0720  3.6529
    8SAPS  H14Y 1051   4.350   2.904   8.839 -0.4495 -1.0940  2.2331
    8SAPS  C315 1052   4.356   3.126   8.801  0.5758 -0.5740  0.0156
    8SAPS  H15X 1053   4.462   3.116   8.771  0.6641  0.8817 -0.2463
    8SAPS  H15Y 1054   4.343   3.219   8.861  1.6893  0.7159 -1.6639
    8SAPS  C316 1055   4.265   3.140   8.684  0.1149 -0.1916  0.3701
    8SAPS  H16X 1056   4.161   3.173   8.707  0.9261  2.3118  0.7645
    8SAPS  H16Y 1057   4.258   3.035   8.649 -0.2768 -0.8612  2.3574
    8SAPS  C317 1058   4.312   3.223   8.570  0.3212 -0.3699 -0.0132
    8SAPS  H17X 1059   4.408   3.195   8.523  0.3079  0.1813 -0.3714
    8SAPS  H17Y 1060   4.325   3.324   8.613 -1.1346 -0.0046 -0.3675
    8SAPS  C318 1061   4.210   3.230   8.455 -0.0958  0.0009  0.5330
    8SAPS  H18X 1062   4.249   3.280   8.364  1.2873  1.0308  1.6589
    8SAPS  H18Y 1063   4.123   3.291   8.485 -1.7921 -0.4970 -2.9382
    8SAPS  H18Z 1064   4.177   3.125   8.440 -2.0664  0.6595 -0.0099
    9SAPS     N 1065   1.592   4.932   6.247  0.2337  0.1999  0.2737
    9SAPS   HN1 1066   1.688   4.929   6.207 -0.0042 -1.0754 -0.2502
    9SAPS   HN2 1067   1.559   5.029   6.259 -0.5775 -0.1085  0.5706
    9SAPS   HN3 1068   1.590   4.876   6.335 -0.8556  1.9395  1.4295
    9SAPS   C12 1069   1.511   4.864   6.147  0.8393  0.2656 -0.2098
    9SAPS  H12A 1070   1.473   4.931   6.072  0.2693 -0.3302 -0.4631
    9SAPS   C13 1071   1.582   4.747   6.072 -0.3063 -0.7450 -0.0892
    9SAPS  O13A 1072   1.704   4.763   6.074 -0.9322 -0.2075  0.3076
    9SAPS  O13B 1073   1.510   4.663   6.010 -0.0846 -1.0105 -0.5952
    9SAPS   C11 1074   1.390   4.799   6.221  0.1921  0.1360 -0.2980
    9SAPS  H11A 1075   1.421   4.715   6.287  1.0841  0.0545 -0.8116
    9SAPS  H11B 1076   1.312   4.760   6.153 -0.1768  0.3585 -0.0095
    9SAPS     P 1077   1.186   4.864   6.386  0.5707 -0.1966  0.4385
    9SAPS   O13 1078   1.120   4.990   6.425 -0.4207 -0.3706 -0.2504
    9SAPS   O14 1079   1.102   4.776   6.303  0.6983 -0.4852 -0.0768
    9SAPS   O12 1080   1.321   4.899   6.306 -0.2381  0.1856  0.5241
    9SAPS   O11 1081   1.242   4.793   6.519  0.6824 -0.2165 -0.5545
    9SAPS    C1 1082   1.303   4.885   6.618 -0.6940  0.9523 -0.0123
    9SAPS    HA 1083   1.400   4.838   6.646 -0.8945  0.9857  0.7554
    9SAPS    HB 1084   1.336   4.982   6.575 -0.4805  1.5313  1.4130
    9SAPS    C2 1085   1.226   4.897   6.750 -1.3525  0.5820  0.4972
    9SAPS    HS 1086   1.298   4.954   6.812  1.1653 -1.5836 -0.2737
    9SAPS   O21 1087   1.217   4.766   6.809  0.1160  0.6583 -0.0480
    9SAPS   C21 1088   1.208   4.751   6.931 -0.0829  0.6035 -0.2591
    9SAPS   O22 1089   1.231   4.836   7.019 -0.1396 -0.5729  0.4949
    9SAPS   C22 1090   1.146   4.612   6.953  0.2622 -0.5031  0.2542
    9SAPS   H2R 1091   1.054   4.624   7.014  1.8838 -1.7514  3.1432
    9SAPS   H2S 1092   1.132   4.565   6.853  0.3635 -0.8973  0.4247
    9SAPS    C3 1093   1.082   4.956   6.741  0.3230 -0.2258  0.3188
    9SAPS    HX 1094   1.018   4.873   6.704 -0.4576  0.3353  0.3779
    9SAPS    HY 1095   1.073   5.041   6.671  0.7816  0.8825  1.5642
    9SAPS   O31 1096   1.040   4.997   6.873  0.4067  0.1254 -0.0703
    9SAPS   C31 1097   1.107   5.103   6.921  0.1270  0.2502 -0.9545
    9SAPS   O32 1098   1.184   5.172   6.857  0.1308  0.2916 -0.2373
    9SAPS   C32 1099   1.089   5.103   7.072  0.0516  0.6488  0.8020
    9SAPS   H2X 1100   1.081   4.995   7.099  2.0579 -0.0659 -1.1084
    9SAPS   H2Y 1101   0.989   5.150   7.081 -0.7827 -1.1694  1.6289
    9SAPS   C23 1102   1.229   4.510   7.031 -0.0465 -0.1351 -0.5721
    9SAPS   H3R 1103   1.334   4.520   6.996  0.3118  2.5268  0.9229
    9SAPS   H3S 1104   1.194   4.406   7.021 -2.7346  0.5129  1.0915
    9SAPS   C24 1105   1.210   4.532   7.184 -0.3392  0.0410 -0.2383
    9SAPS   H4R 1106   1.102   4.517   7.205 -0.9496 -0.3831 -3.2021
    9SAPS   H4S 1107   1.229   4.639   7.208 -0.2486  0.0066 -0.1571
    9SAPS   C25 1108   1.303   4.450   7.275 -0.3113  0.3788  0.5819
    9SAPS   H5R 1109   1.347   4.366   7.220 -0.4644 -0.1150  1.2010
    9SAPS   C26 1110   1.319   4.465   7.407  0.5005 -0.6198 -0.0758
    9SAPS   H6R 1111   1.391   4.399   7.457 -1.5693 -0.8198  2.9634
    9SAPS   C27 1112   1.259   4.565   7.503 -0.2784 -0.4597  0.2294
    9SAPS   H7R 1113   1.229   4.654   7.442  0.1730 -0.8591 -0.5918
    9SAPS   H7S 1114   1.336   4.608   7.571 -1.7559  1.5149  0.7632
    9SAPS   C28 1115   1.139   4.522   7.581 -0.0713 -0.3816 -0.3864
    9SAPS   H8R 1116   1.048   4.515   7.519 -1.0505  0.6711  0.8686
    9SAPS   C29 1117   1.124   4.493   7.718 -0.2442  0.5565  0.9121
    9SAPS   H9R 1118   1.022   4.472   7.752 -1.1257  1.5088 -1.0054
    9SAPS  C210 1119   1.241   4.482   7.814 -0.8295  0.3536 -0.1634
    9SAPS  H10R 1120   1.342   4.479   7.768  1.4542 -3.1893  4.2420
    9SAPS  H10S 1121   1.242   4.378   7.854  0.1647  0.3554 -0.1711
    9SAPS  C211 1122   1.214   4.584   7.919 -0.4228  0.8106  0.2479
    9SAPS  H11R 1123   1.170   4.677   7.880 -3.2455 -0.9608 -1.1341
    9SAPS  C212 1124   1.255   4.579   8.044  0.0062 -0.8177 -0.5067
    9SAPS  H12R 1125   1.250   4.667   8.110 -0.9842 -1.7621  0.7001
    9SAPS  C213 1126   1.331   4.469   8.116 -0.3690 -1.0097  0.3684
    9SAPS  H13R 1127   1.398   4.417   8.044 -1.5561 -0.9430 -0.8136
    9SAPS  H13S 1128   1.263   4.396   8.165 -2.0713  0.4690  0.2913
    9SAPS  C214 1129   1.425   4.511   8.221 -0.4926  0.5748 -0.1860
    9SAPS  H14R 1130   1.533   4.521   8.200 -0.2985  0.9424  0.9083
    9SAPS  C215 1131   1.384   4.562   8.340  0.0577 -0.3584 -0.6266
    9SAPS  H15R 1132   1.456   4.585   8.419 -0.2991  1.2727 -0.7326
    9SAPS  C216 1133   1.238   4.583   8.383 -0.0283 -0.4392  0.1514
    9SAPS  H16R 1134   1.177   4.577   8.291 -2.1060 -1.2876  1.5089
    9SAPS  H16S 1135   1.233   4.673   8.449  0.1422 -1.4421  1.5659
    9SAPS  C217 1136   1.184   4.472   8.479  0.0873  0.3305 -0.6832
    9SAPS  H17R 1137   1.261   4.472   8.559  0.0416  0.4036 -0.6394
    9SAPS  H17S 1138   1.191   4.366   8.447 -2.6590  0.2196 -1.1256
    9SAPS  C218 1139   1.035   4.480   8.523  0.0427 -0.6027  0.5424
    9SAPS  H18R 1140   0.965   4.462   8.439 -0.8580  0.2541  1.1007
    9SAPS  H18S 1141   1.021   4.583   8.562  0.1878  0.0594 -1.0866
    9SAPS  C219 1142   0.999   4.407   8.654  0.0544  0.0269 -0.9823
    9SAPS  H19R 1143   1.003   4.298   8.635 -2.6478 -0.5588  1.0696
    9SAPS  H19S 1144   0.890   4.428   8.665 -0.1426 -1.1250 -0.6224
    9SAPS  C220 1145   1.074   4.452   8.779  0.2911 -0.1351 -0.2208
    9SAPS  H20R 1146   1.037   4.550   8.817  0.9762 -0.3306  1.0121
    9SAPS  H20S 1147   1.185   4.456   8.781  0.2994 -0.5627  1.1097
    9SAPS  H20T 1148   1.049   4.378   8.857 -0.0981 -1.8762 -1.9392
    9SAPS   C33 1149   1.201   5.176   7.148 -0.7295 -0.1451 -0.2855
    9SAPS   H3X 1150   1.217   5.275   7.101  0.4080  0.6478  1.6576
    9SAPS   H3Y 1151   1.289   5.109   7.156  0.2256  1.1798  0.6772
    9SAPS   C34 1152   1.169   5.191   7.292 -0.2900  0.2436 -0.4825
    9SAPS   H4X 1153   1.197   5.099   7.347 -0.3984  0.1091 -0.6521
    9SAPS   H4Y 1154   1.061   5.217   7.298  0.0089  1.6256 -0.6829
    9SAPS   C35 1155   1.252   5.309   7.349 -0.3031 -0.3895  0.2897
    9SAPS   H5X 1156   1.261   5.382   7.266  0.7420  1.5736  2.0085
    9SAPS   H5Y 1157   1.359   5.285   7.363  0.3304  1.2763 -1.3188
    9SAPS   C36 1158   1.184   5.364   7.471 -0.0385  0.1387 -0.0084
    9SAPS   H6X 1159   1.194   5.291   7.554 -2.7136  0.0801  0.3391
    9SAPS   H6Y 1160   1.079   5.388   7.445 -1.4186 -3.6747  1.3379
    9SAPS   C37 1161   1.269   5.491   7.514  0.0174  0.0951  0.0536
    9SAPS   H7X 1162   1.264   5.557   7.424 -0.6941 -0.4851 -0.3388
    9SAPS   H7Y 1163   1.375   5.464   7.536 -0.0061  1.3532  1.8468
    9SAPS   C38 1164   1.217   5.561   7.637  0.0859  0.8665  0.3872
    9SAPS   H8X 1165   1.178   5.472   7.691 -1.1613  0.2045 -1.4798
    9SAPS   H8Y 1166   1.132   5.627   7.608 -1.3396 -1.2229 -0.4687
    9SAPS   C39 1167   1.324   5.621   7.725 -0.8835 -0.5484 -0.0282
    9SAPS   H9X 1168   1.356   5.723   7.693 -2.2924 -0.2902 -0.6896
    9SAPS   H9Y 1169   1.415   5.558   7.733 -1.6425 -2.1391 -2.7497
    9SAPS  C310 1170   1.273   5.628   7.870 -0.6658 -0.1318  0.0518
    9SAPS  H10X 1171   1.236   5.529   7.907 -2.8458  0.6981  0.2270
    9SAPS  H10Y 1172   1.180   5.687   7.857  0.4181  1.4333 -0.9136
    9SAPS  C311 1173   1.369   5.697   7.980  0.7694 -0.1967 -0.3003
    9SAPS  H11X 1174   1.305   5.684   8.069 -0.8538 -1.9821 -1.6394
    9SAPS  H11Y 1175   1.380   5.806   7.961  1.9861 -0.3008 -0.2598
    9SAPS  C312 1176   1.509   5.633   7.993 -0.0579 -0.9324 -0.9943
    9SAPS  H12X 1177   1.569   5.664   7.905  3.5003 -1.3999  1.0804
    9SAPS  H12Y 1178   1.494   5.523   7.990 -0.0684 -1.0444  1.3295
    9SAPS  C313 1179   1.578   5.692   8.118  0.1714 -0.0855  0.3362
    9SAPS  H13X 1180   1.514   5.667   8.206 -1.7139 -1.1608 -1.2679
    9SAPS  H13Y 1181   1.596   5.800   8.103 -0.2769  0.1826  1.5624
    9SAPS  C314 1182   1.718   5.624   8.144  0.8609  0.5243 -0.4772
    9SAPS  H14X 1183   1.758   5.672   8.236 -0.5846 -0.1509  0.5529
    9SAPS  H14Y 1184   1.786   5.646   8.059  0.5050 -2.4378 -1.6455
    9SAPS  C315 1185   1.718   5.467   8.169  0.2943 -0.3259 -0.7469
    9SAPS  H15X 1186   1.687   5.407   8.081 -0.0040  0.3726 -1.1239
    9SAPS  H15Y 1187   1.644   5.442   8.248 -0.1789  0.7036 -0.8570
    9SAPS  C316 1188   1.851   5.414   8.226 -0.3671 -0.3949 -0.1612
    9SAPS  H16X 1189   1.834   5.312   8.267  0.6914 -0.3329  0.4597
    9SAPS  H16Y 1190   1.889   5.486   8.301 -2.3385 -1.1324  1.6603
    9SAPS  C317 1191   1.960   5.406   8.120 -1.0131  0.3640  0.6740
    9SAPS  H17X 1192   1.983   5.506   8.076 -0.4256 -0.4973 -1.1239
    9SAPS  H17Y 1193   1.930   5.351   8.028 -1.4339  1.5880  0.0523
    9SAPS  C318 1194   2.087   5.340   8.184 -0.2210  0.6903  0.1958
    9SAPS  H18X 1195   2.142   5.420   8.239  2.1916 -1.1042  0.5448
    9SAPS  H18Y 1196   2.152   5.310   8.099 -0.3903  2.0389 -0.4433
    9SAPS  H18Z 1197   2.061   5.257   8.253  1.4272 -0.4694 -0.5289
   10SAPS     N 1198   1.413   3.437   6.206 -0.2151  0.0522  0.1488
   10SAPS   HN1 1199   1.411   3.439   6.102 -2.0986 -0.8967  0.1195
   10SAPS   HN2 1200   1.412   3.336   6.232 -1.5179  0.3141  1.2767
   10SAPS   HN3 1201   1.322   3.473   6.243 -1.3368 -2.3857 -0.0470
   10SAPS   C12 1202   1.534   3.513   6.258  0.0083 -0.3620 -0.3067
   10SAPS  H12A 1203   1.547   3.493   6.364 -2.7004 -0.0213  0.1656
   10SAPS   C13 1204   1.669   3.477   6.179  0.5371  0.4989  0.0313
   10SAPS  O13A 1205   1.665   3.385   6.095 -0.8218  0.1756 -0.4392
   10SAPS  O13B 1206   1.773   3.536   6.218  0.4429  0.1619 -0.1416
   10SAPS   C11 1207   1.514   3.668   6.253  0.4355  0.1614  0.0163
   10SAPS  H11A 1208   1.506   3.706   6.149  0.2320 -2.4471 -1.0058
   10SAPS  H11B 1209   1.607   3.705   6.301  0.6695 -1.2798  0.7277
   10SAPS     P 1210   1.370   3.862   6.325 -0.1221 -0.4341 -0.4422
   10SAPS   O13 1211   1.379   3.922   6.188 -0.4148  0.0259 -0.0745
   10SAPS   O14 1212   1.248   3.885   6.407 -0.5880 -0.4435  0.6908
   10SAPS   O12 1213   1.403   3.707   6.330 -0.5767  0.3809  0.2819
   10SAPS   O11 1214   1.487   3.917   6.410 -0.2021  0.3133 -0.4369
   10SAPS    C1 1215   1.486   4.051   6.463  0.0597 -0.4114 -0.6599
   10SAPS    HA 1216   1.545   4.125   6.405 -1.5018  1.8275  0.4910
   10SAPS    HB 1217   1.387   4.100   6.464  0.5296  0.5891  1.6198
   10SAPS    C2 1218   1.546   4.056   6.609 -0.2961 -0.4826 -0.2524
   10SAPS    HS 1219   1.502   4.146   6.656  0.7687  0.3106 -0.7305
   10SAPS   O21 1220   1.697   4.063   6.599  1.0885  0.0485 -0.5505
   10SAPS   C21 1221   1.741   4.140   6.698  0.3821 -0.1419  0.0405
   10SAPS   O22 1222   1.677   4.201   6.781 -0.2889  0.1707 -0.0463
   10SAPS   C22 1223   1.890   4.138   6.679 -0.8178  0.3178  0.0119
   10SAPS   H2R 1224   1.920   4.031   6.686 -1.1188  0.1427 -1.2825
   10SAPS   H2S 1225   1.919   4.188   6.585 -0.4791  2.7654  1.3360
   10SAPS    C3 1226   1.505   3.934   6.686  0.2801 -0.2636 -0.1900
   10SAPS    HX 1227   1.583   3.856   6.670  0.7736  0.2099 -0.1107
   10SAPS    HY 1228   1.411   3.896   6.640 -0.2465  1.4930 -0.6421
   10SAPS   O31 1229   1.487   3.961   6.823 -0.2608 -0.3136 -0.1985
   10SAPS   C31 1230   1.369   3.952   6.884 -0.1563  0.3144  0.5750
   10SAPS   O32 1231   1.261   3.929   6.830  0.3137  0.7256 -0.2632
   10SAPS   C32 1232   1.391   3.979   7.036 -0.1696  0.2909  0.7147
   10SAPS   H2X 1233   1.449   4.072   7.054  1.0903 -0.4241  0.5245
   10SAPS   H2Y 1234   1.455   3.892   7.062 -1.8958 -1.9509 -1.9942
   10SAPS   C23 1235   1.960   4.214   6.792  0.5546 -0.2720  0.1241
   10SAPS   H3R 1236   1.920   4.314   6.820  0.7734  0.2823 -1.4420
   10SAPS   H3S 1237   2.063   4.243   6.762  0.2025 -0.2261 -1.1061
   10SAPS   C24 1238   1.979   4.134   6.927  0.2751  0.0095 -0.2442
   10SAPS   H4R 1239   2.041   4.048   6.892  0.9054 -0.4031  1.7777
   10SAPS   H4S 1240   1.882   4.095   6.962  1.3177 -1.2457  1.3924
   10SAPS   C25 1241   2.062   4.203   7.032 -0.7537  0.1748  0.0845
   10SAPS   H5R 1242   2.163   4.237   7.006 -1.1362  0.5916 -0.9058
   10SAPS   C26 1243   2.020   4.234   7.159  0.1092  0.5416  0.2334
   10SAPS   H6R 1244   2.097   4.270   7.229  0.5962 -2.3858  1.3250
   10SAPS   C27 1245   1.888   4.197   7.222  0.4861  0.3166  0.6769
   10SAPS   H7R 1246   1.912   4.165   7.325  5.8546  2.5379  0.4620
   10SAPS   H7S 1247   1.848   4.104   7.177 -0.1610  0.7189  0.4043
   10SAPS   C28 1248   1.779   4.301   7.208 -0.1300 -0.3911 -0.7466
   10SAPS   H8R 1249   1.760   4.356   7.115 -0.4185  1.3612  0.3138
   10SAPS   C29 1250   1.694   4.343   7.305  0.1404  0.2871 -0.1673
   10SAPS   H9R 1251   1.623   4.425   7.287 -0.8389  0.1573  2.6961
   10SAPS  C210 1252   1.690   4.291   7.450  0.3607 -0.2373  0.3548
   10SAPS  H10R 1253   1.665   4.378   7.514  1.7420 -0.3700  1.1058
   10SAPS  H10S 1254   1.791   4.259   7.482  1.1875 -1.6104 -3.1424
   10SAPS  C211 1255   1.589   4.188   7.485  0.2335  0.4639  0.0281
   10SAPS  H11R 1256   1.527   4.151   7.402 -0.5209  0.5941  0.5301
   10SAPS  C212 1257   1.573   4.135   7.609  0.7756 -0.2330  0.2530
   10SAPS  H12R 1258   1.487   4.068   7.628 -0.1447  1.0091  0.5988
   10SAPS  C213 1259   1.657   4.187   7.720 -0.1502  0.1794  0.4655
   10SAPS  H13R 1260   1.653   4.298   7.707 -1.5720 -0.0769 -1.9943
   10SAPS  H13S 1261   1.763   4.155   7.714 -0.2946 -0.4728  1.3722
   10SAPS  C214 1262   1.613   4.150   7.859 -0.0604 -0.7101 -0.7663
   10SAPS  H14R 1263   1.562   4.055   7.878  1.0433 -1.0802  0.5019
   10SAPS  C215 1264   1.634   4.227   7.968  1.3008 -0.0393  0.6320
   10SAPS  H15R 1265   1.598   4.195   8.067 -0.2267  2.1620  0.8630
   10SAPS  C216 1266   1.708   4.359   7.969  0.5386  0.1428  0.3148
   10SAPS  H16R 1267   1.629   4.425   8.012 -0.2610 -0.6637  0.1111
   10SAPS  H16S 1268   1.731   4.401   7.869  0.5379 -1.8593 -0.5644
   10SAPS  C217 1269   1.839   4.361   8.046 -0.9188  0.0923 -0.2426
   10SAPS  H17R 1270   1.891   4.456   8.020  1.8033 -1.1824  0.1902
   10SAPS  H17S 1271   1.902   4.272   8.027 -1.3107 -0.3707  0.5662
   10SAPS  C218 1272   1.819   4.365   8.197 -0.4330 -0.2706 -0.1923
   10SAPS  H18R 1273   1.775   4.270   8.235 -2.9462  0.0589 -2.0152
   10SAPS  H18S 1274   1.741   4.440   8.222  0.1551  1.8111 -3.9149
   10SAPS  C219 1275   1.943   4.407   8.285 -1.0118 -0.1057 -0.4020
   10SAPS  H19R 1276   1.905   4.407   8.389  1.4757  0.3261  0.5717
   10SAPS  H19S 1277   1.983   4.505   8.252  0.9885  0.4354  3.1624
   10SAPS  C220 1278   2.059   4.307   8.268 -0.7497 -0.0607 -0.2059
   10SAPS  H20R 1279   2.152   4.336   8.323 -1.6157  0.5614  0.9830
   10SAPS  H20S 1280   2.103   4.305   8.166  2.6668 -2.9966  1.0798
   10SAPS  H20T 1281   2.037   4.199   8.284  2.5668 -1.1607 -2.1325
   10SAPS   C33 1282   1.263   3.973   7.118 -0.2127 -0.0812  0.1886
   10SAPS   H3X 1283   1.230   3.867   7.118 -1.0494  0.1687 -0.2045
   10SAPS   H3Y 1284   1.183   4.029   7.063 -1.3205 -1.5591  0.2275
   10SAPS   C34 1285   1.291   4.019   7.262  0.7112 -0.2176 -0.2462
   10SAPS   H4X 1286   1.325   4.124   7.261 -0.9718  0.3615  0.0895
   10SAPS   H4Y 1287   1.376   3.964   7.308  0.6160 -0.1481  0.0082
   10SAPS   C35 1288   1.182   4.000   7.370 -0.4407 -0.0619  0.1884
   10SAPS   H5X 1289   1.169   3.891   7.390 -1.3703 -0.1504 -0.8191
   10SAPS   H5Y 1290   1.083   4.043   7.343 -0.1911  0.6506  0.3866
   10SAPS   C36 1291   1.221   4.058   7.506 -0.6515 -0.4053  0.4777
   10SAPS   H6X 1292   1.223   4.167   7.484 -1.5077 -1.0980 -3.8838
   10SAPS   H6Y 1293   1.326   4.030   7.529 -1.1808 -1.7371  1.4312
   10SAPS   C37 1294   1.132   4.016   7.628 -0.2575 -0.4694 -0.8075
   10SAPS   H7X 1295   1.143   3.906   7.641 -2.6282 -0.5268  1.4576
   10SAPS   H7Y 1296   1.023   4.033   7.613 -0.4660 -1.1492 -0.1201
   10SAPS   C38 1297   1.194   4.081   7.754 -0.4911 -0.0922  0.0606
   10SAPS   H8X 1298   1.194   4.191   7.738 -0.3992 -0.1058 -0.0295
   10SAPS   H8Y 1299   1.301   4.058   7.771 -0.6600 -0.4489  0.7028
   10SAPS   C39 1300   1.123   4.047   7.885  0.5187  0.5495 -0.2947
   10SAPS   H9X 1301   1.118   3.936   7.891 -1.1217  0.4774 -1.9974
   10SAPS   H9Y 1302   1.020   4.086   7.869  0.9695  2.1360  0.4382
   10SAPS  C310 1303   1.193   4.101   8.012 -1.0320 -0.0704  0.4294
   10SAPS  H10X 1304   1.186   4.212   8.010  0.4725  0.0673 -2.5371
   10SAPS  H10Y 1305   1.302   4.081   8.028 -0.9868 -1.8852 -1.6979
   10SAPS  C311 1306   1.123   4.059   8.141 -0.3459 -0.7940  0.5957
   10SAPS  H11X 1307   1.138   3.950   8.158  0.7012 -1.2183 -2.4623
   10SAPS  H11Y 1308   1.012   4.062   8.145 -0.3356  1.4171  0.2786
   10SAPS  C312 1309   1.166   4.133   8.268 -0.0362  0.3530  0.0362
   10SAPS  H12X 1310   1.127   4.088   8.362 -0.5747 -0.3618 -0.5244
   10SAPS  H12Y 1311   1.129   4.237   8.257 -2.8414 -0.8400 -4.0577
   10SAPS  C313 1312   1.315   4.141   8.301 -0.3445 -0.5443  0.5051
   10SAPS  H13X 1313   1.326   4.156   8.411  1.7419  0.5693  0.1907
   10SAPS  H13Y 1314   1.360   4.231   8.255  0.8504 -0.9268  0.9035
   10SAPS  C314 1315   1.409   4.022   8.272 -0.4845 -0.2413  0.0352
   10SAPS  H14X 1316   1.445   4.013   8.167  0.6612  1.6022  0.2219
   10SAPS  H14Y 1317   1.348   3.929   8.276 -0.3740 -0.4158 -1.6957
   10SAPS  C315 1318   1.522   3.998   8.373  0.4945 -0.0010  0.1990
   10SAPS  H15X 1319   1.482   4.016   8.476  0.1050  1.7198 -0.2210
   10SAPS  H15Y 1320   1.595   4.078   8.349  0.2925 -0.3021 -1.5289
   10SAPS  C316 1321   1.605   3.874   8.350  0.4833 -0.9177  0.1677
   10SAPS  H16X 1322   1.542   3.783   8.366  2.0591 -1.9034  1.0540
   10SAPS  H16Y 1323   1.689   3.871   8.423  0.8801 -1.3704 -0.2994
   10SAPS  C317 1324   1.668   3.870   8.207  0.0131  0.6610 -0.1857
   10SAPS  H17X 1325   1.590   3.865   8.127  0.4971  0.7162 -0.6722
   10SAPS  H17Y 1326   1.717   3.770   8.202 -2.1094 -0.4538  0.1869
   10SAPS  C318 1327   1.768   3.977   8.168 -0.6080  0.0423  0.6772
   10SAPS  H18X 1328   1.822   3.947   8.076  0.6698 -0.8926  1.6931
   10SAPS  H18Y 1329   1.843   3.983   8.250 -0.2166  5.6909  0.3504
   10SAPS  H18Z 1330   1.713   4.074   8.163  0.0449  0.7499  4.3483
   11SAPS     N 1331   2.936   5.898   5.662  0.1678 -0.2016  0.5749
   11SAPS   HN1 1332   2.953   5.953   5.576  0.9113 -1.3312 -0.0256
   11SAPS   HN2 1333   2.859   5.829   5.651  1.7115 -1.7733 -0.9821
   11SAPS   HN3 1334   2.904   5.965   5.735 -0.1096  0.3367 -0.0307
   11SAPS   C12 1335   3.057   5.839   5.713 -0.4380 -0.0777  0.0122
   11SAPS  H12A 1336   3.083   5.764   5.640 -0.4881  0.2019 -0.2933
   11SAPS   C13 1337   3.173   5.942   5.724 -0.0781  0.0904 -0.5668
   11SAPS  O13A 1338   3.151   6.065   5.696 -0.7012 -0.4904  0.1281
   11SAPS  O13B 1339   3.280   5.902   5.776  0.8998 -0.2432  0.3513
   11SAPS   C11 1340   3.030   5.770   5.854  0.3550 -0.8034  0.0144
   11SAPS  H11A 1341   2.984   5.849   5.917 -2.3309 -1.7795 -0.5474
   11SAPS  H11B 1342   3.131   5.741   5.890  0.3766  0.2671  0.8594
   11SAPS     P 1343   2.927   5.553   5.962  0.0186 -0.3205  0.2853
   11SAPS   O13 1344   2.783   5.519   5.963 -0.3163  0.5681 -0.7758
   11SAPS   O14 1345   3.030   5.446   5.940 -0.3774  0.4870  0.0534
   11SAPS   O12 1346   2.951   5.659   5.849  0.3264  0.7685  0.3808
   11SAPS   O11 1347   2.960   5.637   6.081  0.3519 -0.2408  0.6134
   11SAPS    C1 1348   3.052   5.607   6.175 -0.2054  0.0041  0.2323
   11SAPS    HA 1349   3.068   5.500   6.202 -0.4737  0.0251  0.4720
   11SAPS    HB 1350   3.151   5.633   6.131 -1.0964  1.4635 -0.9746
   11SAPS    C2 1351   3.019   5.686   6.307 -0.4252  0.4088 -0.2670
   11SAPS    HS 1352   2.922   5.650   6.349  0.0093  0.5629  0.8721
   11SAPS   O21 1353   3.006   5.823   6.282  0.0174  0.4186  0.3610
   11SAPS   C21 1354   2.925   5.891   6.358 -0.1397  0.2207 -0.2138
   11SAPS   O22 1355   2.856   5.850   6.450 -0.5836  0.3120 -0.0078
   11SAPS   C22 1356   2.932   6.035   6.319 -0.5277  0.1313 -0.9864
   11SAPS   H2R 1357   3.021   6.045   6.254 -0.0579 -2.0237 -0.7587
   11SAPS   H2S 1358   2.844   6.062   6.257  0.5689  0.8241 -2.2925
   11SAPS    C3 1359   3.122   5.659   6.415 -0.3037 -0.2018 -0.8316
   11SAPS    HX 1360   3.208   5.726   6.391  0.7960 -0.4935  1.9058
   11SAPS    HY 1361   3.163   5.556   6.410  0.9952  0.0191  2.5116
   11SAPS   O31 1362   3.076   5.689   6.547 -0.1418  0.2689  0.3195
   11SAPS   C31 1363   3.018   5.592   6.615 -0.2404 -0.3619  0.6630
   11SAPS   O32 1364   2.992   5.482   6.568 -0.1007 -0.4234 -0.0335
   11SAPS   C32 1365   2.985   5.648   6.752  0.3932  0.0386 -0.0013
   11SAPS   H2X 1366   2.882   5.687   6.742  0.0554 -0.6453  0.6676
   11SAPS   H2Y 1367   3.050   5.735   6.776 -0.4988  2.0149 -3.9773
   11SAPS   C23 1368   2.943   6.135   6.439  0.0308 -0.3053  1.2323
   11SAPS   H3R 1369   2.849   6.116   6.496  0.1605 -0.4624  1.3939
   11SAPS   H3S 1370   2.938   6.240   6.402  0.9916 -0.5435  0.3848
   11SAPS   C24 1371   3.062   6.113   6.533 -0.3861  0.3597  0.2025
   11SAPS   H4R 1372   3.151   6.125   6.468 -0.4467 -0.1166  0.0329
   11SAPS   H4S 1373   3.070   6.011   6.576 -2.3053 -0.3103 -0.9296
   11SAPS   C25 1374   3.061   6.222   6.636 -0.0624  0.6638 -0.4199
   11SAPS   H5R 1375   3.090   6.325   6.609  2.1822  1.0150  2.7620
   11SAPS   C26 1376   3.031   6.207   6.764  1.0834  0.2440  0.2418
   11SAPS   H6R 1377   3.030   6.298   6.826  2.4831  0.7413 -0.4128
   11SAPS   C27 1378   2.993   6.076   6.847 -0.7789 -0.6273 -0.0493
   11SAPS   H7R 1379   3.008   6.108   6.952  0.5043  0.8837 -0.6490
   11SAPS   H7S 1380   3.080   6.007   6.838 -0.1470  0.2782 -1.2636
   11SAPS   C28 1381   2.860   6.011   6.811 -0.6343  0.1070 -0.5288
   11SAPS   H8R 1382   2.823   6.025   6.708  0.4301  0.3552 -0.8877
   11SAPS   C29 1383   2.789   5.954   6.910  0.0770 -0.5296 -0.3249
   11SAPS   H9R 1384   2.687   5.926   6.881  0.2694  0.6229 -2.3046
   11SAPS  C210 1385   2.820   5.941   7.059 -0.2474 -0.0114 -0.0962
   11SAPS  H10R 1386   2.927   5.922   7.081 -0.3337 -2.6747 -1.5272
   11SAPS  H10S 1387   2.763   5.849   7.085 -2.7784  0.6649 -2.6555
   11SAPS  C211 1388   2.764   6.056   7.134  0.1779 -0.6073 -0.0953
   11SAPS  H11R 1389   2.829   6.145   7.135 -2.4691  1.4618 -0.7272
   11SAPS  C212 1390   2.639   6.081   7.187  0.0708 -0.5373  0.1375
   11SAPS  H12R 1391   2.617   6.180   7.230 -3.0181  1.1254 -4.4918
   11SAPS  C213 1392   2.518   5.999   7.183  0.5258  0.3789  0.1887
   11SAPS  H13R 1393   2.556   5.897   7.160  2.7760  0.4129  3.2218
   11SAPS  H13S 1394   2.455   6.032   7.097 -0.2275  0.9451  0.9440
   11SAPS  C214 1395   2.435   5.999   7.308  0.0881  0.1384 -0.2558
   11SAPS  H14R 1396   2.476   6.051   7.395 -0.4360  0.0607  0.0437
   11SAPS  C215 1397   2.305   5.961   7.309 -1.0716 -0.7822 -0.5766
   11SAPS  H15R 1398   2.263   5.952   7.411  2.5753 -0.1277  1.1410
   11SAPS  C216 1399   2.228   5.896   7.194  0.0195  0.0206 -0.1550
   11SAPS  H16R 1400   2.269   5.926   7.095 -1.7941 -0.6733 -1.1519
   11SAPS  H16S 1401   2.131   5.949   7.202  0.4151  0.8962 -0.8845
   11SAPS  C217 1402   2.195   5.748   7.217  0.0055  0.5695 -0.2060
   11SAPS  H17R 1403   2.193   5.723   7.325 -1.9650 -0.5458 -0.4512
   11SAPS  H17S 1404   2.279   5.690   7.173 -0.9329 -0.8572 -0.1831
   11SAPS  C218 1405   2.057   5.715   7.154  0.1262  0.2267 -0.0940
   11SAPS  H18R 1406   2.055   5.768   7.056  1.0100 -1.5253 -1.1168
   11SAPS  H18S 1407   1.980   5.765   7.217 -0.4525  1.7086 -1.8672
   11SAPS  C219 1408   2.042   5.564   7.122  0.3926  0.0432 -0.3574
   11SAPS  H19R 1409   1.994   5.514   7.209 -0.6147 -1.2590 -1.6160
   11SAPS  H19S 1410   2.139   5.519   7.094  0.8762  1.4666 -1.0844
   11SAPS  C220 1411   1.949   5.541   7.008  0.3002 -0.2828 -0.0584
   11SAPS  H20R 1412   1.864   5.613   7.008 -0.6319 -1.3438 -1.1158
   11SAPS  H20S 1413   1.914   5.436   7.016  0.7057 -0.4209 -0.0570
   11SAPS  H20T 1414   2.002   5.554   6.910  3.7459  1.0588  1.8001
   11SAPS   C33 1415   2.998   5.538   6.858 -0.0217  0.1738 -0.1686
   11SAPS   H3X 1416   3.100   5.494   6.856 -0.1198 -0.0768  0.1701
   11SAPS   H3Y 1417   2.931   5.453   6.835  0.8870 -0.0814 -1.9850
   11SAPS   C34 1418   2.969   5.600   6.993  0.1150 -0.5938 -0.5407
   11SAPS   H4X 1419   2.870   5.650   6.988 -1.3346 -3.3474 -0.8216
   11SAPS   H4Y 1420   3.044   5.677   7.022 -0.5729 -0.1697  0.1536
   11SAPS   C35 1421   2.953   5.506   7.117 -0.3447  0.1446 -0.2113
   11SAPS   H5X 1422   3.040   5.437   7.125 -0.8865 -0.7674 -1.7928
   11SAPS   H5Y 1423   2.875   5.441   7.073 -0.1670  1.3375 -2.4803
   11SAPS   C36 1424   2.914   5.588   7.238  0.1362  0.0653  0.8908
   11SAPS   H6X 1425   2.828   5.655   7.216  1.3217  1.7391  1.1465
   11SAPS   H6Y 1426   2.998   5.652   7.272 -0.2579  0.7570  0.5847
   11SAPS   C37 1427   2.893   5.495   7.358 -0.3607 -0.3147  0.6728
   11SAPS   H7X 1428   2.991   5.447   7.374 -0.2917 -0.8907 -1.2122
   11SAPS   H7Y 1429   2.826   5.408   7.341  1.1922 -1.2583 -0.8651
   11SAPS   C38 1430   2.870   5.580   7.485  0.0399 -0.4719  0.5101
   11SAPS   H8X 1431   2.963   5.639   7.500  0.0676  0.3859 -2.3416
   11SAPS   H8Y 1432   2.846   5.509   7.566 -0.1578 -2.8047 -1.4836
   11SAPS   C39 1433   2.749   5.675   7.467 -0.2542 -0.0436 -0.4838
   11SAPS   H9X 1434   2.667   5.607   7.435 -0.1031 -0.4648  0.0215
   11SAPS   H9Y 1435   2.772   5.753   7.391  0.4782  2.1873  1.8560
   11SAPS  C310 1436   2.700   5.751   7.591 -0.2290  0.0664  0.1799
   11SAPS  H10X 1437   2.668   5.674   7.665  1.9813 -2.1904 -1.0425
   11SAPS  H10Y 1438   2.613   5.814   7.562  0.4856  0.5572 -0.9560
   11SAPS  C311 1439   2.812   5.829   7.653 -0.1220 -0.2930  0.2363
   11SAPS  H11X 1440   2.839   5.903   7.574 -0.6181  1.5919  1.7423
   11SAPS  H11Y 1441   2.903   5.768   7.672  2.1082  1.3029 -3.9214
   11SAPS  C312 1442   2.760   5.907   7.779 -0.5964 -0.0707  0.4703
   11SAPS  H12X 1443   2.674   5.970   7.749  0.4883  0.9730 -0.6274
   11SAPS  H12Y 1444   2.837   5.983   7.805 -0.2961 -0.3394  0.3743
   11SAPS  C313 1445   2.714   5.813   7.896  0.1158 -0.2646 -0.0451
   11SAPS  H13X 1446   2.805   5.763   7.936  0.0688 -0.8745 -0.6832
   11SAPS  H13Y 1447   2.641   5.740   7.854 -0.5837  0.3445  0.1114
   11SAPS  C314 1448   2.659   5.910   8.003 -0.5526 -0.1802 -0.7342
   11SAPS  H14X 1449   2.580   5.980   7.966 -0.6182  0.6442  0.8767
   11SAPS  H14Y 1450   2.740   5.979   8.036 -1.2751  0.9841 -1.3073
   11SAPS  C315 1451   2.621   5.830   8.130  0.3161 -0.2019  0.0025
   11SAPS  H15X 1452   2.649   5.894   8.216 -1.2736  3.4421 -1.9328
   11SAPS  H15Y 1453   2.685   5.740   8.139  0.6541 -0.2958 -2.4819
   11SAPS  C316 1454   2.469   5.792   8.152 -0.2191 -0.2508 -0.3080
   11SAPS  H16X 1455   2.410   5.789   8.057 -0.1503 -3.0430 -0.3430
   11SAPS  H16Y 1456   2.431   5.869   8.222 -0.0745 -0.4615  0.0056
   11SAPS  C317 1457   2.446   5.663   8.216 -0.1197 -0.5963  0.1761
   11SAPS  H17X 1458   2.460   5.577   8.148 -1.0587  0.9424 -2.1132
   11SAPS  H17Y 1459   2.338   5.665   8.243 -0.5232 -0.3806 -1.3422
   11SAPS  C318 1460   2.548   5.640   8.333 -0.0110  0.3284  0.0668
   11SAPS  H18X 1461   2.554   5.729   8.400 -0.1252  0.0908  0.3971
   11SAPS  H18Y 1462   2.641   5.597   8.292 -0.4893  0.1065 -0.8114
   11SAPS  H18Z 1463   2.512   5.561   8.402 -1.9377  0.5145 -0.6537
   12SAPS     N 1464   1.281   1.580   5.944  0.2017 -0.4805  0.0913
   12SAPS   HN1 1465   1.275   1.651   6.020  1.2548 -1.9915  1.6485
   12SAPS   HN2 1466   1.274   1.614   5.846  1.1388 -1.8331 -0.4680
   12SAPS   HN3 1467   1.201   1.515   5.956 -0.3160  0.1642  0.2152
   12SAPS   C12 1468   1.401   1.494   5.944  0.0688  0.1370 -0.2333
   12SAPS  H12A 1469   1.370   1.415   5.877 -2.9428  1.7600 -0.9295
   12SAPS   C13 1470   1.532   1.560   5.895 -0.1345 -0.9615 -0.3727
   12SAPS  O13A 1471   1.539   1.691   5.909  0.1704  0.0535 -0.4771
   12SAPS  O13B 1472   1.620   1.485   5.856  0.8219 -0.2489  0.7198
   12SAPS   C11 1473   1.426   1.422   6.083 -0.1395  0.2631  0.7297
   12SAPS  H11A 1474   1.327   1.394   6.124  0.0844 -1.7442  0.0006
   12SAPS  H11B 1475   1.485   1.481   6.158 -1.6437  1.3458  1.1008
   12SAPS     P 1476   1.578   1.213   6.122 -0.6722  0.1837  0.3105
   12SAPS   O13 1477   1.516   1.116   6.215 -0.0500 -0.0704  0.7247
   12SAPS   O14 1478   1.682   1.154   6.023  0.4651 -0.3648 -0.2416
   12SAPS   O12 1479   1.477   1.294   6.049  0.0529 -0.2095  0.7868
   12SAPS   O11 1480   1.656   1.313   6.209  0.0155 -0.7881 -0.5716
   12SAPS    C1 1481   1.761   1.260   6.291  0.0192 -0.0822  0.5272
   12SAPS    HA 1482   1.755   1.150   6.310  0.3531 -0.4188 -1.1775
   12SAPS    HB 1483   1.858   1.275   6.240 -0.5527 -0.3358 -0.6566
   12SAPS    C2 1484   1.766   1.326   6.436  0.1123  0.4109  0.7146
   12SAPS    HS 1485   1.851   1.297   6.502  0.6486  0.6647  0.1439
   12SAPS   O21 1486   1.642   1.283   6.505 -0.4028 -0.2826  0.1642
   12SAPS   C21 1487   1.647   1.163   6.564 -0.7360  0.3871  0.1730
   12SAPS   O22 1488   1.748   1.087   6.552  0.2081 -0.1581 -0.0330
   12SAPS   C22 1489   1.521   1.128   6.643 -0.0437 -0.4232 -0.1689
   12SAPS   H2R 1490   1.524   1.197   6.730  0.4497  1.5063 -1.6515
   12SAPS   H2S 1491   1.430   1.162   6.589 -1.2236 -1.7614  0.8880
   12SAPS    C3 1492   1.769   1.480   6.412 -0.0725  0.1316 -0.6043
   12SAPS    HX 1493   1.676   1.506   6.357 -1.8903 -0.4651  1.9960
   12SAPS    HY 1494   1.854   1.500   6.343  1.1249  2.0226  1.3037
   12SAPS   O31 1495   1.790   1.553   6.536  0.3725  0.0768 -0.5298
   12SAPS   C31 1496   1.911   1.537   6.593 -0.1400  0.0339 -0.5154
   12SAPS   O32 1497   1.999   1.472   6.552  0.5025  0.0917 -0.7034
   12SAPS   C32 1498   1.919   1.606   6.725  0.1390  0.1703  0.1444
   12SAPS   H2X 1499   1.821   1.645   6.758 -1.1360 -2.9892  0.4567
   12SAPS   H2Y 1500   2.001   1.680   6.712 -0.2542  0.3010 -1.9166
   12SAPS   C23 1501   1.525   0.975   6.687 -0.0578 -0.3737  0.2438
   12SAPS   H3R 1502   1.570   0.923   6.600 -0.6088  2.0831 -1.6151
   12SAPS   H3S 1503   1.423   0.934   6.701 -0.5773  1.1902  1.2533
   12SAPS   C24 1504   1.607   0.928   6.807  0.0440  0.1092  0.2052
   12SAPS   H4R 1505   1.711   0.962   6.789 -0.2321  0.2191 -1.2814
   12SAPS   H4S 1506   1.612   0.818   6.819  2.4633 -0.2596 -3.0214
   12SAPS   C25 1507   1.548   0.988   6.931  0.7933  1.1137 -0.5913
   12SAPS   H5R 1508   1.468   0.928   6.978  0.4549  1.5743 -0.5693
   12SAPS   C26 1509   1.585   1.102   6.998  0.1317  0.4532 -0.6197
   12SAPS   H6R 1510   1.521   1.120   7.086  0.5423 -0.2436 -0.1773
   12SAPS   C27 1511   1.692   1.204   6.967  0.1273  0.4129 -1.1049
   12SAPS   H7R 1512   1.651   1.304   6.991  2.0370  1.8430 -3.3661
   12SAPS   H7S 1513   1.707   1.202   6.857 -2.7417  2.8936 -1.6591
   12SAPS   C28 1514   1.825   1.185   7.050  0.0083  0.4929  0.3073
   12SAPS   H8R 1515   1.913   1.158   6.990 -0.6009  0.0827 -0.4135
   12SAPS   C29 1516   1.845   1.189   7.184 -0.0367  0.3382 -0.3073
   12SAPS   H9R 1517   1.946   1.185   7.226  1.0331 -2.0689 -2.7734
   12SAPS  C210 1518   1.737   1.218   7.292 -0.7374 -0.4607 -0.0988
   12SAPS  H10R 1519   1.644   1.239   7.235 -0.2867 -2.0340 -1.4988
   12SAPS  H10S 1520   1.765   1.311   7.346 -0.6523 -0.8043  0.4561
   12SAPS  C211 1521   1.728   1.097   7.388  0.3913 -0.1236  0.6154
   12SAPS  H11R 1522   1.743   0.999   7.339 -0.5096 -1.3980  2.7568
   12SAPS  C212 1523   1.692   1.100   7.517 -0.6822 -0.6648 -0.1655
   12SAPS  H12R 1524   1.675   1.001   7.562  0.9668 -0.3968  1.1569
   12SAPS  C213 1525   1.651   1.223   7.591  0.6594 -0.3431  0.0098
   12SAPS  H13R 1526   1.667   1.319   7.538  0.2053  1.0001  2.1515
   12SAPS  H13S 1527   1.705   1.224   7.688  0.3084  0.2810  0.2051
   12SAPS  C214 1528   1.504   1.222   7.621  0.1080  0.4092  0.3156
   12SAPS  H14R 1529   1.440   1.189   7.537 -1.3672  1.3115  1.0373
   12SAPS  C215 1530   1.435   1.269   7.723 -0.3808 -0.0648 -0.3547
   12SAPS  H15R 1531   1.327   1.268   7.702 -0.3775 -2.3258 -0.5716
   12SAPS  C216 1532   1.490   1.339   7.845  0.6017 -0.2686 -0.8336
   12SAPS  H16R 1533   1.515   1.446   7.831 -0.4126  0.5396  2.4730
   12SAPS  H16S 1534   1.586   1.293   7.876 -0.1329  0.2446  2.5824
   12SAPS  C217 1535   1.379   1.338   7.953  0.1574 -0.5966 -0.7065
   12SAPS  H17R 1536   1.322   1.242   7.948  0.0926 -0.6254  0.3200
   12SAPS  H17S 1537   1.305   1.416   7.927 -0.3664 -0.3155  1.3906
   12SAPS  C218 1538   1.426   1.344   8.093 -0.3539 -0.3802 -0.1611
   12SAPS  H18R 1539   1.501   1.426   8.098 -1.6209  1.0287 -2.3387
   12SAPS  H18S 1540   1.480   1.247   8.103 -0.6047 -0.5752 -0.6824
   12SAPS  C219 1541   1.314   1.356   8.205 -0.4762  0.5909  0.0037
   12SAPS  H19R 1542   1.218   1.309   8.175  0.0729 -1.4500  1.2428
   12SAPS  H19S 1543   1.293   1.465   8.211  1.0972  1.0817 -1.8958
   12SAPS  C220 1544   1.359   1.312   8.339  0.2646  0.3309  0.1701
   12SAPS  H20R 1545   1.379   1.204   8.353 -3.9976 -0.8233 -0.9909
   12SAPS  H20S 1546   1.272   1.339   8.403  0.0683  1.4540 -0.5429
   12SAPS  H20T 1547   1.447   1.366   8.381 -1.0190  3.3732 -0.7311
   12SAPS   C33 1548   1.967   1.506   6.830 -0.3413 -0.1666 -0.4767
   12SAPS   H3X 1549   2.052   1.444   6.792 -2.4801 -2.2816 -2.1341
   12SAPS   H3Y 1550   1.890   1.435   6.868  1.7075 -2.1125  0.2749
   12SAPS   C34 1551   2.014   1.589   6.954  0.9593  0.3498  0.0809
   12SAPS   H4X 1552   1.930   1.653   6.988  1.5267  2.2749 -1.9141
   12SAPS   H4Y 1553   2.091   1.661   6.919 -0.4072  0.8196 -2.1913
   12SAPS   C35 1554   2.061   1.501   7.068 -0.1249 -0.2984 -0.2025
   12SAPS   H5X 1555   2.144   1.440   7.025 -1.1461 -2.4661  0.7355
   12SAPS   H5Y 1556   1.981   1.426   7.085  0.3220 -0.3074  2.2129
   12SAPS   C36 1557   2.101   1.581   7.196 -0.2386  0.3721  0.0265
   12SAPS   H6X 1558   2.046   1.676   7.208 -4.6119 -1.5823 -2.0410
   12SAPS   H6Y 1559   2.205   1.612   7.172 -1.2434  3.0205 -1.2668
   12SAPS   C37 1560   2.091   1.508   7.326  0.4897  0.3831  0.7576
   12SAPS   H7X 1561   2.168   1.429   7.337 -0.6821 -1.0247 -0.6253
   12SAPS   H7Y 1562   1.996   1.450   7.321 -0.3136  1.7447 -0.7159
   12SAPS   C38 1563   2.077   1.591   7.451  0.0124  0.0367 -0.1420
   12SAPS   H8X 1564   1.990   1.660   7.443  0.8272  1.1313  0.1928
   12SAPS   H8Y 1565   2.168   1.653   7.465  0.5218 -0.8572  0.6363
   12SAPS   C39 1566   2.071   1.493   7.570 -0.5158 -0.2178  0.2586
   12SAPS   H9X 1567   2.166   1.438   7.586  0.8182  1.8380 -0.1004
   12SAPS   H9Y 1568   1.986   1.423   7.557  0.5654 -1.3683 -0.8994
   12SAPS  C310 1569   2.044   1.569   7.696  0.0898 -0.1877 -0.0898
   12SAPS  H10X 1570   1.957   1.633   7.671 -2.2406 -3.4164 -1.0234
   12SAPS  H10Y 1571   2.127   1.642   7.698  1.7013 -1.9154 -0.4794
   12SAPS  C311 1572   2.020   1.486   7.828 -0.1702  0.3039  0.3715
   12SAPS  H11X 1573   2.010   1.546   7.920 -2.8426 -1.5554  1.4251
   12SAPS  H11Y 1574   2.116   1.432   7.841  1.1988  2.2506 -1.0157
   12SAPS  C312 1575   1.909   1.385   7.824  0.3408  0.3536  0.4284
   12SAPS  H12X 1576   1.945   1.304   7.757  0.5954 -1.5122  2.6953
   12SAPS  H12Y 1577   1.821   1.437   7.781 -0.9289 -2.5355 -0.7204
   12SAPS  C313 1578   1.878   1.308   7.957 -0.2711 -0.4670 -0.1680
   12SAPS  H13X 1579   1.969   1.248   7.978  1.2656  1.4224 -1.1346
   12SAPS  H13Y 1580   1.790   1.243   7.937 -2.2723  2.1027 -0.1702
   12SAPS  C314 1581   1.856   1.400   8.082  0.2964  0.3483  0.0420
   12SAPS  H14X 1582   1.783   1.474   8.042 -1.1065 -0.7911  0.4243
   12SAPS  H14Y 1583   1.946   1.462   8.102  1.2837 -1.6540  2.3866
   12SAPS  C315 1584   1.810   1.348   8.215 -0.7017 -0.7065 -0.1944
   12SAPS  H15X 1585   1.898   1.290   8.250  1.8188  1.2828 -2.7110
   12SAPS  H15Y 1586   1.719   1.286   8.198 -0.2536 -1.2545 -0.6394
   12SAPS  C316 1587   1.775   1.457   8.319 -0.3273 -0.7400 -0.2307
   12SAPS  H16X 1588   1.723   1.415   8.408  1.9726 -1.4998  0.8420
   12SAPS  H16Y 1589   1.698   1.527   8.280  0.4924 -0.1508 -0.8166
   12SAPS  C317 1590   1.893   1.534   8.377  0.8820 -1.1325 -0.2172
   12SAPS  H17X 1591   1.963   1.566   8.296 -0.9111  0.1358 -1.3353
   12SAPS  H17Y 1592   1.942   1.465   8.449  0.3658  0.3522  1.6420
   12SAPS  C318 1593   1.860   1.657   8.470  0.4454  0.7503  0.2444
   12SAPS  H18X 1594   1.954   1.708   8.498 -0.2148  1.4767  1.1818
   12SAPS  H18Y 1595   1.808   1.622   8.561  0.8767  0.3262  0.3287
   12SAPS  H18Z 1596   1.803   1.735   8.414  1.6040  0.3029 -1.6658
   13SAPS     N 1597   1.993   4.738   6.148  0.1147 -0.2692  0.4804
   13SAPS   HN1 1598   2.042   4.662   6.096  0.5847 -0.5448  1.3141
   13SAPS   HN2 1599   1.987   4.716   6.249 -0.2478 -1.7339  0.1624
   13SAPS   HN3 1600   1.893   4.755   6.126  0.6849  1.9640 -0.7402
   13SAPS   C12 1601   2.063   4.874   6.127  0.1867  0.8634  0.3803
   13SAPS  H12A 1602   2.089   4.875   6.022 -1.5964  1.1292 -0.0891
   13SAPS   C13 1603   1.979   4.996   6.160  0.2443 -0.1640  0.3111
   13SAPS  O13A 1604   1.873   4.980   6.231 -0.0201  0.0541 -0.6088
   13SAPS  O13B 1605   2.018   5.111   6.124  0.6791 -0.4470 -0.2346
   13SAPS   C11 1606   2.194   4.879   6.221 -0.7358 -0.8775  0.3972
   13SAPS  H11A 1607   2.158   4.908   6.322 -2.8737 -1.9774  0.0104
   13SAPS  H11B 1608   2.252   4.964   6.178 -0.6536 -1.4463 -0.6631
   13SAPS     P 1609   2.428   4.750   6.233 -0.1014 -0.0764  0.2709
   13SAPS   O13 1610   2.471   4.647   6.327 -0.7150  0.3318 -0.1906
   13SAPS   O14 1611   2.482   4.740   6.094 -0.0480  0.3938 -0.1983
   13SAPS   O12 1612   2.268   4.751   6.219 -0.1901  0.3817  0.3907
   13SAPS   O11 1613   2.470   4.896   6.289  0.4613  1.2041  0.4837
   13SAPS    C1 1614   2.428   4.943   6.417  0.8635 -0.1916 -0.5983
   13SAPS    HA 1615   2.348   5.018   6.401  0.2007 -0.7211  0.1477
   13SAPS    HB 1616   2.379   4.866   6.481  0.0008  1.5212  0.8883
   13SAPS    C2 1617   2.550   4.996   6.500  0.2098  0.8000 -0.3221
   13SAPS    HS 1618   2.525   4.977   6.606 -2.7799 -0.3372 -1.1128
   13SAPS   O21 1619   2.588   5.127   6.472 -0.3178  0.1393  0.0262
   13SAPS   C21 1620   2.504   5.216   6.532 -0.3366 -0.6057 -0.4083
   13SAPS   O22 1621   2.414   5.194   6.615 -0.3736  0.0193  0.1248
   13SAPS   C22 1622   2.533   5.353   6.474  0.6608 -0.2146 -0.1110
   13SAPS   H2R 1623   2.637   5.365   6.437  0.6200  0.2824 -0.0722
   13SAPS   H2S 1624   2.467   5.363   6.385 -1.9677 -2.1282  1.4645
   13SAPS    C3 1625   2.665   4.890   6.485  0.1403 -0.2902 -0.5753
   13SAPS    HX 1626   2.697   4.872   6.380 -1.3838  0.1453 -1.1299
   13SAPS    HY 1627   2.622   4.792   6.515 -0.4839  0.0146 -0.4643
   13SAPS   O31 1628   2.768   4.930   6.576  0.5507 -0.2245 -0.0542
   13SAPS   C31 1629   2.871   4.993   6.525 -0.0133  0.3132 -0.1408
   13SAPS   O32 1630   2.899   5.005   6.406  0.0477  0.5328  0.2955
   13SAPS   C32 1631   2.967   5.021   6.636 -0.8881 -0.6490  0.1099
   13SAPS   H2X 1632   3.069   5.020   6.593 -1.5512 -1.8194 -1.5561
   13SAPS   H2Y 1633   2.950   4.941   6.711 -0.2378 -1.1694 -0.2924
   13SAPS   C23 1634   2.494   5.469   6.570  0.2096 -0.2996 -0.9199
   13SAPS   H3R 1635   2.399   5.449   6.624 -1.2054 -2.0745 -3.8385
   13SAPS   H3S 1636   2.470   5.560   6.510 -1.5018  0.6798  1.0965
   13SAPS   C24 1637   2.597   5.483   6.688  0.2037  0.0159 -0.1664
   13SAPS   H4R 1638   2.696   5.481   6.637 -0.1459 -0.1782 -0.8523
   13SAPS   H4S 1639   2.588   5.390   6.747 -1.3585  0.2589  0.0031
   13SAPS   C25 1640   2.590   5.606   6.779  0.3520  0.5043  0.4404
   13SAPS   H5R 1641   2.597   5.705   6.731 -0.1644 -0.6483 -2.1524
   13SAPS   C26 1642   2.579   5.597   6.914  0.3090  0.1967 -0.8009
   13SAPS   H6R 1643   2.570   5.690   6.971 -0.7652 -0.6058  0.3989
   13SAPS   C27 1644   2.583   5.480   7.012  0.3310  0.2547  0.3584
   13SAPS   H7R 1645   2.622   5.500   7.113 -1.8279 -0.9614  1.5156
   13SAPS   H7S 1646   2.659   5.410   6.970  1.6117 -0.0245  2.9358
   13SAPS   C28 1647   2.446   5.409   7.025  0.1578  0.2637  0.7581
   13SAPS   H8R 1648   2.390   5.397   6.932 -2.0478  0.2280  2.0345
   13SAPS   C29 1649   2.399   5.345   7.136 -0.0551  0.3317 -0.1522
   13SAPS   H9R 1650   2.301   5.295   7.130 -0.2149  0.7862 -1.9140
   13SAPS  C210 1651   2.474   5.341   7.277 -0.5181 -0.7945  0.5352
   13SAPS  H10R 1652   2.522   5.442   7.283 -0.3051 -0.9609  1.9992
   13SAPS  H10S 1653   2.559   5.270   7.279  1.4056  1.3836  1.3388
   13SAPS  C211 1654   2.401   5.333   7.406 -0.4756 -0.3396 -0.3016
   13SAPS  H11R 1655   2.298   5.372   7.411 -0.0916  0.8107 -1.0755
   13SAPS  C212 1656   2.443   5.288   7.528 -0.5174  0.5637  0.5120
   13SAPS  H12R 1657   2.367   5.288   7.607  0.8604  1.8785  1.9013
   13SAPS  C213 1658   2.576   5.224   7.569  0.2922 -0.4120  0.4093
   13SAPS  H13R 1659   2.633   5.289   7.639 -1.5010 -1.4570  2.9670
   13SAPS  H13S 1660   2.639   5.207   7.479 -2.1116 -3.7378 -0.8046
   13SAPS  C214 1661   2.575   5.093   7.639 -0.3609 -0.2212  0.3893
   13SAPS  H14R 1662   2.565   5.097   7.749  2.0079 -1.1180  0.7007
   13SAPS  C215 1663   2.579   4.968   7.588 -0.0331  0.0329  0.4856
   13SAPS  H15R 1664   2.565   4.879   7.652 -2.5853 -1.5213 -2.0265
   13SAPS  C216 1665   2.596   4.937   7.442 -0.2024 -0.3020 -0.4351
   13SAPS  H16R 1666   2.649   4.841   7.424  3.4814  1.4616  0.0588
   13SAPS  H16S 1667   2.672   5.010   7.407 -0.9669  1.4679  1.3997
   13SAPS  C217 1668   2.480   4.965   7.350  0.1794 -0.7046 -0.8163
   13SAPS  H17R 1669   2.449   5.071   7.352 -4.7027 -1.8856 -1.4999
   13SAPS  H17S 1670   2.381   4.925   7.382 -0.0414 -1.1336 -2.0036
   13SAPS  C218 1671   2.519   4.929   7.208  0.4625 -0.3937  0.2663
   13SAPS  H18R 1672   2.552   4.824   7.198 -0.8525 -0.7412 -0.7931
   13SAPS  H18S 1673   2.608   4.993   7.189  0.4696 -0.7253 -0.8786
   13SAPS  C219 1674   2.402   4.955   7.108 -0.7481 -0.0590  0.0056
   13SAPS  H19R 1675   2.379   5.063   7.096 -0.1251  0.0773  0.0008
   13SAPS  H19S 1676   2.307   4.910   7.147 -0.9495  0.2688 -0.1085
   13SAPS  C220 1677   2.436   4.908   6.968 -0.1612 -0.8428 -0.7518
   13SAPS  H20R 1678   2.350   4.911   6.899  0.2279 -0.9713 -1.2503
   13SAPS  H20S 1679   2.470   4.802   6.971 -0.4569 -0.9208  0.0036
   13SAPS  H20T 1680   2.520   4.965   6.922 -0.3908  0.6271  0.5426
   13SAPS   C33 1681   2.949   5.166   6.690  0.2569  0.2345 -0.3081
   13SAPS   H3X 1682   2.944   5.231   6.600 -0.5452 -0.3112 -0.6754
   13SAPS   H3Y 1683   3.042   5.188   6.747  1.0805  0.5228 -1.6879
   13SAPS   C34 1684   2.825   5.182   6.783 -0.3465  0.6886  0.6239
   13SAPS   H4X 1685   2.735   5.137   6.736  0.7837  0.6748 -1.6388
   13SAPS   H4Y 1686   2.802   5.288   6.805  1.6047  1.0103  1.3404
   13SAPS   C35 1687   2.833   5.116   6.925  0.9722  0.1309 -0.3050
   13SAPS   H5X 1688   2.789   5.014   6.931  0.6805  0.2286 -0.7270
   13SAPS   H5Y 1689   2.758   5.170   6.986 -0.3583 -1.0346 -0.8517
   13SAPS   C36 1690   2.972   5.124   6.990 -0.2312 -0.5284 -0.6983
   13SAPS   H6X 1691   3.004   5.230   6.995 -0.0282 -0.6111 -0.0197
   13SAPS   H6Y 1692   3.038   5.069   6.920  0.8722  1.2705 -1.1532
   13SAPS   C37 1693   2.977   5.061   7.132 -0.4013 -0.4726 -0.1868
   13SAPS   H7X 1694   3.070   5.001   7.128 -1.0668 -1.6330  0.8811
   13SAPS   H7Y 1695   2.894   4.988   7.144 -2.8765  2.3670  1.0385
   13SAPS   C38 1696   2.970   5.146   7.249  1.1270 -0.1962  0.1686
   13SAPS   H8X 1697   2.874   5.200   7.235 -0.8661 -3.7809 -1.4314
   13SAPS   H8Y 1698   3.053   5.219   7.242  0.9724  0.0885  1.1649
   13SAPS   C39 1699   2.973   5.074   7.381 -0.2755  0.1858 -0.6007
   13SAPS   H9X 1700   3.075   5.030   7.384  0.5406  1.9395 -1.0667
   13SAPS   H9Y 1701   2.899   4.996   7.407  0.6561 -0.1688  1.1681
   13SAPS  C310 1702   2.959   5.177   7.495 -0.4507  0.8625  0.4870
   13SAPS  H10X 1703   2.862   5.229   7.478 -0.8214 -0.2600 -1.0816
   13SAPS  H10Y 1704   3.041   5.251   7.498 -0.4001  0.7972  2.7894
   13SAPS  C311 1705   2.955   5.104   7.631 -0.1925 -0.2346  0.0387
   13SAPS  H11X 1706   3.046   5.041   7.624  1.6226  2.4195 -3.8607
   13SAPS  H11Y 1707   2.870   5.033   7.637  1.4576 -2.2602  0.3927
   13SAPS  C312 1708   2.945   5.209   7.742 -0.3683  0.6844 -0.1847
   13SAPS  H12X 1709   2.855   5.273   7.729 -0.5726  0.0079 -2.5596
   13SAPS  H12Y 1710   3.032   5.276   7.723 -0.9533  0.9914 -1.9939
   13SAPS  C313 1711   2.947   5.157   7.890  0.1948 -0.7759  0.4889
   13SAPS  H13X 1712   3.036   5.091   7.896 -0.5469 -2.0181 -1.1856
   13SAPS  H13Y 1713   2.870   5.078   7.903 -1.5778  0.5409 -1.3727
   13SAPS  C314 1714   2.932   5.262   7.991 -0.1261 -0.1596 -0.5953
   13SAPS  H14X 1715   2.921   5.226   8.096 -0.2659  1.7442  0.0801
   13SAPS  H14Y 1716   2.839   5.318   7.965  0.0941  1.6054  2.0479
   13SAPS  C315 1717   3.042   5.367   7.981  0.0818  0.3948 -0.7944
   13SAPS  H15X 1718   3.049   5.429   7.889  2.0700 -0.3456 -1.1808
   13SAPS  H15Y 1719   3.135   5.306   7.980  0.0222  0.2783  0.1138
   13SAPS  C316 1720   3.039   5.469   8.097 -0.0003  0.1400  0.7523
   13SAPS  H16X 1721   3.057   5.404   8.186  0.8162  1.0981  1.3167
   13SAPS  H16Y 1722   2.942   5.519   8.119  0.5443  0.3367  3.0231
   13SAPS  C317 1723   3.148   5.579   8.080 -0.1089  0.1771  0.6044
   13SAPS  H17X 1724   3.126   5.643   7.992  1.0374 -0.2366 -0.0019
   13SAPS  H17Y 1725   3.247   5.531   8.064 -0.7481 -0.5493 -1.4977
   13SAPS  C318 1726   3.147   5.653   8.211  0.4193 -0.6078 -1.3631
   13SAPS  H18X 1727   3.046   5.695   8.228  0.2657 -1.2501 -0.6378
   13SAPS  H18Y 1728   3.223   5.734   8.211 -1.4388  1.2352 -0.7460
   13SAPS  H18Z 1729   3.175   5.592   8.299 -0.7119  2.2298  1.1368
   14SAPS     N 1730   2.265   1.996   5.718  0.3184 -0.7346  0.0771
   14SAPS   HN1 1731   2.224   1.908   5.755  0.5629 -0.6785  0.4822
   14SAPS   HN2 1732   2.285   2.047   5.806 -3.2001 -2.4663  2.1397
   14SAPS   HN3 1733   2.187   2.051   5.678 -0.7450 -1.6164  0.8693
   14SAPS   C12 1734   2.370   1.983   5.615  0.0438  0.1058 -0.1209
   14SAPS  H12A 1735   2.347   1.906   5.543  3.4783 -1.0139 -0.2022
   14SAPS   C13 1736   2.369   2.101   5.519 -0.6155 -0.1402 -0.2040
   14SAPS  O13A 1737   2.292   2.200   5.534 -0.7571 -0.6094 -0.4063
   14SAPS  O13B 1738   2.444   2.093   5.422 -0.0950  0.4081 -0.2219
   14SAPS   C11 1739   2.513   1.950   5.678 -0.2334 -0.1736  0.7299
   14SAPS  H11A 1740   2.549   2.048   5.716  0.9201 -0.3031  0.0300
   14SAPS  H11B 1741   2.576   1.909   5.596 -1.4874 -1.7107  0.4878
   14SAPS     P 1742   2.619   1.802   5.866 -0.3329  0.0335  0.2887
   14SAPS   O13 1743   2.596   1.664   5.913 -0.6844  0.0806  0.2688
   14SAPS   O14 1744   2.744   1.834   5.780  0.2857 -0.2789  0.0349
   14SAPS   O12 1745   2.490   1.847   5.783 -0.2994 -0.3894 -0.3108
   14SAPS   O11 1746   2.620   1.904   5.986 -0.4008  0.0258  0.1326
   14SAPS    C1 1747   2.496   1.904   6.056  0.0058 -0.4331 -0.1867
   14SAPS    HA 1748   2.418   1.942   5.986  1.9422 -0.3354 -2.4082
   14SAPS    HB 1749   2.472   1.802   6.094  0.1099  0.1813  1.6550
   14SAPS    C2 1750   2.507   1.985   6.187 -0.2605 -0.4788 -0.0796
   14SAPS    HS 1751   2.551   2.082   6.157  0.2154 -1.2039 -1.8534
   14SAPS   O21 1752   2.584   1.911   6.280 -0.5479  0.0017  0.2899
   14SAPS   C21 1753   2.668   1.994   6.360  0.4331 -0.6404  0.1845
   14SAPS   O22 1754   2.676   2.116   6.354 -0.3018  0.2261  0.2743
   14SAPS   C22 1755   2.738   1.913   6.462  0.0354  0.0742 -0.6874
   14SAPS   H2R 1756   2.674   1.827   6.491 -1.1064  0.9957 -0.4162
   14SAPS   H2S 1757   2.835   1.868   6.431  0.9773  0.7624  1.0928
   14SAPS    C3 1758   2.372   2.008   6.249  0.7187 -0.0249  0.2131
   14SAPS    HX 1759   2.312   2.029   6.157 -0.6779  0.0095  1.0910
   14SAPS    HY 1760   2.382   2.094   6.318  0.8959 -0.6592  0.9898
   14SAPS   O31 1761   2.333   1.895   6.325  0.0541 -0.0005 -0.0996
   14SAPS   C31 1762   2.217   1.903   6.389  0.1301  0.4048  0.1783
   14SAPS   O32 1763   2.147   2.001   6.401 -0.0955 -0.8029 -0.0250
   14SAPS   C32 1764   2.174   1.772   6.457 -0.6154  0.2910 -1.1393
   14SAPS   H2X 1765   2.170   1.688   6.384  0.4703 -0.7044 -0.1053
   14SAPS   H2Y 1766   2.069   1.799   6.482  0.8262  5.4267  0.4520
   14SAPS   C23 1767   2.791   1.992   6.589 -0.5953  0.1269  0.2024
   14SAPS   H3R 1768   2.710   2.032   6.653 -1.7765 -1.9804  0.1575
   14SAPS   H3S 1769   2.858   2.072   6.553 -2.5276  1.8525  0.2363
   14SAPS   C24 1770   2.885   1.906   6.673  0.3192  0.2854  0.0367
   14SAPS   H4R 1771   2.923   1.969   6.757 -0.9842  0.3829  0.5838
   14SAPS   H4S 1772   2.967   1.868   6.610  0.0026 -4.8307  2.2141
   14SAPS   C25 1773   2.831   1.777   6.737 -0.5822 -0.2424  0.9221
   14SAPS   H5R 1774   2.778   1.708   6.670  0.9751  0.7083 -1.4317
   14SAPS   C26 1775   2.839   1.736   6.865  0.2311 -0.5231 -0.6214
   14SAPS   H6R 1776   2.791   1.643   6.898 -1.6384  1.0688  1.5519
   14SAPS   C27 1777   2.912   1.810   6.976  0.9619 -0.0859  0.0198
   14SAPS   H7R 1778   2.853   1.899   7.007  1.9326  0.9444 -1.0173
   14SAPS   H7S 1779   3.007   1.855   6.940 -0.5369  0.8739 -3.1337
   14SAPS   C28 1780   2.934   1.732   7.102 -0.2041 -0.3932  0.2283
   14SAPS   H8R 1781   2.901   1.627   7.090 -4.5984  0.8917 -0.6817
   14SAPS   C29 1782   2.962   1.786   7.220  0.1176  0.2569 -0.2408
   14SAPS   H9R 1783   2.952   1.717   7.305 -2.2976  1.1045  0.2339
   14SAPS  C210 1784   2.970   1.932   7.268 -0.5105  0.4943  0.8795
   14SAPS  H10R 1785   2.952   2.002   7.184 -0.3161 -1.2365 -0.6663
   14SAPS  H10S 1786   3.073   1.966   7.290  0.1596  1.1757 -2.7133
   14SAPS  C211 1787   2.868   1.950   7.375 -0.0576 -0.0870  0.2316
   14SAPS  H11R 1788   2.780   2.006   7.340  0.3693  1.5959  1.7174
   14SAPS  C212 1789   2.881   1.921   7.501  0.6087 -0.2015  0.3657
   14SAPS  H12R 1790   2.800   1.935   7.573  0.5204  0.8228  0.0811
   14SAPS  C213 1791   2.990   1.846   7.570 -0.6673  0.0578  0.0133
   14SAPS  H13R 1792   3.028   1.926   7.636  1.1984 -1.2159  0.5652
   14SAPS  H13S 1793   3.072   1.815   7.500 -1.0166  2.1598 -1.4467
   14SAPS  C214 1794   2.946   1.726   7.652  0.6556 -0.4555  0.4368
   14SAPS  H14R 1795   2.927   1.631   7.601 -0.2707 -1.2696  2.2092
   14SAPS  C215 1796   2.932   1.715   7.788 -0.0156  1.0361  0.6636
   14SAPS  H15R 1797   2.900   1.617   7.826 -0.2532  0.6328 -0.5183
   14SAPS  C216 1798   2.943   1.825   7.883 -0.1299  0.6566 -0.5299
   14SAPS  H16R 1799   2.927   1.923   7.833 -2.9772 -0.3562 -1.7473
   14SAPS  H16S 1800   3.035   1.820   7.946 -2.0048 -1.8831  2.2827
   14SAPS  C217 1801   2.842   1.811   8.002  0.2515  0.7504 -0.0054
   14SAPS  H17R 1802   2.858   1.715   8.056  0.2621  0.2716 -0.8423
   14SAPS  H17S 1803   2.738   1.811   7.963  0.3942 -0.2893 -0.4287
   14SAPS  C218 1804   2.855   1.926   8.106 -0.4871 -0.4901 -0.0815
   14SAPS  H18R 1805   2.778   1.915   8.185 -0.9348 -0.1992 -0.4695
   14SAPS  H18S 1806   2.840   2.024   8.055 -1.1330  0.8195  2.4365
   14SAPS  C219 1807   2.995   1.944   8.174 -0.3327 -0.3143  0.0093
   14SAPS  H19R 1808   3.072   1.964   8.097  0.9545 -0.2079  1.2968
   14SAPS  H19S 1809   3.023   1.849   8.225  0.8330 -0.3778 -0.7258
   14SAPS  C220 1810   2.991   2.055   8.287  0.3545 -0.0708 -0.5784
   14SAPS  H20R 1811   3.080   2.059   8.354  0.6451 -0.1494 -0.9603
   14SAPS  H20S 1812   2.908   2.054   8.361  2.1872  3.1173  1.7609
   14SAPS  H20T 1813   2.976   2.155   8.242 -1.5437 -0.2232 -0.3836
   14SAPS   C33 1814   2.243   1.739   6.591 -0.0618 -0.3347  0.0240
   14SAPS   H3X 1815   2.191   1.658   6.646  0.9085  0.4615  2.1955
   14SAPS   H3Y 1816   2.233   1.832   6.650  0.5196 -0.3085  0.0910
   14SAPS   C34 1817   2.386   1.680   6.577  0.5385 -0.7128 -0.3233
   14SAPS   H4X 1818   2.435   1.743   6.499 -1.0384  1.2040  0.1690
   14SAPS   H4Y 1819   2.387   1.573   6.546 -2.0528 -1.0420  0.4841
   14SAPS   C35 1820   2.460   1.703   6.704  0.4292  0.1167  1.1501
   14SAPS   H5X 1821   2.487   1.811   6.707  0.7175  0.1234 -0.6073
   14SAPS   H5Y 1822   2.552   1.640   6.701  0.7570  0.5720  1.4590
   14SAPS   C36 1823   2.377   1.668   6.827 -0.9192  0.6486 -0.2496
   14SAPS   H6X 1824   2.344   1.562   6.815 -3.2670  1.1860  0.8249
   14SAPS   H6Y 1825   2.283   1.722   6.852 -2.5882 -1.9332 -0.5053
   14SAPS   C37 1826   2.460   1.653   6.958  0.0481  0.2993  0.6969
   14SAPS   H7X 1827   2.558   1.604   6.940  1.1521  2.9637 -1.1262
   14SAPS   H7Y 1828   2.399   1.603   7.036 -1.9102 -0.2920 -1.1431
   14SAPS   C38 1829   2.513   1.782   7.005 -0.0051 -0.0481 -0.3335
   14SAPS   H8X 1830   2.428   1.853   7.001 -0.4914 -0.5195  1.0986
   14SAPS   H8Y 1831   2.589   1.815   6.931  0.0579  1.0433  0.2081
   14SAPS   C39 1832   2.571   1.784   7.143  0.0502  0.2357  0.1425
   14SAPS   H9X 1833   2.607   1.885   7.173  1.3701 -0.3316  0.5209
   14SAPS   H9Y 1834   2.658   1.715   7.150 -0.0857 -0.0552 -0.7973
   14SAPS  C310 1835   2.479   1.728   7.244  0.1221  0.3503 -0.3158
   14SAPS  H10X 1836   2.479   1.617   7.234  0.6953  0.4796 -2.0550
   14SAPS  H10Y 1837   2.378   1.775   7.243 -0.7535 -1.3845  0.4519
   14SAPS  C311 1838   2.535   1.764   7.388 -0.5424 -0.0202  0.9667
   14SAPS  H11X 1839   2.534   1.873   7.407  1.4088 -0.1044  1.8224
   14SAPS  H11Y 1840   2.643   1.738   7.377 -0.9770 -0.9546 -1.5960
   14SAPS  C312 1841   2.474   1.674   7.491  0.3341  0.2886  0.2215
   14SAPS  H12X 1842   2.466   1.571   7.451 -0.4062  1.4501 -2.9375
   14SAPS  H12Y 1843   2.373   1.712   7.517  0.3515  0.5047 -0.0208
   14SAPS  C313 1844   2.544   1.675   7.621  0.4500 -0.2391 -0.2390
   14SAPS  H13X 1845   2.557   1.782   7.649  0.2291  0.2268 -1.8588
   14SAPS  H13Y 1846   2.644   1.628   7.617  0.3961 -0.5702  1.5414
   14SAPS  C314 1847   2.458   1.602   7.723  0.3570  0.9065  0.5806
   14SAPS  H14X 1848   2.440   1.497   7.692  0.2747  1.0531  0.1371
   14SAPS  H14Y 1849   2.354   1.641   7.724 -0.5611 -1.2240 -1.7879
   14SAPS  C315 1850   2.521   1.605   7.868  0.3499 -0.1917  0.5311
   14SAPS  H15X 1851   2.514   1.711   7.900  0.3381  0.2284 -0.7821
   14SAPS  H15Y 1852   2.628   1.573   7.863  0.7284  0.8324  1.6481
   14SAPS  C316 1853   2.449   1.512   7.966  0.7126 -0.5433 -0.2158
   14SAPS  H16X 1854   2.494   1.517   8.068 -4.4690 -0.6288  2.3721
   14SAPS  H16Y 1855   2.436   1.404   7.944 -0.9149 -0.1841 -1.1610
   14SAPS  C317 1856   2.306   1.558   8.002 -0.0050 -0.0691 -0.2149
   14SAPS  H17X 1857   2.240   1.578   7.915  0.4646  0.6077 -0.4326
   14SAPS  H17Y 1858   2.322   1.660   8.043 -0.8088 -0.2677  0.6230
   14SAPS  C318 1859   2.236   1.476   8.109 -0.4539 -0.2306  0.5532
   14SAPS  H18X 1860   2.200   1.376   8.077 -1.2669 -0.4250  1.9939
   14SAPS  H18Y 1861   2.152   1.538   8.148 -0.2638 -0.4830  1.3655
   14SAPS  H18Z 1862   2.301   1.453   8.196 -0.3004  0.5638  0.6586
   15SAPS     N 1863   3.700   6.147   5.731 -0.5553  0.0473 -0.2539
   15SAPS   HN1 1864   3.633   6.136   5.652 -3.1289 -0.4271  1.8420
   15SAPS   HN2 1865   3.795   6.115   5.704  0.1626  2.4689 -0.8370
   15SAPS   HN3 1866   3.689   6.105   5.826  0.5675 -0.5680 -0.3821
   15SAPS   C12 1867   3.717   6.289   5.769  0.4171 -0.4261 -0.4584
   15SAPS  H12A 1868   3.809   6.329   5.729  0.0982  0.2480 -0.5201
   15SAPS   C13 1869   3.614   6.385   5.711 -0.2272 -0.2492  0.1176
   15SAPS  O13A 1870   3.519   6.340   5.643  0.1128 -0.3348 -0.8178
   15SAPS  O13B 1871   3.645   6.506   5.710 -0.5622 -1.0146 -0.2206
   15SAPS   C11 1872   3.703   6.296   5.922  0.1173 -0.5671  0.2698
   15SAPS  H11A 1873   3.601   6.262   5.950  0.3847 -0.5069  1.3840
   15SAPS  H11B 1874   3.702   6.397   5.967 -1.6036  0.1301 -1.2058
   15SAPS     P 1875   3.782   6.099   6.066 -0.0801  0.0133 -0.4556
   15SAPS   O13 1876   3.677   6.019   5.990  0.0227 -0.0015  0.0156
   15SAPS   O14 1877   3.909   6.036   6.110 -0.1188  0.1949  0.0430
   15SAPS   O12 1878   3.815   6.221   5.976  0.1287 -0.0730 -0.1500
   15SAPS   O11 1879   3.710   6.160   6.192  0.2956 -0.4995  0.4658
   15SAPS    C1 1880   3.764   6.284   6.243  0.1166  0.4671  0.4684
   15SAPS    HA 1881   3.870   6.272   6.272  0.5935 -1.2142 -1.7336
   15SAPS    HB 1882   3.760   6.370   6.173  1.1382  0.4604  0.3925
   15SAPS    C2 1883   3.694   6.324   6.372 -0.1159 -0.5338  0.7980
   15SAPS    HS 1884   3.595   6.365   6.342  0.3689 -1.0551 -1.6983
   15SAPS   O21 1885   3.778   6.423   6.445 -0.1163 -0.5650  0.1242
   15SAPS   C21 1886   3.734   6.541   6.451 -0.8299  0.6801  0.9546
   15SAPS   O22 1887   3.632   6.586   6.403 -0.4195 -0.1734  0.7696
   15SAPS   C22 1888   3.828   6.622   6.545 -0.3804  0.0976  0.0430
   15SAPS   H2R 1889   3.878   6.558   6.621 -1.6025  0.9810  1.6612
   15SAPS   H2S 1890   3.913   6.666   6.488 -0.0449 -0.0500  0.4263
   15SAPS    C3 1891   3.659   6.207   6.461  0.4657  0.1997  0.2021
   15SAPS    HX 1892   3.750   6.144   6.473  0.3469  0.3741  2.5523
   15SAPS    HY 1893   3.596   6.141   6.398 -1.5008  0.0365  2.2151
   15SAPS   O31 1894   3.607   6.232   6.594 -0.6089 -0.4336 -0.0820
   15SAPS   C31 1895   3.475   6.264   6.600 -0.1467 -0.6231  0.7607
   15SAPS   O32 1896   3.404   6.263   6.501  0.2200 -0.1255 -0.3573
   15SAPS   C32 1897   3.424   6.264   6.746 -0.3973  0.1847 -0.7274
   15SAPS   H2X 1898   3.507   6.244   6.817 -0.1409 -0.1859 -1.1243
   15SAPS   H2Y 1899   3.359   6.177   6.767 -0.7685  1.0041  1.8901
   15SAPS   C23 1900   3.755   6.737   6.624 -0.3348 -0.1288  0.1272
   15SAPS   H3R 1901   3.706   6.802   6.548 -0.7322  0.6272  1.0182
   15SAPS   H3S 1902   3.837   6.788   6.679  0.1955 -1.2197  0.3828
   15SAPS   C24 1903   3.662   6.676   6.727  0.1670  0.0828 -0.4980
   15SAPS   H4R 1904   3.720   6.595   6.776  0.2455  1.1408  1.2291
   15SAPS   H4S 1905   3.581   6.622   6.675 -0.7430  0.5457  0.4083
   15SAPS   C25 1906   3.598   6.787   6.811  0.5950 -0.6718  0.5616
   15SAPS   H5R 1907   3.525   6.852   6.760 -0.3309  0.3876  3.0862
   15SAPS   C26 1908   3.634   6.829   6.935 -0.2699 -0.3657  0.6593
   15SAPS   H6R 1909   3.561   6.897   6.980  0.0909  0.7407 -0.3754
   15SAPS   C27 1910   3.737   6.770   7.025 -0.5942 -0.6743  0.5210
   15SAPS   H7R 1911   3.770   6.853   7.091  0.2796 -0.7496  0.1852
   15SAPS   H7S 1912   3.826   6.736   6.968 -1.1863 -2.0029  0.3648
   15SAPS   C28 1913   3.676   6.669   7.108  0.2456  0.4608 -0.2505
   15SAPS   H8R 1914   3.611   6.593   7.062  0.0052 -0.4999  1.5567
   15SAPS   C29 1915   3.682   6.663   7.243 -0.1070 -0.2533  0.2401
   15SAPS   H9R 1916   3.616   6.588   7.288  1.1820 -1.1602  0.6950
   15SAPS  C210 1917   3.750   6.754   7.335 -0.3003 -0.1336 -0.2262
   15SAPS  H10R 1918   3.688   6.845   7.347  2.0813  1.6216 -0.4518
   15SAPS  H10S 1919   3.845   6.788   7.289 -1.1926  1.3280 -1.0833
   15SAPS  C211 1920   3.780   6.692   7.473  0.1800  0.3661  0.7762
   15SAPS  H11R 1921   3.853   6.611   7.462  0.3209  0.7328 -1.5408
   15SAPS  C212 1922   3.737   6.712   7.592 -0.2172  0.2204  0.1781
   15SAPS  H12R 1923   3.783   6.654   7.673  0.5622 -1.0074 -1.0943
   15SAPS  C213 1924   3.634   6.816   7.621  0.8615 -0.3219  0.0929
   15SAPS  H13R 1925   3.558   6.761   7.681 -0.0617 -0.6133 -1.2841
   15SAPS  H13S 1926   3.581   6.857   7.532  3.0386  2.9626  0.1340
   15SAPS  C214 1927   3.691   6.937   7.688 -0.0172 -0.1598 -0.0355
   15SAPS  H14R 1928   3.662   7.026   7.629 -3.3131  0.0930  1.7157
   15SAPS  C215 1929   3.749   6.953   7.811  0.9032  0.5620  0.3953
   15SAPS  H15R 1930   3.776   7.053   7.850 -0.6225  1.4222 -0.6556
   15SAPS  C216 1931   3.768   6.848   7.914  0.0577 -0.4757  0.1000
   15SAPS  H16R 1932   3.875   6.821   7.920 -0.4446 -3.1013 -1.1682
   15SAPS  H16S 1933   3.717   6.756   7.876 -0.0942 -0.2680 -0.2051
   15SAPS  C217 1934   3.709   6.880   8.051 -0.2497 -0.2020  0.4023
   15SAPS  H17R 1935   3.740   6.982   8.079 -1.3456  0.7226 -1.5261
   15SAPS  H17S 1936   3.755   6.806   8.120  1.1407  0.2292 -0.0270
   15SAPS  C218 1937   3.549   6.886   8.062 -1.1742  0.0233 -0.4937
   15SAPS  H18R 1938   3.496   6.828   7.983 -0.6773 -0.7899 -0.2367
   15SAPS  H18S 1939   3.525   6.993   8.042 -2.2169 -0.0560  0.2512
   15SAPS  C219 1940   3.497   6.850   8.196  0.0194 -0.0112  0.2080
   15SAPS  H19R 1941   3.561   6.897   8.274  3.2557 -0.5817 -1.9290
   15SAPS  H19S 1942   3.502   6.741   8.219 -1.0915  0.5431  3.8351
   15SAPS  C220 1943   3.353   6.906   8.224  0.2029  0.3927  0.4584
   15SAPS  H20R 1944   3.337   6.999   8.164  0.2054 -1.9963 -3.6830
   15SAPS  H20S 1945   3.341   6.926   8.332 -3.4832 -0.5972  0.3531
   15SAPS  H20T 1946   3.272   6.837   8.192 -0.2197  1.6194 -1.3114
   15SAPS   C33 1947   3.357   6.393   6.784  0.7646 -0.2599  0.3748
   15SAPS   H3X 1948   3.255   6.395   6.740  1.7526  2.1766 -2.1298
   15SAPS   H3Y 1949   3.408   6.486   6.750  0.5013 -0.0987  0.4120
   15SAPS   C34 1950   3.343   6.402   6.936  0.2318  0.5729  0.2969
   15SAPS   H4X 1951   3.435   6.375   6.992 -0.7964 -1.4577  1.1174
   15SAPS   H4Y 1952   3.265   6.326   6.960  0.5325 -0.2997 -1.3554
   15SAPS   C35 1953   3.295   6.539   6.993  0.2907 -0.2508  0.5211
   15SAPS   H5X 1954   3.193   6.561   6.955  1.0153  0.2909 -1.2583
   15SAPS   H5Y 1955   3.360   6.624   6.963  0.0309 -0.3840 -0.4553
   15SAPS   C36 1956   3.290   6.538   7.144  0.4014 -0.3610 -0.7537
   15SAPS   H6X 1957   3.391   6.506   7.175  0.8087 -2.1506 -3.5572
   15SAPS   H6Y 1958   3.214   6.463   7.175 -1.0224  0.8727 -1.1102
   15SAPS   C37 1959   3.235   6.668   7.211 -0.3203 -0.3668  0.4087
   15SAPS   H7X 1960   3.124   6.667   7.210 -0.3179 -0.9219  0.2820
   15SAPS   H7Y 1961   3.275   6.758   7.158 -2.7780  0.9195  0.5937
   15SAPS   C38 1962   3.285   6.685   7.351 -0.5014 -0.3359  0.0937
   15SAPS   H8X 1963   3.221   6.763   7.397 -1.6249 -1.7972  1.1123
   15SAPS   H8Y 1964   3.390   6.721   7.343 -0.3844 -0.8754 -0.9769
   15SAPS   C39 1965   3.272   6.565   7.438  0.7742 -0.3873 -0.1780
   15SAPS   H9X 1966   3.344   6.483   7.414  1.0417  0.0835 -1.0209
   15SAPS   H9Y 1967   3.166   6.532   7.435  0.8183 -0.6934  0.9375
   15SAPS  C310 1968   3.302   6.611   7.587  0.1577 -0.1766  0.1685
   15SAPS  H10X 1969   3.229   6.687   7.619  0.1925 -0.3720  0.7131
   15SAPS  H10Y 1970   3.404   6.653   7.598 -0.5464  1.1766  1.8105
   15SAPS  C311 1971   3.279   6.507   7.691 -0.4140  0.8009 -0.3758
   15SAPS  H11X 1972   3.349   6.422   7.679  0.1450  1.1581  0.2515
   15SAPS  H11Y 1973   3.172   6.480   7.687 -0.2493 -0.3729  1.5555
   15SAPS  C312 1974   3.307   6.569   7.833  0.0931  0.1760  0.1626
   15SAPS  H12X 1975   3.279   6.677   7.832 -2.7335 -0.4770  0.9600
   15SAPS  H12Y 1976   3.412   6.550   7.864  0.1803  2.1918  1.2951
   15SAPS  C313 1977   3.218   6.493   7.941  0.2268 -0.1727  0.2855
   15SAPS  H13X 1978   3.255   6.389   7.956  0.0025 -0.6987 -2.3018
   15SAPS  H13Y 1979   3.119   6.484   7.890  0.4238 -0.7122 -0.0157
   15SAPS  C314 1980   3.210   6.566   8.068 -0.6021 -0.6173 -0.2632
   15SAPS  H14X 1981   3.154   6.662   8.064  0.0300 -0.2263  0.1099
   15SAPS  H14Y 1982   3.310   6.587   8.113 -0.4444 -1.1829 -0.3403
   15SAPS  C315 1983   3.134   6.490   8.185  0.4177  0.0007 -0.1645
   15SAPS  H15X 1984   3.150   6.551   8.277  0.9016  0.3514 -0.4743
   15SAPS  H15Y 1985   3.177   6.391   8.211 -1.2032 -0.7853 -0.3829
   15SAPS  C316 1986   2.986   6.459   8.146  0.1671 -0.6573 -0.1568
   15SAPS  H16X 1987   2.945   6.399   8.230 -0.7312  3.7332  2.8620
   15SAPS  H16Y 1988   2.974   6.404   8.050 -1.4127  1.5619 -1.3211
   15SAPS  C317 1989   2.907   6.596   8.151 -0.4636 -0.8613  0.1951
   15SAPS  H17X 1990   2.801   6.563   8.161 -0.5482 -0.8881 -0.7195
   15SAPS  H17Y 1991   2.908   6.644   8.051  0.4872 -0.6695  0.2876
   15SAPS  C318 1992   2.930   6.695   8.260 -0.6000  0.4663  0.4430
   15SAPS  H18X 1993   3.024   6.753   8.248  0.4851 -1.2739  0.1675
   15SAPS  H18Y 1994   2.946   6.642   8.357 -2.0972  0.0483  0.4805
   15SAPS  H18Z 1995   2.857   6.776   8.276 -3.4261 -1.6132 -1.0845
   16SAPS     N 1996   5.843   1.641   6.676  0.1842 -0.4817 -0.0394
   16SAPS   HN1 1997   5.827   1.619   6.777 -0.4948 -0.5538 -0.1608
   16SAPS   HN2 1998   5.835   1.551   6.624 -3.0526 -1.1546  1.3505
   16SAPS   HN3 1999   5.939   1.678   6.663 -0.1975  0.2540 -0.8569
   16SAPS   C12 2000   5.731   1.735   6.620  0.0033  0.1121  0.0514
   16SAPS  H12A 2001   5.756   1.761   6.519 -1.9615  0.2945 -0.4307
   16SAPS   C13 2002   5.596   1.672   6.603  0.0434 -0.8149 -0.1326
   16SAPS  O13A 2003   5.576   1.548   6.609 -0.3710  0.2714 -0.1151
   16SAPS  O13B 2004   5.501   1.748   6.569  0.3011 -0.1142  0.8167
   16SAPS   C11 2005   5.738   1.863   6.703  0.1661 -0.0087  0.0429
   16SAPS  H11A 2006   5.706   1.855   6.809 -1.0149 -3.2319 -0.4380
   16SAPS  H11B 2007   5.658   1.931   6.669  1.0838  1.7022  1.1498
   16SAPS     P 2008   5.883   2.091   6.711 -0.0986  0.5354 -0.2025
   16SAPS   O13 2009   6.003   2.153   6.648 -0.0482  0.4121  0.1018
   16SAPS   O14 2010   5.755   2.151   6.675 -0.5951  0.5855 -0.4540
   16SAPS   O12 2011   5.869   1.935   6.686 -0.2055 -0.4448  0.4773
   16SAPS   O11 2012   5.906   2.108   6.872 -0.5093 -0.2737  0.6337
   16SAPS    C1 2013   5.975   2.005   6.939 -0.1821 -0.0257  0.9276
   16SAPS    HA 2014   5.934   1.907   6.906  0.5007 -0.1708  0.5080
   16SAPS    HB 2015   6.081   2.011   6.908 -0.0311  0.6189  1.5348
   16SAPS    C2 2016   5.975   2.016   7.092  0.0858 -0.9218 -1.2063
   16SAPS    HS 2017   5.987   1.919   7.144  0.0207  0.0825  0.7576
   16SAPS   O21 2018   5.848   2.075   7.138  0.1383  1.1746 -0.6000
   16SAPS   C21 2019   5.741   1.992   7.126 -0.8822 -0.4390  0.4155
   16SAPS   O22 2020   5.746   1.875   7.081 -0.5390 -0.0079 -0.2074
   16SAPS   C22 2021   5.624   2.060   7.198  0.0750  0.0727  0.1191
   16SAPS   H2R 2022   5.647   2.156   7.250 -0.7659 -0.2460  1.0913
   16SAPS   H2S 2023   5.548   2.082   7.121 -0.3419  0.4441  0.6329
   16SAPS    C3 2024   6.082   2.115   7.148  0.1974  0.4261 -0.5017
   16SAPS    HX 2025   6.073   2.205   7.084 -1.1622  0.2590 -0.5615
   16SAPS    HY 2026   6.187   2.084   7.126  0.9998  1.4456  1.6240
   16SAPS   O31 2027   6.069   2.140   7.289  0.2069 -0.2555 -0.1928
   16SAPS   C31 2028   6.137   2.067   7.379  1.1784  0.1251  0.3474
   16SAPS   O32 2029   6.210   1.970   7.347 -0.4084  0.8815 -0.4039
   16SAPS   C32 2030   6.105   2.127   7.516 -0.3047  0.3835 -0.1939
   16SAPS   H2X 2031   5.995   2.128   7.535 -0.1568  0.0618  0.7280
   16SAPS   H2Y 2032   6.133   2.234   7.519 -2.0570  0.8492  0.5938
   16SAPS   C23 2033   5.564   1.966   7.304  0.1728  0.0195 -0.0089
   16SAPS   H3R 2034   5.527   1.875   7.251 -1.6205  0.9636 -0.4568
   16SAPS   H3S 2035   5.473   2.016   7.341 -0.0448 -0.7274  0.4984
   16SAPS   C24 2036   5.658   1.936   7.426  0.1439 -0.5793 -0.2344
   16SAPS   H4R 2037   5.740   1.872   7.386  0.2563  0.0928 -1.1083
   16SAPS   H4S 2038   5.593   1.873   7.491 -1.8129  2.7344  1.2529
   16SAPS   C25 2039   5.708   2.058   7.496  0.1861 -0.2849  0.0951
   16SAPS   H5R 2040   5.781   2.117   7.438  1.2196 -1.1229  0.5014
   16SAPS   C26 2041   5.661   2.093   7.617 -0.2696  0.0177 -0.6328
   16SAPS   H6R 2042   5.696   2.187   7.661 -0.7075  0.1329 -0.5337
   16SAPS   C27 2043   5.560   2.012   7.693  0.1111 -0.1198  0.5183
   16SAPS   H7R 2044   5.484   1.971   7.623  2.1278 -1.8801 -0.7704
   16SAPS   H7S 2045   5.500   2.083   7.754 -0.0534  1.0506 -0.9361
   16SAPS   C28 2046   5.624   1.910   7.783 -0.0078  0.1138 -0.3783
   16SAPS   H8R 2047   5.675   1.827   7.733  1.6771  0.5220  0.5887
   16SAPS   C29 2048   5.628   1.900   7.917 -0.5126 -0.0665 -0.4190
   16SAPS   H9R 2049   5.693   1.824   7.964  0.4524  1.4273  0.7668
   16SAPS  C210 2050   5.555   1.988   8.020 -0.6051  0.4598  0.1630
   16SAPS  H10R 2051   5.512   1.921   8.097  0.9863  0.7608  1.3669
   16SAPS  H10S 2052   5.467   2.041   7.978 -1.1553 -1.8592 -1.8399
   16SAPS  C211 2053   5.646   2.090   8.087  0.1879 -0.1244 -0.1259
   16SAPS  H11R 2054   5.676   2.181   8.031 -0.4578 -0.8511 -1.7091
   16SAPS  C212 2055   5.696   2.080   8.212  0.0361 -0.2589 -0.3213
   16SAPS  H12R 2056   5.763   2.160   8.247  0.5359 -1.4695  1.6490
   16SAPS  C213 2057   5.675   1.953   8.300  0.3827 -0.5718 -0.4896
   16SAPS  H13R 2058   5.733   1.862   8.275  2.2372  0.3160  0.3444
   16SAPS  H13S 2059   5.571   1.914   8.296  0.8638 -1.8715 -0.8205
   16SAPS  C214 2060   5.713   1.968   8.451  0.0332 -0.0027  0.0992
   16SAPS  H14R 2061   5.779   2.054   8.470 -1.3657  1.3597 -0.9336
   16SAPS  C215 2062   5.686   1.879   8.546 -0.2513  0.1307  0.0023
   16SAPS  H15R 2063   5.726   1.896   8.647  0.6706 -0.6507 -0.2169
   16SAPS  C216 2064   5.605   1.752   8.525 -0.6549 -0.3656 -0.1642
   16SAPS  H16R 2065   5.667   1.666   8.558 -0.2194  0.5113  1.4040
   16SAPS  H16S 2066   5.597   1.731   8.416  2.0484 -3.0947  0.0215
   16SAPS  C217 2067   5.469   1.737   8.586  0.8750 -0.1977  0.3285
   16SAPS  H17R 2068   5.405   1.797   8.517  0.2657 -0.6355  0.5076
   16SAPS  H17S 2069   5.465   1.782   8.687  1.1988  0.1070  0.2066
   16SAPS  C218 2070   5.408   1.598   8.588 -0.1863 -0.8179  0.8782
   16SAPS  H18R 2071   5.472   1.528   8.646 -1.4873 -1.4098  1.6407
   16SAPS  H18S 2072   5.413   1.567   8.481 -0.3675  1.2164  0.2454
   16SAPS  C219 2073   5.268   1.593   8.661  0.4970  0.0635 -0.1495
   16SAPS  H19R 2074   5.196   1.662   8.611  1.4421  1.1298 -0.0554
   16SAPS  H19S 2075   5.281   1.616   8.769  1.0746 -1.1584  0.0610
   16SAPS  C220 2076   5.209   1.452   8.663 -0.3858  0.2188 -0.2624
   16SAPS  H20R 2077   5.137   1.450   8.748 -0.8559  1.8796 -0.5745
   16SAPS  H20S 2078   5.289   1.381   8.692  1.5133  2.0034 -0.8612
   16SAPS  H20T 2079   5.174   1.428   8.560 -0.1971 -1.3076  0.0128
   16SAPS   C33 2080   6.168   2.041   7.625  0.0534  0.0231 -0.0796
   16SAPS   H3X 2081   6.169   2.092   7.724 -1.0391  0.2708 -0.1848
   16SAPS   H3Y 2082   6.275   2.030   7.595 -0.0104  0.6457 -0.5571
   16SAPS   C34 2083   6.107   1.902   7.645 -0.9038 -0.1960  0.0166
   16SAPS   H4X 2084   6.130   1.833   7.560  0.3585 -0.7431  0.7672
   16SAPS   H4Y 2085   6.000   1.927   7.656 -0.6920  0.6645  0.2282
   16SAPS   C35 2086   6.167   1.828   7.765 -0.5552  0.3105  0.3633
   16SAPS   H5X 2087   6.265   1.871   7.797  1.2171 -1.8866 -1.6850
   16SAPS   H5Y 2088   6.189   1.725   7.729  2.3480  0.9711 -0.0614
   16SAPS   C36 2089   6.073   1.814   7.886  0.1681 -0.1370 -0.2217
   16SAPS   H6X 2090   5.985   1.756   7.853  1.6491 -2.1258 -0.8346
   16SAPS   H6Y 2091   6.029   1.914   7.908 -2.2001 -0.3800 -3.2941
   16SAPS   C37 2092   6.130   1.747   8.015 -0.2277 -0.4344 -0.4190
   16SAPS   H7X 2093   6.221   1.809   8.033  0.0243 -0.4991 -1.3874
   16SAPS   H7Y 2094   6.162   1.645   7.985 -1.8120 -1.8884  2.3807
   16SAPS   C38 2095   6.025   1.722   8.123 -0.0767 -0.0077  0.2294
   16SAPS   H8X 2096   5.944   1.659   8.080 -1.4958  0.5513  1.9587
   16SAPS   H8Y 2097   5.963   1.812   8.140 -1.2051 -0.7870  0.3593
   16SAPS   C39 2098   6.099   1.671   8.256  0.2143  0.1304 -0.2610
   16SAPS   H9X 2099   6.151   1.759   8.300  0.3308  0.4597 -1.0412
   16SAPS   H9Y 2100   6.165   1.589   8.222 -1.5785 -0.5938 -2.2214
   16SAPS  C310 2101   6.003   1.606   8.355  0.3189  0.0323 -0.3457
   16SAPS  H10X 2102   5.954   1.522   8.301 -0.0322  1.3751 -2.2010
   16SAPS  H10Y 2103   5.922   1.677   8.382  1.1477 -0.4699  4.2615
   16SAPS  C311 2104   6.060   1.575   8.491 -0.1930 -0.0060 -1.1011
   16SAPS  H11X 2105   6.137   1.649   8.520  1.6298 -1.8326 -1.0717
   16SAPS  H11Y 2106   6.117   1.479   8.487  0.6285  0.3646  0.9425
   16SAPS  C312 2107   5.960   1.566   8.605  0.4475 -0.0544 -0.0931
   16SAPS  H12X 2108   5.863   1.520   8.580 -1.1994  1.4518  2.9607
   16SAPS  H12Y 2109   5.942   1.674   8.625  2.9967  0.1626  1.6358
   16SAPS  C313 2110   6.023   1.509   8.732 -0.0046  0.7233 -0.1721
   16SAPS  H13X 2111   6.112   1.574   8.747 -0.9894  1.7559  1.4836
   16SAPS  H13Y 2112   6.072   1.410   8.716  1.4381  1.0484  1.7518
   16SAPS  C314 2113   5.933   1.484   8.855  0.1861 -0.2436  0.0267
   16SAPS  H14X 2114   5.993   1.487   8.948 -0.9399  0.5667  0.7673
   16SAPS  H14Y 2115   5.892   1.382   8.840  0.5429 -0.1768 -1.6024
   16SAPS  C315 2116   5.822   1.594   8.861 -0.2648  0.6395  0.4558
   16SAPS  H15X 2117   5.768   1.609   8.766 -3.4883 -0.9795  1.8690
   16SAPS  H15Y 2118   5.861   1.693   8.893 -0.6621  1.0716 -0.3909
   16SAPS  C316 2119   5.715   1.555   8.958  0.1608  0.0188  0.2282
   16SAPS  H16X 2120   5.772   1.517   9.046  0.5887 -0.8738 -0.4177
   16SAPS  H16Y 2121   5.659   1.468   8.916 -0.9509  0.4735  0.7378
   16SAPS  C317 2122   5.609   1.663   8.978  0.0676 -0.5319  0.3338
   16SAPS  H17X 2123   5.514   1.616   9.011 -0.1626 -0.0711  0.3341
   16SAPS  H17Y 2124   5.583   1.709   8.881  0.8264  1.0324  0.8334
   16SAPS  C318 2125   5.675   1.765   9.068 -0.6580 -0.6623 -0.0350
   16SAPS  H18X 2126   5.709   1.733   9.169 -1.3659  2.5267  1.3460
   16SAPS  H18Y 2127   5.602   1.843   9.100  2.6791  2.4169  0.8191
   16SAPS  H18Z 2128   5.750   1.820   9.008 -0.0094 -1.5081 -0.0191
   17SAPC     N 2129   3.549   5.465  10.821  0.0433 -0.3596 -0.0386
   17SAPC   C12 2130   3.669   5.546  10.791  0.0397  0.1359  0.0734
   17SAPC  H12A 2131   3.758   5.493  10.822 -0.2244 -1.5703 -1.8571
   17SAPC  H12B 2132   3.670   5.628  10.860  1.1552 -0.9941  1.4606
   17SAPC   C13 2133   3.538   5.344  10.730  0.2644  0.5554 -1.1408
   17SAPC  H13A 2134   3.627   5.284  10.727  1.1325  1.8402 -1.6659
   17SAPC  H13B 2135   3.453   5.283  10.758 -0.2210  1.4000 -0.7049
   17SAPC  H13C 2136   3.507   5.377  10.632 -2.3900  1.4658 -0.1101
   17SAPC   C14 2137   3.542   5.417  10.967  0.3802 -0.0572  0.3507
   17SAPC  H14A 2138   3.621   5.343  10.972  0.5261  0.1347  1.0251
   17SAPC  H14B 2139   3.554   5.499  11.036  4.3721  0.3654 -0.5776
   17SAPC  H14C 2140   3.447   5.372  10.991  0.8454 -1.9865 -1.1860
   17SAPC   C15 2141   3.433   5.553  10.805  0.3282  0.1189 -0.6358
   17SAPC  H15A 2142   3.431   5.604  10.709 -2.6658  2.4818  0.4847
   17SAPC  H15B 2143   3.343   5.493  10.814 -1.1194  2.3023  0.4881
   17SAPC  H15C 2144   3.425   5.628  10.882 -0.8711  1.0203 -1.5837
   17SAPC   C11 2145   3.695   5.601  10.646  0.0167  0.6342 -0.0422
   17SAPC  H11A 2146   3.710   5.512  10.581 -0.5756  0.7228 -0.3099
   17SAPC  H11B 2147   3.798   5.642  10.654 -0.0724  1.0535 -0.9032
   17SAPC     P 2148   3.647   5.790  10.474  0.2593 -0.0873 -0.6961
   17SAPC   O13 2149   3.589   5.723  10.357  0.1632 -0.1456  0.1152
   17SAPC   O14 2150   3.612   5.929  10.501  0.1282  0.0679  0.4702
   17SAPC   O12 2151   3.611   5.709  10.604  0.4447 -0.2037  0.6727
   17SAPC   O11 2152   3.801   5.772  10.468  0.0783  0.6381  0.1591
   17SAPC    C1 2153   3.879   5.797  10.344 -0.6838  0.5173  0.1082
   17SAPC    HA 2154   3.966   5.729  10.349 -0.9740  0.1712  0.6294
   17SAPC    HB 2155   3.820   5.769  10.254 -1.1969 -1.3815  0.9833
   17SAPC    C2 2156   3.928   5.946  10.340 -0.6119  0.2513 -0.6223
   17SAPC    HS 2157   3.961   5.976  10.441  3.7204 -2.2306 -1.0177
   17SAPC   O21 2158   3.826   6.015  10.282 -0.2194 -0.2236  0.2962
   17SAPC   C21 2159   3.808   6.139  10.310  0.2341 -0.8511  0.0034
   17SAPC   O22 2160   3.878   6.205  10.387  0.0774 -0.3471 -0.4176
   17SAPC   C22 2161   3.687   6.201  10.253  0.8375 -0.3298  1.7813
   17SAPC   H2R 2162   3.609   6.122  10.261  1.8329 -1.5692  0.0201
   17SAPC   H2S 2163   3.642   6.285  10.310  0.8875  0.2924  0.9255
   17SAPC    C3 2164   4.044   5.954  10.239 -0.2015 -0.6223 -0.9841
   17SAPC    HX 2165   4.130   5.888  10.264  1.2058  0.3412 -3.0000
   17SAPC    HY 2166   4.078   6.058  10.223  0.5823 -0.3298  1.9644
   17SAPC   O31 2167   4.017   5.876  10.120  0.7797 -0.1063  0.6760
   17SAPC   C31 2168   3.987   5.947  10.013  0.1562  0.5973  0.3156
   17SAPC   O32 2169   3.976   6.069  10.012  0.4220  0.2073 -0.1584
   17SAPC   C32 2170   3.969   5.847   9.897  0.7044 -0.3716 -0.1435
   17SAPC   H2X 2171   3.881   5.786   9.927 -0.2407  1.2144  0.5013
   17SAPC   H2Y 2172   4.056   5.778   9.893  1.2760  0.1243  2.2181
   17SAPC   C23 2173   3.696   6.232  10.098 -0.0139  0.0709  0.0932
   17SAPC   H3R 2174   3.682   6.130  10.058  1.3846 -0.7493  1.5646
   17SAPC   H3S 2175   3.791   6.263  10.051 -0.2468 -1.9212 -1.8308
   17SAPC   C24 2176   3.593   6.330  10.038 -0.4916  0.0540 -0.8386
   17SAPC   H4R 2177   3.641   6.416   9.987  0.7031  0.7191  1.2900
   17SAPC   H4S 2178   3.530   6.376  10.117 -1.8150 -0.5078 -1.5465
   17SAPC   C25 2179   3.502   6.264   9.940 -0.4754 -0.9209 -0.9260
   17SAPC   H5R 2180   3.409   6.224   9.984  0.0691  0.9385  2.2653
   17SAPC   C26 2181   3.530   6.243   9.815  0.3742 -0.4732  0.0343
   17SAPC   H6R 2182   3.446   6.201   9.757 -0.1635  0.1530  0.3539
   17SAPC   C27 2183   3.650   6.272   9.733  0.3737  0.1354  0.0241
   17SAPC   H7R 2184   3.721   6.187   9.740  0.7993  0.3907 -0.9273
   17SAPC   H7S 2185   3.706   6.342   9.799  0.2030 -1.0988  1.5079
   17SAPC   C28 2186   3.643   6.334   9.594  0.4506 -0.0462  0.4645
   17SAPC   H8R 2187   3.654   6.443   9.589  1.4506 -0.0025  2.5466
   17SAPC   C29 2188   3.636   6.262   9.478 -0.1502 -0.1468  0.2739
   17SAPC   H9R 2189   3.640   6.315   9.382 -2.5040 -0.0427  0.1649
   17SAPC  C210 2190   3.625   6.113   9.474  0.0065 -0.2580  0.0748
   17SAPC  H10R 2191   3.650   6.069   9.573 -2.8080 -1.1947  0.4885
   17SAPC  H10S 2192   3.698   6.074   9.400  0.9379 -2.9462  2.2338
   17SAPC  C211 2193   3.486   6.077   9.431 -0.6296 -0.2358  0.3227
   17SAPC  H11R 2194   3.403   6.100   9.498 -1.0522 -1.9425  0.4379
   17SAPC  C212 2195   3.449   6.010   9.321 -0.7659 -0.1352  0.4479
   17SAPC  H12R 2196   3.343   5.991   9.300 -0.9858  0.3396  1.1074
   17SAPC  C213 2197   3.540   5.960   9.212  0.1577  0.3394 -0.5294
   17SAPC  H13R 2198   3.644   6.000   9.218  0.5140 -0.6155 -0.0730
   17SAPC  H13S 2199   3.497   5.994   9.115  1.0725  0.8088 -0.7849
   17SAPC  C214 2200   3.547   5.807   9.221  0.2834  0.0421 -0.2391
   17SAPC  H14R 2201   3.620   5.765   9.292 -0.5805  2.3825  2.2258
   17SAPC  C215 2202   3.469   5.717   9.155  0.0371 -0.9871 -0.6075
   17SAPC  H15R 2203   3.482   5.613   9.190 -0.8349 -0.1341  2.5277
   17SAPC  C216 2204   3.364   5.742   9.048 -0.1120  0.7381  0.3218
   17SAPC  H16R 2205   3.333   5.849   9.044 -2.9241  0.1025  2.0925
   17SAPC  H16S 2206   3.270   5.686   9.065  0.3740 -0.1341  0.1614
   17SAPC  C217 2207   3.422   5.708   8.903  0.3100 -0.0527 -0.6943
   17SAPC  H17R 2208   3.474   5.611   8.917  1.1944  0.5441  0.3039
   17SAPC  H17S 2209   3.493   5.789   8.877 -0.6288  1.0219 -0.0352
   17SAPC  C218 2210   3.319   5.693   8.788  0.6826 -0.3870  0.1790
   17SAPC  H18R 2211   3.269   5.792   8.787  1.5257  0.1073 -2.8438
   17SAPC  H18S 2212   3.242   5.618   8.817 -0.9537  0.9379 -0.5615
   17SAPC  C219 2213   3.388   5.651   8.663 -0.0686  0.0901 -0.2180
   17SAPC  H19R 2214   3.450   5.559   8.667  0.1509  0.1893 -1.1394
   17SAPC  H19S 2215   3.460   5.732   8.640 -1.0143  0.9926 -0.0844
   17SAPC  C220 2216   3.290   5.628   8.548  0.4341 -0.3112 -0.4107
   17SAPC  H20R 2217   3.339   5.614   8.449 -1.1905  1.7736 -1.6027
   17SAPC  H20S 2218   3.212   5.706   8.533  0.1613 -0.5834 -0.4211
   17SAPC  H20T 2219   3.228   5.537   8.568  0.5979 -0.3154  0.0820
   17SAPC   C33 2220   3.935   5.916   9.763  0.2867  0.1201 -0.5028
   17SAPC   H3X 2221   3.993   6.010   9.752 -0.2897  0.6098  0.5297
   17SAPC   H3Y 2222   3.827   5.931   9.745  0.0563  0.3584  0.9449
   17SAPC   C34 2223   3.985   5.830   9.652  0.1892  0.5446  0.3658
   17SAPC   H4X 2224   3.931   5.733   9.644  0.8610  0.1720  0.3117
   17SAPC   H4Y 2225   4.092   5.800   9.650  0.1872  0.5736 -0.4810
   17SAPC   C35 2226   3.961   5.889   9.506  0.3876 -0.0161 -0.3244
   17SAPC   H5X 2227   3.993   5.996   9.505 -2.6463  0.9774 -0.0524
   17SAPC   H5Y 2228   3.852   5.894   9.486  0.6698  4.0315 -1.8707
   17SAPC   C36 2229   4.033   5.831   9.380 -0.2279 -0.2901  0.7951
   17SAPC   H6X 2230   4.046   5.722   9.390 -1.4744 -0.7157 -1.4510
   17SAPC   H6Y 2231   4.129   5.888   9.378  0.2122 -0.9807  1.6634
   17SAPC   C37 2232   3.946   5.855   9.260 -0.1043 -0.2811 -0.2787
   17SAPC   H7X 2233   3.932   5.965   9.259 -1.3709 -0.4188  0.1677
   17SAPC   H7Y 2234   3.850   5.800   9.273  0.2255 -0.6281  0.7397
   17SAPC   C38 2235   4.014   5.808   9.129  0.3160 -0.5748 -0.3704
   17SAPC   H8X 2236   4.054   5.708   9.156  3.7508  0.8197  0.2124
   17SAPC   H8Y 2237   4.103   5.873   9.114 -0.9473  1.0311 -1.2718
   17SAPC   C39 2238   3.933   5.815   9.004  0.3860 -0.0889  0.4001
   17SAPC   H9X 2239   3.847   5.745   9.002  0.8316 -0.6494  0.5013
   17SAPC   H9Y 2240   3.996   5.783   8.918  0.0944 -0.5666  0.3597
   17SAPC  C310 2241   3.878   5.956   8.968 -0.3203 -0.0249 -0.5448
   17SAPC  H10X 2242   3.964   6.026   8.957  1.4754 -2.0242 -0.0318
   17SAPC  H10Y 2243   3.816   5.998   9.050  0.8920  0.0540  0.3688
   17SAPC  C311 2244   3.800   5.955   8.836  0.3239  0.3786  0.5697
   17SAPC  H11X 2245   3.708   5.892   8.840 -0.5284  0.7447 -4.9791
   17SAPC  H11Y 2246   3.867   5.900   8.767 -0.4988  1.5636 -1.2549
   17SAPC  C312 2247   3.754   6.094   8.792 -0.2477 -0.1946  0.6168
   17SAPC  H12X 2248   3.844   6.159   8.803 -0.5041 -0.2731  8.1903
   17SAPC  H12Y 2249   3.691   6.142   8.869 -0.8955  0.5068 -0.3203
   17SAPC  C313 2250   3.689   6.092   8.656  0.5932 -0.3671 -0.0949
   17SAPC  H13X 2251   3.592   6.147   8.650  0.5014 -0.4728  0.4156
   17SAPC  H13Y 2252   3.660   5.988   8.633 -0.0147 -0.0359 -0.9001
   17SAPC  C314 2253   3.774   6.154   8.550 -0.5227 -0.1036  0.6821
   17SAPC  H14X 2254   3.747   6.121   8.447 -0.8734 -0.6451  0.9471
   17SAPC  H14Y 2255   3.878   6.120   8.571  0.1282  0.9247 -0.6796
   17SAPC  C315 2256   3.777   6.303   8.531  0.5132  0.2144 -0.3684
   17SAPC  H15X 2257   3.797   6.359   8.625  0.1747  1.6539 -1.1266
   17SAPC  H15Y 2258   3.675   6.336   8.505  0.5623  0.9172  0.2975
   17SAPC  C316 2259   3.873   6.350   8.416  0.3307 -0.0699 -0.0870
   17SAPC  H16X 2260   3.857   6.459   8.407 -1.0461 -0.1991  0.4585
   17SAPC  H16Y 2261   3.850   6.302   8.318 -0.1605 -0.0808  0.0295
   17SAPC  C317 2262   4.025   6.317   8.433  0.0397 -1.2796  0.4152
   17SAPC  H17X 2263   4.036   6.207   8.430  1.1059 -1.2601  2.3866
   17SAPC  H17Y 2264   4.046   6.348   8.538 -2.5433  1.2236  0.3354
   17SAPC  C318 2265   4.121   6.389   8.333  0.0666 -0.8546  0.2446
   17SAPC  H18X 2266   4.098   6.498   8.325  2.1244 -0.3592  0.4939
   17SAPC  H18Y 2267   4.221   6.367   8.376  0.1232 -1.5334 -0.2243
   17SAPC  H18Z 2268   4.094   6.348   8.234 -1.0011  0.8933 -0.2360
   18SAPC     N 2269   2.766   6.756  10.863  0.6812 -0.1994  0.2773
   18SAPC   C12 2270   2.849   6.759  10.735  0.6084 -0.0818 -0.3603
   18SAPC  H12A 2271   2.899   6.664  10.724  4.5068  2.0120 -3.7248
   18SAPC  H12B 2272   2.933   6.827  10.734 -0.5282  1.4360 -3.5716
   18SAPC   C13 2273   2.662   6.648  10.867 -0.7522  0.3701  0.7379
   18SAPC  H13A 2274   2.592   6.659  10.786  0.3261  3.0300  0.0400
   18SAPC  H13B 2275   2.712   6.552  10.863 -2.0110 -0.2987  0.5681
   18SAPC  H13C 2276   2.609   6.641  10.960 -1.6489 -1.4003  0.1405
   18SAPC   C14 2277   2.859   6.723  10.975 -0.7192  1.0114  0.1172
   18SAPC  H14A 2278   2.940   6.794  10.982  0.4667 -0.3651  0.8084
   18SAPC  H14B 2279   2.803   6.718  11.068  0.7614 -0.6628  0.9840
   18SAPC  H14C 2280   2.897   6.622  10.966 -2.1758  0.4611 -0.1417
   18SAPC   C15 2281   2.704   6.888  10.898  0.3323 -0.2606 -0.3821
   18SAPC  H15A 2282   2.675   6.885  11.002 -1.7767 -2.9961 -0.9321
   18SAPC  H15B 2283   2.783   6.961  10.889  0.0455  0.1144  0.1150
   18SAPC  H15C 2284   2.624   6.906  10.829 -0.4790 -1.0553  0.3238
   18SAPC   C11 2285   2.768   6.751  10.602  0.3537  0.5697  0.3186
   18SAPC  H11A 2286   2.832   6.793  10.521 -0.6064 -0.1636 -0.8713
   18SAPC  H11B 2287   2.684   6.823  10.608  0.4812  1.0465 -2.2464
   18SAPC     P 2288   2.800   6.497  10.545 -0.1763  0.1468  0.7801
   18SAPC   O13 2289   2.932   6.516  10.601 -0.1949  0.1714  0.3518
   18SAPC   O14 2290   2.721   6.378  10.589 -0.5354  0.4107 -0.5360
   18SAPC   O12 2291   2.704   6.624  10.571  0.0116 -0.2248 -0.2245
   18SAPC   O11 2292   2.823   6.486  10.391 -0.0190 -0.1890  0.0661
   18SAPC    C1 2293   2.724   6.538  10.298  0.4461 -0.7741 -0.5245
   18SAPC    HA 2294   2.621   6.519  10.335 -0.1564  3.6870  0.6810
   18SAPC    HB 2295   2.718   6.649  10.297 -0.4018 -0.7969  0.5089
   18SAPC    C2 2296   2.754   6.496  10.151  0.0664  0.4593 -0.3706
   18SAPC    HS 2297   2.674   6.539  10.086 -0.9201 -1.1663 -0.2912
   18SAPC   O21 2298   2.743   6.350  10.144 -0.0253 -0.2785  0.2359
   18SAPC   C21 2299   2.627   6.287  10.159 -0.3398 -0.0334  0.1110
   18SAPC   O22 2300   2.525   6.342  10.184  0.4335  0.4716  0.5456
   18SAPC   C22 2301   2.641   6.141  10.114  0.2170 -0.7175  0.2289
   18SAPC   H2R 2302   2.725   6.096  10.171  0.6242 -0.7356 -0.3761
   18SAPC   H2S 2303   2.546   6.090  10.142  0.6766 -0.8086  1.7246
   18SAPC    C3 2304   2.890   6.545  10.099  0.1383  0.7719  0.3055
   18SAPC    HX 2305   2.963   6.499  10.168  0.4628 -2.9803 -2.2287
   18SAPC    HY 2306   2.912   6.653  10.111  1.3020  0.4284  1.3986
   18SAPC   O31 2307   2.926   6.496   9.966  0.1542  0.0180  0.5368
   18SAPC   C31 2308   2.990   6.374   9.965 -0.2158  0.0271 -0.0215
   18SAPC   O32 2309   3.018   6.307  10.063  0.5967  0.4789  0.4223
   18SAPC   C32 2310   3.026   6.339   9.819 -0.2803 -0.2245 -0.3948
   18SAPC   H2X 2311   3.063   6.431   9.770 -0.6934  0.2948  0.2582
   18SAPC   H2Y 2312   2.928   6.311   9.776 -1.7177  0.0438  2.4830
   18SAPC   C23 2313   2.666   6.119   9.960 -0.4044  0.4830  0.0254
   18SAPC   H3R 2314   2.719   6.022   9.950  1.0425  1.3570 -1.3531
   18SAPC   H3S 2315   2.726   6.204   9.920 -0.6295  0.9360  0.6390
   18SAPC   C24 2316   2.536   6.097   9.875 -0.4750 -0.1183 -0.7792
   18SAPC   H4R 2317   2.466   6.024   9.922 -0.3450  1.2397  1.6586
   18SAPC   H4S 2318   2.568   6.048   9.780 -0.5180  0.3426 -1.0311
   18SAPC   C25 2319   2.458   6.228   9.859 -0.8328  0.7327 -0.5526
   18SAPC   H5R 2320   2.413   6.273   9.949  2.9886  1.6094  1.1430
   18SAPC   C26 2321   2.442   6.296   9.748 -0.2570  0.3629  0.2865
   18SAPC   H6R 2322   2.376   6.384   9.754 -1.4167 -0.3382 -1.3637
   18SAPC   C27 2323   2.501   6.254   9.616  0.2220 -0.0489  0.1285
   18SAPC   H7R 2324   2.425   6.215   9.545  1.6874 -0.3387 -1.3649
   18SAPC   H7S 2325   2.573   6.169   9.624  2.3602  1.5001 -1.3339
   18SAPC   C28 2326   2.572   6.375   9.559  0.4084  0.4347 -0.2165
   18SAPC   H8R 2327   2.600   6.448   9.636 -0.2622  2.3796 -1.7464
   18SAPC   C29 2328   2.598   6.393   9.434  0.2176 -0.1375  0.8400
   18SAPC   H9R 2329   2.652   6.486   9.409 -1.0554  1.5327  3.7598
   18SAPC  C210 2330   2.575   6.299   9.321  0.1501 -0.0499  0.4426
   18SAPC  H10R 2331   2.495   6.229   9.352 -0.8082  1.0065  0.4136
   18SAPC  H10S 2332   2.673   6.248   9.310  0.4309  0.6319 -0.3432
   18SAPC  C211 2333   2.541   6.379   9.200  0.4774 -0.7115  0.3969
   18SAPC  H11R 2334   2.434   6.394   9.176  0.6975  0.2082 -0.0692
   18SAPC  C212 2335   2.617   6.424   9.098 -0.6644  0.3270 -0.8940
   18SAPC  H12R 2336   2.574   6.476   9.011 -0.6446 -2.0950 -2.4469
   18SAPC  C213 2337   2.769   6.398   9.097  0.1183 -0.5601  0.1363
   18SAPC  H13R 2338   2.791   6.308   9.036 -0.6007  1.2247 -3.0271
   18SAPC  H13S 2339   2.819   6.381   9.194 -1.4828 -0.4702  1.0128
   18SAPC  C214 2340   2.838   6.519   9.029  0.4541  0.3269 -0.3656
   18SAPC  H14R 2341   2.891   6.586   9.099  1.7425 -0.5849 -0.4154
   18SAPC  C215 2342   2.852   6.532   8.894 -1.3373 -0.1318 -0.2080
   18SAPC  H15R 2343   2.911   6.620   8.863  2.0663 -2.0388  0.3931
   18SAPC  C216 2344   2.815   6.425   8.787 -0.0058 -0.1404  0.6023
   18SAPC  H16R 2345   2.720   6.377   8.821 -1.1305  2.5341  1.5199
   18SAPC  H16S 2346   2.891   6.347   8.763 -1.1898 -0.7313 -1.5517
   18SAPC  C217 2347   2.788   6.492   8.651 -0.6212  0.1479  0.3665
   18SAPC  H17R 2348   2.879   6.552   8.628 -0.4572  0.5301  1.8814
   18SAPC  H17S 2349   2.715   6.574   8.664 -1.0064 -0.2349  0.6413
   18SAPC  C218 2350   2.736   6.400   8.542  0.1610  0.6875 -0.7139
   18SAPC  H18R 2351   2.668   6.331   8.596  0.5111 -1.5614 -2.9693
   18SAPC  H18S 2352   2.814   6.332   8.502  0.2473 -1.3286  2.5144
   18SAPC  C219 2353   2.661   6.485   8.433  0.0564 -0.1118  0.3251
   18SAPC  H19R 2354   2.741   6.556   8.401 -1.4314  2.4340  1.9258
   18SAPC  H19S 2355   2.580   6.545   8.481 -0.0280 -0.8881  1.1649
   18SAPC  C220 2356   2.609   6.404   8.318  0.2598 -0.1188 -0.4894
   18SAPC  H20R 2357   2.543   6.469   8.256 -0.1305 -0.9339 -0.9442
   18SAPC  H20S 2358   2.560   6.317   8.367  2.2493 -1.4694 -0.7897
   18SAPC  H20T 2359   2.682   6.349   8.254  1.5769  0.0946  0.7785
   18SAPC   C33 2360   3.113   6.214   9.811 -0.2535 -0.2829 -0.0504
   18SAPC   H3X 2361   3.203   6.217   9.877  0.5590  0.5135 -1.1550
   18SAPC   H3Y 2362   3.153   6.221   9.707  0.8664  1.5968  0.4710
   18SAPC   C34 2363   3.037   6.078   9.823  0.7228  0.5225  0.7924
   18SAPC   H4X 2364   2.949   6.080   9.755  0.4993 -1.8795  0.9435
   18SAPC   H4Y 2365   3.006   6.060   9.928 -1.5496  1.6181  0.3754
   18SAPC   C35 2366   3.129   5.952   9.791 -0.6213 -0.7252 -0.2661
   18SAPC   H5X 2367   3.069   5.861   9.809  0.2479 -1.4134 -0.8009
   18SAPC   H5Y 2368   3.216   5.938   9.858  0.9922  0.5793 -1.9940
   18SAPC   C36 2369   3.196   5.939   9.648 -0.3065  0.6880  0.3557
   18SAPC   H6X 2370   3.254   5.848   9.623  0.6729  1.0053  1.3553
   18SAPC   H6Y 2371   3.270   6.022   9.653  0.3881  0.1891 -1.1962
   18SAPC   C37 2372   3.091   5.963   9.535 -0.4338 -0.7414 -0.1395
   18SAPC   H7X 2373   2.997   5.979   9.591  0.8587  0.1506  1.9019
   18SAPC   H7Y 2374   3.091   5.879   9.461 -0.5804 -1.6803  0.8920
   18SAPC   C38 2375   3.096   6.097   9.458 -0.0377  0.4819 -0.4125
   18SAPC   H8X 2376   3.185   6.159   9.478  0.7064 -0.0297 -1.9874
   18SAPC   H8Y 2377   3.022   6.165   9.505  2.6915  3.1393  0.3613
   18SAPC   C39 2378   3.080   6.088   9.306 -0.5505  0.0539 -0.0210
   18SAPC   H9X 2379   2.971   6.079   9.288 -0.4542  0.3904 -0.8121
   18SAPC   H9Y 2380   3.141   6.003   9.267 -0.7948  0.7290 -2.0224
   18SAPC  C310 2381   3.102   6.217   9.223 -0.1530 -0.1196  0.2214
   18SAPC  H10X 2382   3.208   6.251   9.233  0.0296  0.0006 -1.7215
   18SAPC  H10Y 2383   3.024   6.283   9.267  0.4426  0.4960  0.3850
   18SAPC  C311 2384   3.072   6.202   9.073 -0.8038 -0.0346 -0.1889
   18SAPC  H11X 2385   3.113   6.297   9.033  1.2423 -1.2918 -1.2430
   18SAPC  H11Y 2386   2.965   6.190   9.045 -0.5038  0.8083 -1.8396
   18SAPC  C312 2387   3.141   6.088   9.002 -0.9597 -0.5235  0.1982
   18SAPC  H12X 2388   3.102   5.993   9.041 -1.5995  0.3676  1.8047
   18SAPC  H12Y 2389   3.249   6.096   9.028 -0.6998 -0.8811 -0.7207
   18SAPC  C313 2390   3.111   6.096   8.849 -0.2055  0.0827  0.3072
   18SAPC  H13X 2391   3.168   6.013   8.802  0.7315  0.5079  0.6679
   18SAPC  H13Y 2392   3.152   6.192   8.809  0.3095 -0.2538  0.0128
   18SAPC  C314 2393   2.964   6.066   8.806 -0.1030 -0.3773 -0.3884
   18SAPC  H14X 2394   2.892   6.132   8.859 -3.9250 -3.5228 -1.1150
   18SAPC  H14Y 2395   2.939   5.960   8.827  0.0962 -0.7752 -2.0308
   18SAPC  C315 2396   2.944   6.088   8.651  0.2071  0.1839 -0.5161
   18SAPC  H15X 2397   3.011   6.172   8.622 -0.4283  0.3822 -1.4468
   18SAPC  H15Y 2398   2.842   6.118   8.619 -0.0095 -1.3326 -1.3197
   18SAPC  C316 2399   2.966   5.957   8.575  0.2915 -0.5352  0.2389
   18SAPC  H16X 2400   2.930   5.866   8.629  0.9151 -1.9789 -1.6352
   18SAPC  H16Y 2401   3.076   5.938   8.567  1.6429  5.4971 -0.1073
   18SAPC  C317 2402   2.902   5.954   8.440  0.0274  0.1510  0.0789
   18SAPC  H17X 2403   2.974   5.998   8.368  1.5890 -1.0984  0.8272
   18SAPC  H17Y 2404   2.802   6.002   8.428 -0.9960 -2.0748 -0.6998
   18SAPC  C318 2405   2.885   5.812   8.385  0.0011  0.4475  0.3198
   18SAPC  H18X 2406   2.784   5.780   8.419 -0.4686 -1.3029 -2.3950
   18SAPC  H18Y 2407   2.965   5.750   8.430 -1.8315 -1.4534  1.1552
   18SAPC  H18Z 2408   2.880   5.795   8.275  1.6785 -1.1012  0.4401
   19SAPC     N 2409   1.475   0.713  10.798  0.4149  0.4758  0.2835
   19SAPC   C12 2410   1.504   0.686  10.654 -0.0681 -0.5702  0.2384
   19SAPC  H12A 2411   1.418   0.725  10.601  0.7409  0.4759 -0.3503
   19SAPC  H12B 2412   1.496   0.579  10.637 -1.1040 -0.4461 -0.1076
   19SAPC   C13 2413   1.581   0.644  10.874 -0.9434  0.0109  0.8645
   19SAPC  H13A 2414   1.598   0.542  10.843  1.5401  0.8544 -0.7527
   19SAPC  H13B 2415   1.670   0.704  10.872 -0.5025 -0.6552  0.2819
   19SAPC  H13C 2416   1.560   0.632  10.980 -0.4112 -1.5193  0.8206
   19SAPC   C14 2417   1.483   0.856  10.840 -0.0117 -0.0417 -0.3311
   19SAPC  H14A 2418   1.407   0.916  10.793 -0.6179 -0.0404  0.6116
   19SAPC  H14B 2419   1.486   0.866  10.948 -1.4005 -0.3540 -0.2440
   19SAPC  H14C 2420   1.577   0.895  10.806 -0.2626  0.5020 -0.4080
   19SAPC   C15 2421   1.343   0.666  10.838  0.2490 -0.2352 -0.3325
   19SAPC  H15A 2422   1.260   0.734  10.825  0.6608  0.3971  0.2526
   19SAPC  H15B 2423   1.323   0.583  10.772  0.5085 -0.1411 -0.5291
   19SAPC  H15C 2424   1.333   0.624  10.937 -2.2240 -0.0007 -0.4288
   19SAPC   C11 2425   1.637   0.729  10.595  0.6592  0.1953  1.1968
   19SAPC  H11A 2426   1.667   0.825  10.642  2.3109  0.7085 -0.7637
   19SAPC  H11B 2427   1.640   0.750  10.486  2.9763 -0.1781  1.1197
   19SAPC     P 2428   1.756   0.508  10.549 -0.0847  0.0236  0.2609
   19SAPC   O13 2429   1.867   0.540  10.454 -0.0413  0.3311  0.2141
   19SAPC   O14 2430   1.759   0.395  10.642  0.7749 -0.2882  0.3771
   19SAPC   O12 2431   1.739   0.638  10.639 -0.5554 -0.1440 -0.3214
   19SAPC   O11 2432   1.620   0.497  10.474  0.8090 -0.2131  0.0163
   19SAPC    C1 2433   1.577   0.384  10.405  0.7115 -0.2819 -0.1508
   19SAPC    HA 2434   1.635   0.291  10.420 -0.2662 -0.9499 -0.4319
   19SAPC    HB 2435   1.485   0.355  10.460  2.2089  1.0630  3.3295
   19SAPC    C2 2436   1.555   0.417  10.255 -0.0344 -0.4436  0.1489
   19SAPC    HS 2437   1.513   0.331  10.200  1.1737 -0.4946 -0.7285
   19SAPC   O21 2438   1.682   0.450  10.194 -0.1860  0.8868  0.5794
   19SAPC   C21 2439   1.770   0.353  10.185 -0.2083 -0.0885 -0.0938
   19SAPC   O22 2440   1.756   0.237  10.221  0.7084 -0.1796 -0.1265
   19SAPC   C22 2441   1.912   0.412  10.160  0.4745 -0.1729  0.0789
   19SAPC   H2R 2442   1.922   0.515  10.120  1.8230  0.4730  1.9029
   19SAPC   H2S 2443   1.960   0.420  10.260  0.1241  3.1334  0.0696
   19SAPC    C3 2444   1.450   0.531  10.230 -0.4777  0.0354 -0.7572
   19SAPC    HX 2445   1.489   0.619  10.284  2.4510 -1.6482  0.0781
   19SAPC    HY 2446   1.356   0.496  10.276 -1.0219 -0.1678 -1.9737
   19SAPC   O31 2447   1.427   0.561  10.094  0.1646 -0.1789  0.1525
   19SAPC   C31 2448   1.500   0.662  10.038 -0.2138 -0.2668 -0.5115
   19SAPC   O32 2449   1.570   0.736  10.105 -0.4554 -0.3634  0.4984
   19SAPC   C32 2450   1.481   0.668   9.878 -1.2496  0.0810 -0.5809
   19SAPC   H2X 2451   1.554   0.594   9.842 -1.0158  0.6993 -1.4090
   19SAPC   H2Y 2452   1.523   0.766   9.847  1.0355 -0.1758  1.4002
   19SAPC   C23 2453   1.994   0.321  10.064 -0.0898  0.5126 -0.2104
   19SAPC   H3R 2454   1.982   0.213  10.087  2.2127 -0.4683 -2.9487
   19SAPC   H3S 2455   2.098   0.316  10.101 -0.1601 -1.5337 -0.1964
   19SAPC   C24 2456   1.974   0.359   9.918 -0.0659 -0.7887 -0.3520
   19SAPC   H4R 2457   2.038   0.292   9.857  0.7337  1.3497 -1.9919
   19SAPC   H4S 2458   2.001   0.467   9.914 -0.2555 -0.7244  0.0117
   19SAPC   C25 2459   1.830   0.331   9.865 -0.0372  0.0736 -0.4794
   19SAPC   H5R 2460   1.764   0.268   9.927  2.8543  0.5441  3.4717
   19SAPC   C26 2461   1.777   0.379   9.749 -0.2256 -0.4092  0.8048
   19SAPC   H6R 2462   1.676   0.354   9.712  0.5820 -3.3569  0.3433
   19SAPC   C27 2463   1.854   0.469   9.659  0.0843  0.4508 -0.5524
   19SAPC   H7R 2464   1.880   0.395   9.581  1.0009 -1.7403  1.6906
   19SAPC   H7S 2465   1.945   0.511   9.706  1.9599 -0.9992 -2.6566
   19SAPC   C28 2466   1.774   0.585   9.600 -0.3428 -0.3753  0.4582
   19SAPC   H8R 2467   1.766   0.666   9.675 -0.3344 -0.3685  0.4520
   19SAPC   C29 2468   1.709   0.587   9.483 -0.2750  0.9963  0.5804
   19SAPC   H9R 2469   1.658   0.679   9.452  0.5478  1.1283 -0.4385
   19SAPC  C210 2470   1.698   0.474   9.386  0.5232 -0.7540  0.1720
   19SAPC  H10R 2471   1.593   0.474   9.350 -0.0578  0.8501  1.6973
   19SAPC  H10S 2472   1.696   0.380   9.445  0.8409 -1.3634 -0.7770
   19SAPC  C211 2473   1.805   0.478   9.280  0.1981  0.0850 -0.8179
   19SAPC  H11R 2474   1.897   0.535   9.297  0.7233 -1.2493  1.2620
   19SAPC  C212 2475   1.802   0.393   9.177  0.2286 -0.1549 -0.2861
   19SAPC  H12R 2476   1.901   0.382   9.130  0.8619  1.3760  0.6034
   19SAPC  C213 2477   1.690   0.297   9.129 -0.2671 -0.1888 -0.3445
   19SAPC  H13R 2478   1.607   0.306   9.203 -2.2279  1.6041 -2.5925
   19SAPC  H13S 2479   1.732   0.194   9.128  1.3123  0.4264 -1.0742
   19SAPC  C214 2480   1.656   0.338   8.989 -0.0436  0.3368 -0.6425
   19SAPC  H14R 2481   1.725   0.298   8.913  1.2392  1.1698  0.0605
   19SAPC  C215 2482   1.567   0.430   8.958  0.3674 -0.8211  0.2455
   19SAPC  H15R 2483   1.545   0.453   8.853 -0.5062  2.2208  0.9738
   19SAPC  C216 2484   1.490   0.505   9.066 -0.0277  0.3631  0.3921
   19SAPC  H16R 2485   1.506   0.467   9.169  3.5824  2.0961  0.6229
   19SAPC  H16S 2486   1.382   0.498   9.038 -0.1726 -0.2105  1.0509
   19SAPC  C217 2487   1.533   0.647   9.068  0.0619 -0.8066 -0.5660
   19SAPC  H17R 2488   1.489   0.704   8.983  1.5958 -0.4251 -1.1405
   19SAPC  H17S 2489   1.644   0.650   9.079  0.1113 -3.3621  0.1497
   19SAPC  C218 2490   1.482   0.731   9.184 -0.0839  0.7377 -0.1046
   19SAPC  H18R 2491   1.513   0.688   9.282 -1.6511  2.6586  1.3165
   19SAPC  H18S 2492   1.373   0.747   9.190 -0.4265 -1.8585  2.8154
   19SAPC  C219 2493   1.557   0.870   9.198 -0.1619 -0.2651 -0.3224
   19SAPC  H19R 2494   1.668   0.861   9.188  0.3076  3.1531  0.6705
   19SAPC  H19S 2495   1.522   0.900   9.298 -4.6077 -2.0064 -1.1354
   19SAPC  C220 2496   1.507   0.977   9.107 -0.3422  0.3131  0.6454
   19SAPC  H20R 2497   1.514   0.952   8.999 -0.5947 -0.6290  0.8396
   19SAPC  H20S 2498   1.559   1.075   9.111 -0.7471  0.4960  1.7094
   19SAPC  H20T 2499   1.402   1.002   9.134 -0.7695 -1.5028  0.8160
   19SAPC   C33 2500   1.344   0.643   9.822  0.4839  0.1626  0.4689
   19SAPC   H3X 2501   1.279   0.718   9.871 -1.5300 -0.0423 -1.7485
   19SAPC   H3Y 2502   1.311   0.538   9.840 -0.1679  0.5207  1.4358
   19SAPC   C34 2503   1.318   0.665   9.672  0.3163 -0.4612  0.3856
   19SAPC   H4X 2504   1.352   0.762   9.630  0.0214 -1.0712 -1.3447
   19SAPC   H4Y 2505   1.209   0.681   9.657  0.4725  2.6475  1.8383
   19SAPC   C35 2506   1.361   0.541   9.587  0.5174 -0.0730  0.5891
   19SAPC   H5X 2507   1.344   0.454   9.654  0.8622  0.4057  1.3117
   19SAPC   H5Y 2508   1.469   0.538   9.559  0.9010 -1.6099  2.0704
   19SAPC   C36 2509   1.273   0.535   9.463 -0.8849 -0.5458 -0.3410
   19SAPC   H6X 2510   1.316   0.613   9.396 -2.2660  0.3625 -0.2115
   19SAPC   H6Y 2511   1.165   0.553   9.487 -1.3240 -2.9099 -0.3228
   19SAPC   C37 2512   1.275   0.395   9.395 -0.3792 -0.2863  0.6488
   19SAPC   H7X 2513   1.294   0.314   9.469 -1.8841 -1.5792 -0.3063
   19SAPC   H7Y 2514   1.355   0.390   9.319 -1.2466 -3.1676 -0.2178
   19SAPC   C38 2515   1.155   0.358   9.311 -0.4825 -0.1367  0.2045
   19SAPC   H8X 2516   1.149   0.429   9.226  0.1806  1.1804  1.2186
   19SAPC   H8Y 2517   1.068   0.377   9.377  0.1781  2.1140  0.5173
   19SAPC   C39 2518   1.148   0.212   9.257  0.0578 -0.8726 -0.3402
   19SAPC   H9X 2519   1.142   0.137   9.338  0.4301  0.5228  1.0285
   19SAPC   H9Y 2520   1.247   0.189   9.211 -0.3732 -0.9679 -1.2555
   19SAPC  C310 2521   1.049   0.198   9.146 -0.1812  0.2390 -0.3882
   19SAPC  H10X 2522   0.953   0.247   9.174 -1.5329 -1.6359 -1.4967
   19SAPC  H10Y 2523   1.032   0.091   9.123 -1.3224 -0.1236  1.9107
   19SAPC  C311 2524   1.099   0.262   9.014  0.3161  0.1109  0.0029
   19SAPC  H11X 2525   1.207   0.243   8.997  0.5574  0.9510  0.5656
   19SAPC  H11Y 2526   1.087   0.372   9.010  2.8052  0.6141  2.8729
   19SAPC  C312 2527   1.016   0.189   8.904 -0.2930  0.0882 -0.9533
   19SAPC  H12X 2528   0.906   0.195   8.924 -0.1717  2.3855 -0.7767
   19SAPC  H12Y 2529   1.043   0.081   8.912 -0.7375  0.0222 -0.1588
   19SAPC  C313 2530   1.069   0.229   8.765  0.2836 -0.1353 -0.3516
   19SAPC  H13X 2531   1.046   0.137   8.706  0.2374 -0.1947 -0.2405
   19SAPC  H13Y 2532   1.178   0.235   8.780  0.1789 -0.0860  0.4094
   19SAPC  C314 2533   1.002   0.359   8.705 -0.1120 -0.2256 -0.5433
   19SAPC  H14X 2534   1.090   0.419   8.673  0.3152  0.1994  1.3372
   19SAPC  H14Y 2535   0.937   0.410   8.780 -1.5773 -2.0011 -0.5266
   19SAPC  C315 2536   0.918   0.332   8.581  0.2933  0.0122 -0.8470
   19SAPC  H15X 2537   0.834   0.265   8.610 -0.3423  0.2827 -2.0383
   19SAPC  H15Y 2538   0.980   0.271   8.512  0.2671 -0.7007 -0.2578
   19SAPC  C316 2539   0.866   0.457   8.503 -0.5146  0.1330 -0.8422
   19SAPC  H16X 2540   0.868   0.427   8.396 -0.6157 -3.9805  0.1238
   19SAPC  H16Y 2541   0.939   0.540   8.510  0.5417 -0.4664 -3.7261
   19SAPC  C317 2542   0.730   0.494   8.556 -0.3916  0.2196  0.2630
   19SAPC  H17X 2543   0.740   0.516   8.665 -2.0960  1.0747  0.2783
   19SAPC  H17Y 2544   0.664   0.408   8.532  2.3324 -1.5835 -1.2951
   19SAPC  C318 2545   0.682   0.621   8.484  0.3171 -0.0795  0.1941
   19SAPC  H18X 2546   0.766   0.692   8.467  0.8527 -0.7588 -0.0739
   19SAPC  H18Y 2547   0.614   0.670   8.557  1.3183  0.6619  0.6503
   19SAPC  H18Z 2548   0.636   0.593   8.387  0.0244  0.2818  0.2271
   20SAPC     N 2549   2.946   3.315  11.280 -0.0540  1.2319  0.2259
   20SAPC   C12 2550   2.822   3.363  11.221  0.6015  0.4902 -0.3211
   20SAPC  H12A 2551   2.733   3.321  11.264  0.2163 -0.1438 -1.6742
   20SAPC  H12B 2552   2.825   3.326  11.119  1.0338  2.0414 -0.9071
   20SAPC   C13 2553   3.060   3.340  11.186  0.6305 -0.6016 -0.8586
   20SAPC  H13A 2554   3.049   3.293  11.089 -0.4602  0.0909 -1.0892
   20SAPC  H13B 2555   3.079   3.445  11.168 -0.1260  0.0668  1.8141
   20SAPC  H13C 2556   3.147   3.299  11.234 -0.0870  0.3289  1.3556
   20SAPC   C14 2557   2.979   3.377  11.414  0.7252 -0.0090  0.0131
   20SAPC  H14A 2558   3.084   3.385  11.440  0.9771 -2.5745  0.0775
   20SAPC  H14B 2559   2.956   3.482  11.409  0.0411 -0.1512  0.0476
   20SAPC  H14C 2560   2.935   3.324  11.498 -0.3437 -0.6459 -0.9255
   20SAPC   C15 2561   2.946   3.167  11.302 -0.5186  0.4763  0.2685
   20SAPC  H15A 2562   2.919   3.112  11.213  0.2996  1.2586 -0.4952
   20SAPC  H15B 2563   3.044   3.129  11.325 -1.1202  0.3683  2.9331
   20SAPC  H15C 2564   2.877   3.135  11.378 -1.3242  1.3701 -0.0626
   20SAPC   C11 2565   2.800   3.521  11.213  0.2520  0.6001  0.3242
   20SAPC  H11A 2566   2.795   3.580  11.307  1.4911  0.4459  0.5062
   20SAPC  H11B 2567   2.694   3.526  11.180  0.4536 -1.1331 -0.7525
   20SAPC     P 2568   2.887   3.613  10.987  0.1369  0.0759  0.2364
   20SAPC   O13 2569   2.775   3.710  10.966 -0.1695  0.1738 -0.1683
   20SAPC   O14 2570   3.019   3.648  10.921  0.1037 -0.0181  0.3425
   20SAPC   O12 2571   2.904   3.589  11.136 -0.2906 -0.0825 -0.3006
   20SAPC   O11 2572   2.833   3.480  10.926 -0.2652 -0.0228  0.3190
   20SAPC    C1 2573   2.912   3.407  10.829 -0.3481  0.5548 -0.9187
   20SAPC    HA 2574   3.019   3.399  10.857 -0.3765  0.8056 -0.7361
   20SAPC    HB 2575   2.882   3.301  10.822 -1.4907  0.9070 -1.6361
   20SAPC    C2 2576   2.883   3.465  10.689  0.2225 -0.1730  0.4801
   20SAPC    HS 2577   2.907   3.574  10.688  0.4790 -0.2244 -0.6530
   20SAPC   O21 2578   2.745   3.440  10.650 -0.5723 -0.1771 -0.4357
   20SAPC   C21 2579   2.690   3.532  10.578 -0.5120  0.1547 -0.4419
   20SAPC   O22 2580   2.727   3.647  10.569  0.0983  0.0408  0.2165
   20SAPC   C22 2581   2.564   3.472  10.521  0.3727  1.0292 -0.2242
   20SAPC   H2R 2582   2.592   3.370  10.486 -1.0255  0.0800  1.3122
   20SAPC   H2S 2583   2.497   3.452  10.607  1.5857  0.7209  0.6773
   20SAPC    C3 2584   2.977   3.398  10.581 -0.4691 -0.4927 -0.2860
   20SAPC    HX 2585   2.964   3.289  10.569 -1.1020 -0.1963 -2.8629
   20SAPC    HY 2586   3.083   3.401  10.612  0.1528 -0.7580 -2.2373
   20SAPC   O31 2587   2.961   3.449  10.446 -0.2706  0.5276 -0.2542
   20SAPC   C31 2588   3.020   3.572  10.427  0.3573  0.4658  0.3541
   20SAPC   O32 2589   3.090   3.631  10.511  0.6973 -0.3864  0.3602
   20SAPC   C32 2590   2.967   3.630  10.290  0.4506  0.2578 -0.4177
   20SAPC   H2X 2591   2.860   3.658  10.303  0.3037 -0.4839  0.0185
   20SAPC   H2Y 2592   2.975   3.546  10.218 -1.8052 -2.2524  2.0132
   20SAPC   C23 2593   2.483   3.551  10.421  0.1484 -0.2148 -0.1081
   20SAPC   H3R 2594   2.486   3.653  10.465 -2.6593  0.2738 -0.8685
   20SAPC   H3S 2595   2.377   3.522  10.437  0.7647 -0.9218  3.4324
   20SAPC   C24 2596   2.541   3.542  10.272  0.0262 -0.1764  0.0594
   20SAPC   H4R 2597   2.638   3.596  10.268 -0.9749  1.7159  0.2151
   20SAPC   H4S 2598   2.474   3.602  10.208 -1.1765 -0.0856  1.3576
   20SAPC   C25 2599   2.556   3.406  10.207 -0.0627  0.6996  0.3209
   20SAPC   H5R 2600   2.561   3.318  10.273 -1.6780 -0.9100 -1.5418
   20SAPC   C26 2601   2.578   3.391  10.078  0.4760 -0.6181  0.0159
   20SAPC   H6R 2602   2.582   3.290  10.035  1.1366  0.0463 -1.5594
   20SAPC   C27 2603   2.589   3.510   9.984 -0.3060 -0.1526 -0.3050
   20SAPC   H7R 2604   2.533   3.598  10.024 -0.0982  0.7695 -1.9422
   20SAPC   H7S 2605   2.534   3.481   9.892  0.4691 -0.8721 -0.5471
   20SAPC   C28 2606   2.735   3.532   9.946 -0.1093  0.0986 -0.3539
   20SAPC   H8R 2607   2.797   3.561  10.032 -1.0183  1.4373 -0.1197
   20SAPC   C29 2608   2.787   3.544   9.823 -0.3643 -0.5012 -0.0381
   20SAPC   H9R 2609   2.895   3.562   9.817  0.0204  0.6233  5.4156
   20SAPC  C210 2610   2.727   3.544   9.684 -0.2336 -0.3750 -0.2135
   20SAPC  H10R 2611   2.717   3.649   9.648 -1.8017  0.1773  1.6655
   20SAPC  H10S 2612   2.620   3.514   9.695 -0.7122  1.8269  1.7563
   20SAPC  C211 2613   2.810   3.463   9.589 -0.6983  0.2690  0.0838
   20SAPC  H11R 2614   2.900   3.417   9.633 -0.3380  0.0929 -0.8227
   20SAPC  C212 2615   2.780   3.450   9.459  0.6404  0.5671  0.0213
   20SAPC  H12R 2616   2.849   3.388   9.400  1.5705  0.1035  1.5628
   20SAPC  C213 2617   2.661   3.515   9.380 -0.4650  0.2691 -0.1940
   20SAPC  H13R 2618   2.703   3.546   9.282 -1.6002 -1.5004 -1.3144
   20SAPC  H13S 2619   2.618   3.605   9.429  0.3248  0.4074  0.2576
   20SAPC  C214 2620   2.537   3.433   9.355  0.2175 -0.3850  0.3388
   20SAPC  H14R 2621   2.493   3.381   9.442 -0.4238  1.7222  1.3220
   20SAPC  C215 2622   2.463   3.438   9.243  0.1683  0.3904  0.8406
   20SAPC  H15R 2623   2.365   3.389   9.240 -0.0224  0.4555  3.3788
   20SAPC  C216 2624   2.482   3.519   9.110  0.3186  0.0489 -0.1272
   20SAPC  H16R 2625   2.568   3.590   9.113  1.7981 -1.6192 -1.0947
   20SAPC  H16S 2626   2.395   3.574   9.071  1.8584  1.8679 -1.1541
   20SAPC  C217 2627   2.523   3.432   8.989  0.3284  0.3907  0.7944
   20SAPC  H17R 2628   2.447   3.351   8.985  1.0042 -0.3031  1.4619
   20SAPC  H17S 2629   2.623   3.382   8.988 -1.1307 -2.8104  0.9165
   20SAPC  C218 2630   2.522   3.520   8.858 -0.5328  0.1891  0.4736
   20SAPC  H18R 2631   2.609   3.589   8.854 -1.4583  1.4131  0.9084
   20SAPC  H18S 2632   2.424   3.571   8.848 -1.1600 -0.9204  0.6793
   20SAPC  C219 2633   2.527   3.438   8.731 -0.6983  0.2264  0.7572
   20SAPC  H19R 2634   2.611   3.365   8.734  0.1803  1.0644 -1.3416
   20SAPC  H19S 2635   2.549   3.491   8.635 -1.3271 -1.8512 -0.5888
   20SAPC  C220 2636   2.400   3.361   8.711  0.1000 -0.5114 -0.5178
   20SAPC  H20R 2637   2.377   3.354   8.603  1.5017 -1.4595 -0.7726
   20SAPC  H20S 2638   2.313   3.408   8.763 -0.4808 -3.5408  1.5125
   20SAPC  H20T 2639   2.411   3.259   8.754  1.4187 -0.3872 -0.5131
   20SAPC   C33 2640   3.056   3.740  10.249 -0.1734 -0.0398  0.7210
   20SAPC   H3X 2641   3.163   3.711  10.253  0.1191 -0.1503 -3.2529
   20SAPC   H3Y 2642   3.063   3.838  10.300  2.9463  1.0178 -1.4313
   20SAPC   C34 2643   3.027   3.768  10.101  0.8454 -0.1195  0.5073
   20SAPC   H4X 2644   2.922   3.799  10.084  1.1151  0.1627 -0.7415
   20SAPC   H4Y 2645   3.035   3.676  10.040 -1.2961  0.0551 -0.1053
   20SAPC   C35 2646   3.102   3.890  10.045 -1.0127  0.9068  0.6558
   20SAPC   H5X 2647   3.208   3.873  10.073 -1.1803 -1.1278  0.2415
   20SAPC   H5Y 2648   3.073   3.993  10.076  2.6742  3.3617 -2.9596
   20SAPC   C36 2649   3.092   3.897   9.891 -0.1186  0.2708  0.0872
   20SAPC   H6X 2650   3.104   4.002   9.856 -2.1001  0.0145 -1.5300
   20SAPC   H6Y 2651   2.999   3.856   9.848  0.3598 -1.4723  0.6414
   20SAPC   C37 2652   3.197   3.802   9.822  0.2576 -0.5883  0.7403
   20SAPC   H7X 2653   3.171   3.696   9.843 -1.4267 -0.3377  0.0464
   20SAPC   H7Y 2654   3.299   3.825   9.861 -0.4260  2.2668  1.0701
   20SAPC   C38 2655   3.203   3.808   9.669 -0.2619 -0.5874 -0.3494
   20SAPC   H8X 2656   3.276   3.730   9.638  1.9300  1.1142  0.3144
   20SAPC   H8Y 2657   3.249   3.905   9.641  0.1413 -1.0619 -1.3490
   20SAPC   C39 2658   3.072   3.785   9.599  0.7090  0.3504 -0.0539
   20SAPC   H9X 2659   3.003   3.865   9.634 -0.7795 -0.6062 -0.7070
   20SAPC   H9Y 2660   3.036   3.683   9.626 -0.9986  0.7660 -0.6425
   20SAPC  C310 2661   3.062   3.804   9.446 -0.8699  0.4162 -0.5562
   20SAPC  H10X 2662   3.113   3.717   9.400 -1.9648 -1.0066  0.7690
   20SAPC  H10Y 2663   3.119   3.895   9.422 -1.4180  0.5659 -1.3139
   20SAPC  C311 2664   2.923   3.805   9.391  1.0043  0.4853  0.4692
   20SAPC  H11X 2665   2.870   3.893   9.432  1.7634  1.3909 -0.4226
   20SAPC  H11Y 2666   2.870   3.717   9.434 -0.6979  0.5246 -1.4091
   20SAPC  C312 2667   2.909   3.794   9.240 -0.1649  0.0716  0.5415
   20SAPC  H12X 2668   2.802   3.776   9.220  0.2544 -1.5858 -0.4321
   20SAPC  H12Y 2669   2.970   3.706   9.210 -2.4171 -1.7860  1.1703
   20SAPC  C313 2670   2.953   3.929   9.166 -0.4473 -0.1826 -0.2196
   20SAPC  H13X 2671   3.056   3.938   9.205 -0.8510  0.7402  0.6727
   20SAPC  H13Y 2672   2.886   4.011   9.202  0.1231  0.1473  0.0970
   20SAPC  C314 2673   2.931   3.906   9.017 -0.5468  0.1103  0.4186
   20SAPC  H14X 2674   2.821   3.890   9.008 -0.4457  0.3220 -1.9098
   20SAPC  H14Y 2675   2.977   3.818   8.968 -0.4863 -0.7605  1.9957
   20SAPC  C315 2676   2.953   4.038   8.933 -0.1296 -0.2059 -0.2811
   20SAPC  H15X 2677   3.055   4.083   8.939 -0.0592 -0.5514  1.6098
   20SAPC  H15Y 2678   2.889   4.119   8.973 -2.3991 -1.4581 -1.2318
   20SAPC  C316 2679   2.928   4.015   8.781 -0.3516  0.7665  0.3382
   20SAPC  H16X 2680   2.824   3.978   8.771  0.4257 -2.2985  2.1213
   20SAPC  H16Y 2681   2.987   3.928   8.747 -2.9650 -1.0371  0.1197
   20SAPC  C317 2682   2.945   4.141   8.692  0.8838 -0.2868  0.3733
   20SAPC  H17X 2683   2.895   4.223   8.747  1.2043 -0.2521  0.6153
   20SAPC  H17Y 2684   2.881   4.120   8.604  3.0025  1.0168 -1.5987
   20SAPC  C318 2685   3.092   4.177   8.669  1.0985  1.1297 -0.5535
   20SAPC  H18X 2686   3.136   4.090   8.616 -0.6484 -0.5648  0.6214
   20SAPC  H18Y 2687   3.137   4.190   8.770 -0.1918  1.3403  0.0133
   20SAPC  H18Z 2688   3.111   4.267   8.608 -0.5167  1.3606 -0.7483
   21SAPC     N 2689   2.325   2.977  11.128 -0.7377  0.1903  0.5046
   21SAPC   C12 2690   2.230   2.868  11.071 -0.5302  0.2907 -0.2407
   21SAPC  H12A 2691   2.201   2.920  10.981  0.7723  4.3089  1.4435
   21SAPC  H12B 2692   2.149   2.851  11.140 -1.5044  0.6910 -1.2559
   21SAPC   C13 2693   2.385   2.930  11.254 -0.1685  0.6080 -0.5608
   21SAPC  H13A 2694   2.303   2.900  11.317 -0.5211 -0.3600 -1.4394
   21SAPC  H13B 2695   2.435   2.835  11.245  1.3884  1.4451 -1.0921
   21SAPC  H13C 2696   2.432   3.009  11.311 -0.7573  0.9459 -0.5394
   21SAPC   C14 2697   2.441   3.001  11.031  0.2609 -0.1708  0.2330
   21SAPC  H14A 2698   2.489   2.908  11.003 -1.3932 -1.5553  1.6851
   21SAPC  H14B 2699   2.412   3.061  10.947 -1.1135  0.1057  0.8721
   21SAPC  H14C 2700   2.518   3.046  11.092  2.2944 -4.3500  1.1407
   21SAPC   C15 2701   2.261   3.103  11.158  0.4395  0.0439 -0.2482
   21SAPC  H15A 2702   2.184   3.099  11.234  0.0708  1.2722 -0.5212
   21SAPC  H15B 2703   2.335   3.176  11.187  1.1077 -0.3315 -0.9639
   21SAPC  H15C 2704   2.211   3.150  11.074 -0.4237 -0.1466  0.1491
   21SAPC   C11 2705   2.292   2.727  11.048 -0.3059 -0.2661 -0.1414
   21SAPC  H11A 2706   2.205   2.660  11.028 -0.5384 -0.5326  1.6071
   21SAPC  H11B 2707   2.333   2.692  11.145 -0.0450  3.4864  1.2741
   21SAPC     P 2708   2.405   2.637  10.823  0.0354  0.0803  0.0381
   21SAPC   O13 2709   2.518   2.685  10.743  0.0917  0.5471  0.2324
   21SAPC   O14 2710   2.405   2.497  10.868  0.5287 -0.2925  0.2600
   21SAPC   O12 2711   2.395   2.724  10.950  0.6032 -0.2061  0.6938
   21SAPC   O11 2712   2.267   2.667  10.757 -0.0932 -0.8088  0.3571
   21SAPC    C1 2713   2.269   2.788  10.667  0.4273 -0.2041 -0.1392
   21SAPC    HA 2714   2.162   2.815  10.662  0.4086 -0.4183 -1.1156
   21SAPC    HB 2715   2.321   2.874  10.714 -1.1781  0.9151 -0.3726
   21SAPC    C2 2716   2.316   2.760  10.518  0.0997  0.3417 -0.4673
   21SAPC    HS 2717   2.418   2.718  10.534 -0.0932  0.2126  0.5059
   21SAPC   O21 2718   2.327   2.884  10.435 -0.3167  0.4648 -0.3975
   21SAPC   C21 2719   2.441   2.955  10.448 -0.1636 -0.0206  0.7769
   21SAPC   O22 2720   2.533   2.934  10.526 -0.2976 -0.6522  0.3327
   21SAPC   C22 2721   2.437   3.064  10.339 -0.2843 -0.2636  0.1671
   21SAPC   H2R 2722   2.333   3.102  10.351  0.8506  2.1085  3.8096
   21SAPC   H2S 2723   2.520   3.132  10.365 -0.0675 -0.5555  0.2416
   21SAPC    C3 2724   2.224   2.665  10.439 -0.1764  0.7767 -0.3131
   21SAPC    HX 2725   2.125   2.712  10.420 -1.0690 -1.0446 -0.3903
   21SAPC    HY 2726   2.201   2.574  10.498  0.3158 -0.4013 -1.8469
   21SAPC   O31 2727   2.289   2.600  10.321 -0.3760 -0.3694  0.6056
   21SAPC   C31 2728   2.237   2.646  10.202 -0.2787  0.0322 -0.7765
   21SAPC   O32 2729   2.157   2.732  10.185  0.4141  0.0765  0.2745
   21SAPC   C32 2730   2.312   2.574  10.087 -0.2057 -0.3361  0.0649
   21SAPC   H2X 2731   2.286   2.467  10.084  1.0710 -0.6515 -1.2063
   21SAPC   H2Y 2732   2.423   2.569  10.098 -0.1613 -0.5104 -0.4590
   21SAPC   C23 2733   2.458   3.013  10.188  0.0669 -0.6267 -0.0142
   21SAPC   H3R 2734   2.451   3.105  10.127  0.4441 -0.6803 -0.1405
   21SAPC   H3S 2735   2.372   2.946  10.165 -1.2722  0.4558  1.5351
   21SAPC   C24 2736   2.591   2.947  10.157 -0.5261 -0.3517 -0.1037
   21SAPC   H4R 2737   2.658   3.014  10.215  0.0721 -0.5728 -0.5333
   21SAPC   H4S 2738   2.616   2.979  10.054 -0.1351  2.7125  0.8471
   21SAPC   C25 2739   2.617   2.807  10.196  0.3684 -0.4302  0.0186
   21SAPC   H5R 2740   2.538   2.758  10.256  0.3591 -2.3466 -1.4593
   21SAPC   C26 2741   2.707   2.725  10.142  0.3146  0.8247 -0.1750
   21SAPC   H6R 2742   2.712   2.625  10.188 -0.0533  0.5991 -0.6143
   21SAPC   C27 2743   2.809   2.758  10.040 -0.4378  0.8010  0.3734
   21SAPC   H7R 2744   2.890   2.684  10.056 -0.7080  0.0150 -1.5923
   21SAPC   H7S 2745   2.861   2.855  10.051 -0.6915  1.1967 -1.5378
   21SAPC   C28 2746   2.760   2.735   9.892 -0.2208 -0.6657  0.2279
   21SAPC   H8R 2747   2.705   2.644   9.864 -3.7102  0.7994  1.6349
   21SAPC   C29 2748   2.776   2.826   9.791 -0.1821 -0.3153 -0.5902
   21SAPC   H9R 2749   2.746   2.796   9.690 -1.2356 -1.0514 -0.0823
   21SAPC  C210 2750   2.839   2.964   9.804  0.7835 -0.0328 -0.0786
   21SAPC  H10R 2751   2.949   2.946   9.802  1.2523  2.3929 -0.4800
   21SAPC  H10S 2752   2.825   3.009   9.904 -0.6537  0.0626 -0.2967
   21SAPC  C211 2753   2.808   3.054   9.686 -0.4479  0.0719 -0.8916
   21SAPC  H11R 2754   2.894   3.067   9.619  0.8446 -0.3876  0.6102
   21SAPC  C212 2755   2.703   3.133   9.680  0.2636  0.0017 -0.1301
   21SAPC  H12R 2756   2.683   3.189   9.587 -0.9008  2.4634  1.4766
   21SAPC  C213 2757   2.591   3.137   9.777 -0.2441  0.3292 -0.4353
   21SAPC  H13R 2758   2.564   3.245   9.785  1.5272  0.9179 -1.8090
   21SAPC  H13S 2759   2.621   3.105   9.879  2.3023 -0.0916 -1.2616
   21SAPC  C214 2760   2.478   3.050   9.734  0.0210  0.0158  0.0360
   21SAPC  H14R 2761   2.488   2.950   9.778  1.6494 -0.3155 -1.0204
   21SAPC  C215 2762   2.374   3.070   9.651 -1.1608 -0.0007  0.0759
   21SAPC  H15R 2763   2.296   2.993   9.641 -1.0093  0.0079 -1.3135
   21SAPC  C216 2764   2.339   3.202   9.586  0.0071 -0.0702 -0.6621
   21SAPC  H16R 2765   2.307   3.176   9.483 -2.4955  1.4285 -0.3503
   21SAPC  H16S 2766   2.417   3.281   9.590 -1.0792  1.0001  0.4016
   21SAPC  C217 2767   2.220   3.278   9.649  0.7584  0.2073  0.0626
   21SAPC  H17R 2768   2.249   3.311   9.750  0.6558  0.8666 -0.1210
   21SAPC  H17S 2769   2.133   3.210   9.664 -1.0642  2.6025  0.9546
   21SAPC  C218 2770   2.172   3.408   9.577  0.0094 -0.0148  0.2023
   21SAPC  H18R 2771   2.268   3.465   9.576  0.5821 -0.9554  0.0294
   21SAPC  H18S 2772   2.097   3.466   9.634 -1.8121 -0.5991 -1.4879
   21SAPC  C219 2773   2.130   3.380   9.431  0.2018  0.0194  0.0249
   21SAPC  H19R 2774   2.206   3.318   9.378 -1.3042 -1.6876 -0.2144
   21SAPC  H19S 2775   2.132   3.467   9.361  0.3100  0.2037  0.2547
   21SAPC  C220 2776   1.996   3.299   9.409 -0.0258 -0.1897  0.1726
   21SAPC  H20R 2777   1.906   3.364   9.404 -0.0130 -0.2389 -0.8993
   21SAPC  H20S 2778   1.975   3.227   9.491 -0.0112  0.7679  1.0332
   21SAPC  H20T 2779   1.995   3.235   9.318 -2.5560  0.2571 -0.1750
   21SAPC   C33 2780   2.269   2.625   9.950 -0.2132 -0.1488 -0.0319
   21SAPC   H3X 2781   2.243   2.733   9.942  0.2025 -0.1218 -1.3491
   21SAPC   H3Y 2782   2.176   2.569   9.923  1.1765 -1.9769 -1.3304
   21SAPC   C34 2783   2.374   2.595   9.836 -0.0055  0.2968  0.2288
   21SAPC   H4X 2784   2.380   2.484   9.834  0.5784  0.2952  1.3190
   21SAPC   H4Y 2785   2.467   2.651   9.859  0.5048  0.4439 -2.0130
   21SAPC   C35 2786   2.316   2.637   9.696 -0.4154 -0.6612 -0.0133
   21SAPC   H5X 2787   2.277   2.740   9.702 -2.1665 -1.1931 -1.3538
   21SAPC   H5Y 2788   2.228   2.570   9.684 -0.0439 -0.8819 -1.7278
   21SAPC   C36 2789   2.408   2.623   9.572  0.4252 -0.7402 -0.5200
   21SAPC   H6X 2790   2.409   2.518   9.534  0.2697 -0.0287 -2.6524
   21SAPC   H6Y 2791   2.513   2.631   9.609 -0.3229 -0.1834  1.5972
   21SAPC   C37 2792   2.386   2.723   9.449  0.4099  0.1160  0.0947
   21SAPC   H7X 2793   2.476   2.747   9.389  0.2664  0.2134 -0.0830
   21SAPC   H7Y 2794   2.360   2.824   9.487 -1.0608 -0.2108  0.0082
   21SAPC   C38 2795   2.279   2.673   9.355  0.2281 -0.0184  0.8576
   21SAPC   H8X 2796   2.213   2.596   9.401 -1.0262  0.6143  0.1507
   21SAPC   H8Y 2797   2.314   2.610   9.270  0.6970  0.8996  0.3587
   21SAPC   C39 2798   2.191   2.780   9.291  0.3292  0.2516 -0.0819
   21SAPC   H9X 2799   2.137   2.828   9.376 -0.5252 -0.2806 -0.3151
   21SAPC   H9Y 2800   2.112   2.738   9.225 -0.7113  1.4845  0.3200
   21SAPC  C310 2801   2.270   2.896   9.224  0.1598  0.9392  0.4273
   21SAPC  H10X 2802   2.298   2.844   9.130 -1.3556  0.9290 -0.0571
   21SAPC  H10Y 2803   2.356   2.923   9.288 -0.8268  1.9850  1.3522
   21SAPC  C311 2804   2.189   3.020   9.188  0.2008 -0.4199 -0.9089
   21SAPC  H11X 2805   2.237   3.098   9.252 -0.8812 -0.3717 -0.1226
   21SAPC  H11Y 2806   2.084   3.010   9.223  0.7284  0.2923  1.0125
   21SAPC  C312 2807   2.192   3.061   9.047 -0.2969 -0.0091  0.2666
   21SAPC  H12X 2808   2.151   2.978   8.985 -0.1788  0.4207 -0.3928
   21SAPC  H12Y 2809   2.293   3.092   9.014 -0.4393 -0.2095 -0.3743
   21SAPC  C313 2810   2.092   3.174   9.003 -0.6464 -0.3159  0.0437
   21SAPC  H13X 2811   1.989   3.150   9.035 -0.6493 -1.5079 -0.8041
   21SAPC  H13Y 2812   2.089   3.169   8.892  0.5305  4.1999 -0.4171
   21SAPC  C314 2813   2.142   3.315   9.032  0.3725 -0.3703  0.5789
   21SAPC  H14X 2814   2.249   3.327   9.004  0.7642 -3.0985  0.6766
   21SAPC  H14Y 2815   2.150   3.337   9.141  1.0090 -3.1876  1.1747
   21SAPC  C315 2816   2.053   3.416   8.960  0.3346  0.1345  0.9099
   21SAPC  H15X 2817   1.947   3.398   8.989 -0.4472  0.2163 -1.7027
   21SAPC  H15Y 2818   2.063   3.406   8.850 -0.8307  2.3192  0.5433
   21SAPC  C316 2819   2.100   3.551   9.000  0.4017  0.1833 -0.1756
   21SAPC  H16X 2820   2.200   3.570   8.956  0.8789  1.1885  1.2502
   21SAPC  H16Y 2821   2.108   3.570   9.110  2.6303 -0.7799 -0.1251
   21SAPC  C317 2822   2.008   3.661   8.934  0.5896 -0.3884  0.2447
   21SAPC  H17X 2823   1.902   3.630   8.936  0.2125  0.7273 -1.1227
   21SAPC  H17Y 2824   2.032   3.668   8.826  0.5098  2.4112  0.3457
   21SAPC  C318 2825   2.008   3.788   9.007 -0.1516  0.0123 -0.2798
   21SAPC  H18X 2826   1.955   3.777   9.104  0.8796  0.4529  0.3448
   21SAPC  H18Y 2827   1.948   3.865   8.954 -0.5462  0.9688  1.5043
   21SAPC  H18Z 2828   2.112   3.814   9.033  0.1659  0.0385 -1.4966
   22SAPC     N 2829   0.122   0.166  11.033  0.5474 -0.9894  0.1692
   22SAPC   C12 2830   0.040   0.270  10.952 -0.1000  0.4938  0.0450
   22SAPC  H12A 2831   0.098   0.288  10.862  0.7136  0.9434  0.6492
   22SAPC  H12B 2832   0.037   0.367  10.999  0.9302 -0.3591  1.9974
   22SAPC   C13 2833   0.243   0.220  11.107 -0.6174 -0.1872  0.0008
   22SAPC  H13A 2834   0.231   0.318  11.152  1.3078  1.0530 -1.9951
   22SAPC  H13B 2835   0.273   0.144  11.178  0.0812  0.4236  0.3708
   22SAPC  H13C 2836   0.326   0.237  11.040 -1.1540 -0.1774 -0.6756
   22SAPC   C14 2837   0.029   0.108  11.137  0.0169 -0.3894 -0.4587
   22SAPC  H14A 2838   0.084   0.042  11.201 -1.1311 -0.4008  0.5677
   22SAPC  H14B 2839  -0.015   0.190  11.192 -0.2628 -0.0553 -1.1664
   22SAPC  H14C 2840  -0.058   0.063  11.091  0.5266 -0.0855 -1.7676
   22SAPC   C15 2841   0.166   0.060  10.931  0.5838  0.1118 -0.4330
   22SAPC  H15A 2842   0.251   0.101  10.879  0.0055  0.2306 -1.2895
   22SAPC  H15B 2843   0.197  -0.026  10.989 -2.3727 -1.1881 -0.6185
   22SAPC  H15C 2844   0.083   0.050  10.864  0.3704 -0.3444 -0.1074
   22SAPC   C11 2845  -0.101   0.228  10.902 -0.3137 -0.7013 -0.4502
   22SAPC  H11A 2846  -0.146   0.302  10.833  0.1994 -0.7139 -0.8036
   22SAPC  H11B 2847  -0.157   0.206  10.995 -0.7786 -0.8826 -0.7694
   22SAPC     P 2848  -0.227   0.032  10.785  0.2571  0.4767  0.2831
   22SAPC   O13 2849  -0.223  -0.106  10.837 -0.0329  0.0170  0.2604
   22SAPC   O14 2850  -0.345   0.119  10.829 -0.2951 -0.5150 -0.2382
   22SAPC   O12 2851  -0.093   0.113  10.825  0.2020  0.7191  0.1327
   22SAPC   O11 2852  -0.222   0.026  10.629 -0.1671  0.5666  0.2277
   22SAPC    C1 2853  -0.087   0.027  10.573  0.5566 -0.1957  0.1044
   22SAPC    HA 2854  -0.035   0.121  10.600  1.0635 -0.6003  0.5719
   22SAPC    HB 2855  -0.018  -0.048  10.618 -0.3570  0.6835  3.2669
   22SAPC    C2 2856  -0.090  -0.002  10.421  0.5608  0.0742  0.4803
   22SAPC    HS 2857   0.000   0.045  10.377 -0.6224  1.8994 -0.0893
   22SAPC   O21 2858  -0.202   0.064  10.361 -0.5744 -0.6413 -0.6541
   22SAPC   C21 2859  -0.192   0.196  10.354  0.2105  0.8497 -0.1538
   22SAPC   O22 2860  -0.106   0.267  10.404 -0.5142  0.5821 -0.3009
   22SAPC   C22 2861  -0.332   0.245  10.312 -0.3482 -0.1442 -0.0009
   22SAPC   H2R 2862  -0.400   0.160  10.290  0.5676 -1.0314  0.5287
   22SAPC   H2S 2863  -0.373   0.294  10.403 -0.9561 -1.5620  0.5187
   22SAPC    C3 2864  -0.102  -0.155  10.398 -0.0533  0.2897  0.3636
   22SAPC    HX 2865  -0.197  -0.176  10.452 -0.3173  0.1559 -0.1498
   22SAPC    HY 2866  -0.028  -0.207  10.463 -0.5263  0.1769  0.8182
   22SAPC   O31 2867  -0.107  -0.196  10.263  0.1222 -0.0456  0.1156
   22SAPC   C31 2868   0.011  -0.188  10.201  0.8435 -0.2098 -0.2148
   22SAPC   O32 2869   0.120  -0.154  10.243  0.2959 -0.1873  0.3996
   22SAPC   C32 2870  -0.012  -0.209  10.049  0.5665 -0.0276  0.8193
   22SAPC   H2X 2871  -0.068  -0.122  10.008 -1.5851 -1.2976  0.8778
   22SAPC   H2Y 2872  -0.076  -0.294  10.018 -0.5997  1.4668 -1.1508
   22SAPC   C23 2873  -0.323   0.359  10.205 -0.3659  0.0598 -0.1688
   22SAPC   H3R 2874  -0.237   0.426  10.222  1.6110 -2.3785  0.0290
   22SAPC   H3S 2875  -0.417   0.418  10.203 -1.4912 -1.6595 -0.7243
   22SAPC   C24 2876  -0.300   0.303  10.059 -0.7874 -0.7404 -1.1219
   22SAPC   H4R 2877  -0.218   0.228  10.060  0.9308  0.9800  1.5893
   22SAPC   H4S 2878  -0.254   0.382   9.997 -1.2427  1.6843  1.4222
   22SAPC   C25 2879  -0.420   0.255   9.993  0.3084  0.0729  1.1542
   22SAPC   H5R 2880  -0.495   0.332   9.968 -1.3658 -1.9941 -0.6190
   22SAPC   C26 2881  -0.460   0.128   9.984  0.6654  0.5818  0.2819
   22SAPC   H6R 2882  -0.542   0.106   9.914  1.0120 -0.8634  0.2955
   22SAPC   C27 2883  -0.396  -0.002  10.030 -0.5995 -0.1388  0.0951
   22SAPC   H7R 2884  -0.371   0.011  10.137  1.7591 -0.6053 -0.3254
   22SAPC   H7S 2885  -0.296  -0.003   9.981 -1.1298 -0.7250 -1.0110
   22SAPC   C28 2886  -0.482  -0.132  10.016 -0.0524 -0.6756  0.4537
   22SAPC   H8R 2887  -0.539  -0.158  10.106 -1.7361 -0.1106 -0.4018
   22SAPC   C29 2888  -0.487  -0.210   9.907  0.2355 -0.2002 -0.2604
   22SAPC   H9R 2889  -0.555  -0.297   9.908  1.2896 -1.0324 -0.1315
   22SAPC  C210 2890  -0.411  -0.195   9.780 -0.5275 -0.2544 -0.8106
   22SAPC  H10R 2891  -0.350  -0.287   9.767  0.0999  0.0938 -0.3583
   22SAPC  H10S 2892  -0.334  -0.116   9.794  0.3991 -0.8007 -2.5588
   22SAPC  C211 2893  -0.492  -0.153   9.659 -0.5367 -0.6678  0.0677
   22SAPC  H11R 2894  -0.536  -0.053   9.671  0.8423 -0.0078 -0.1711
   22SAPC  C212 2895  -0.506  -0.204   9.541 -0.2084 -0.1833  0.0940
   22SAPC  H12R 2896  -0.552  -0.136   9.468 -0.9932  1.3044  1.8970
   22SAPC  C213 2897  -0.448  -0.329   9.488 -0.0944  0.0640 -0.5477
   22SAPC  H13R 2898  -0.397  -0.391   9.565 -3.4471 -0.4210  1.4905
   22SAPC  H13S 2899  -0.372  -0.299   9.412  0.0417 -1.0068 -0.8462
   22SAPC  C214 2900  -0.556  -0.407   9.415 -0.1518 -0.2430 -0.3345
   22SAPC  H14R 2901  -0.655  -0.400   9.463  0.6139  1.4736  1.0855
   22SAPC  C215 2902  -0.544  -0.472   9.295 -0.7167  0.2353 -0.2103
   22SAPC  H15R 2903  -0.627  -0.540   9.270  0.2241 -1.4608  1.0423
   22SAPC  C216 2904  -0.419  -0.485   9.206  0.9056  0.4693 -0.1546
   22SAPC  H16R 2905  -0.410  -0.593   9.178 -1.4734  0.0131  0.6509
   22SAPC  H16S 2906  -0.328  -0.455   9.262  0.6162  1.3627 -0.1483
   22SAPC  C217 2907  -0.418  -0.403   9.078  0.0705  0.4615  0.2156
   22SAPC  H17R 2908  -0.316  -0.402   9.033  0.2188  0.6887  0.5458
   22SAPC  H17S 2909  -0.440  -0.295   9.097  1.8665  0.8224  0.5098
   22SAPC  C218 2910  -0.518  -0.471   8.988 -0.2436  0.0387  0.4895
   22SAPC  H18R 2911  -0.621  -0.484   9.028  0.4918  2.0305  3.3089
   22SAPC  H18S 2912  -0.478  -0.569   8.956 -0.9510  0.0887 -0.5978
   22SAPC  C219 2913  -0.535  -0.395   8.857  0.7126 -0.1461 -0.0501
   22SAPC  H19R 2914  -0.432  -0.367   8.826  0.7831 -1.4511 -1.0914
   22SAPC  H19S 2915  -0.594  -0.304   8.879  0.3456  0.2044 -2.2572
   22SAPC  C220 2916  -0.587  -0.486   8.742 -0.4067 -0.3316 -0.3376
   22SAPC  H20R 2917  -0.505  -0.552   8.706  1.1307 -0.5198  3.1351
   22SAPC  H20S 2918  -0.623  -0.434   8.650  2.1857  1.9066 -0.1948
   22SAPC  H20T 2919  -0.674  -0.551   8.764  0.1353 -1.2467 -0.8234
   22SAPC   C33 2920   0.116  -0.222   9.971 -0.1544 -0.3683 -0.7372
   22SAPC   H3X 2921   0.164  -0.312  10.014  1.9558  0.3171 -1.5300
   22SAPC   H3Y 2922   0.181  -0.135   9.996  0.9909 -1.2088 -0.7158
   22SAPC   C34 2923   0.108  -0.250   9.826 -0.3247 -0.0574 -0.3197
   22SAPC   H4X 2924   0.062  -0.162   9.775 -1.0719  0.3268  0.9711
   22SAPC   H4Y 2925   0.036  -0.332   9.809 -1.3104  0.6145  0.4945
   22SAPC   C35 2926   0.248  -0.269   9.756 -0.1983 -0.0505  0.5611
   22SAPC   H5X 2927   0.302  -0.350   9.810 -0.6226  0.3408  1.6147
   22SAPC   H5Y 2928   0.310  -0.178   9.768  0.3937  0.1905 -3.2187
   22SAPC   C36 2929   0.244  -0.285   9.604  0.3455 -0.1409  0.2269
   22SAPC   H6X 2930   0.190  -0.199   9.560 -0.2256 -1.3199 -1.4571
   22SAPC   H6Y 2931   0.187  -0.379   9.590  0.4770 -0.8784  3.7013
   22SAPC   C37 2932   0.382  -0.305   9.539  0.3067  0.4051  0.6054
   22SAPC   H7X 2933   0.443  -0.379   9.594 -0.5941 -1.8037 -1.2182
   22SAPC   H7Y 2934   0.443  -0.212   9.551  2.8253 -1.2244  1.1786
   22SAPC   C38 2935   0.363  -0.359   9.397  0.1761 -0.0733 -0.5924
   22SAPC   H8X 2936   0.295  -0.298   9.334  0.4850 -2.1991 -3.1821
   22SAPC   H8Y 2937   0.315  -0.459   9.401  0.3673 -0.1410  0.1805
   22SAPC   C39 2938   0.500  -0.362   9.322  0.7488  1.0629 -0.1018
   22SAPC   H9X 2939   0.568  -0.412   9.394 -0.3699 -0.8937 -0.3547
   22SAPC   H9Y 2940   0.531  -0.256   9.306  2.3248  0.3295 -2.4575
   22SAPC  C310 2941   0.526  -0.443   9.200  1.1732  0.3551  0.5730
   22SAPC  H10X 2942   0.512  -0.553   9.216  0.8936  0.1504 -0.9482
   22SAPC  H10Y 2943   0.623  -0.420   9.153  0.3192  0.8801 -0.9921
   22SAPC  C311 2944   0.434  -0.405   9.081  0.1590  0.3467  0.0550
   22SAPC  H11X 2945   0.420  -0.295   9.084  0.9011  0.4356  0.5181
   22SAPC  H11Y 2946   0.336  -0.455   9.100  0.7270 -0.6921  0.2730
   22SAPC  C312 2947   0.495  -0.456   8.948  0.2134  0.1860 -0.5251
   22SAPC  H12X 2948   0.496  -0.567   8.943 -2.1631  0.0599  0.5827
   22SAPC  H12Y 2949   0.604  -0.437   8.939  0.2467  0.2650  0.0139
   22SAPC  C313 2950   0.431  -0.390   8.832  0.9216  0.8741 -0.2630
   22SAPC  H13X 2951   0.468  -0.438   8.739  0.4638 -0.6807  0.3096
   22SAPC  H13Y 2952   0.459  -0.283   8.831  1.0569  0.8527  0.5393
   22SAPC  C314 2953   0.278  -0.385   8.843 -0.8046  0.7631 -0.7220
   22SAPC  H14X 2954   0.245  -0.338   8.938  0.7729 -0.6733  0.5832
   22SAPC  H14Y 2955   0.228  -0.482   8.828  0.9964 -0.4962  0.9178
   22SAPC  C315 2956   0.215  -0.286   8.737 -0.8351 -0.6118 -0.4305
   22SAPC  H15X 2957   0.229  -0.325   8.634 -0.0850 -0.6111 -0.3338
   22SAPC  H15Y 2958   0.250  -0.181   8.750  0.1752 -0.9394 -0.3904
   22SAPC  C316 2959   0.055  -0.274   8.750 -0.4035 -0.5287 -0.3478
   22SAPC  H16X 2960  -0.003  -0.350   8.694  0.2671 -1.8737  0.7157
   22SAPC  H16Y 2961   0.028  -0.177   8.704 -0.3242 -0.9121 -1.2246
   22SAPC  C317 2962   0.017  -0.276   8.895  0.5940  0.1958 -0.8065
   22SAPC  H17X 2963   0.072  -0.198   8.951  2.2191 -0.0711 -1.9623
   22SAPC  H17Y 2964   0.041  -0.373   8.943  1.5800  0.4087 -0.8449
   22SAPC  C318 2965  -0.131  -0.244   8.921 -0.1521  0.5204 -1.0209
   22SAPC  H18X 2966  -0.177  -0.183   8.841 -1.2333 -0.9313 -1.5438
   22SAPC  H18Y 2967  -0.149  -0.196   9.020  0.5934  2.7222 -1.8946
   22SAPC  H18Z 2968  -0.182  -0.339   8.897 -0.4946  1.2964 -3.7275
   23SAPC     N 2969   2.525   1.454  10.669 -0.3659 -0.4082  0.3795
   23SAPC   C12 2970   2.516   1.545  10.785 -0.3193 -0.0722 -0.5521
   23SAPC  H12A 2971   2.600   1.612  10.774  1.2304 -1.2114  2.8658
   23SAPC  H12B 2972   2.544   1.482  10.869 -0.2909 -1.6643 -1.7168
   23SAPC   C13 2973   2.418   1.344  10.677 -0.7799 -0.6632 -0.4389
   23SAPC  H13A 2974   2.426   1.286  10.767  2.4773  0.0798 -0.1284
   23SAPC  H13B 2975   2.324   1.396  10.672 -0.7793 -0.4476  1.2253
   23SAPC  H13C 2976   2.416   1.276  10.593 -2.5553  0.0708 -1.0232
   23SAPC   C14 2977   2.501   1.531  10.550  0.4056 -0.4163  1.1615
   23SAPC  H14A 2978   2.487   1.469  10.463  0.2185  0.0893  0.8239
   23SAPC  H14B 2979   2.417   1.599  10.557  1.1452  0.5012  1.4463
   23SAPC  H14C 2980   2.579   1.602  10.527  0.3985 -1.2438 -1.7772
   23SAPC   C15 2981   2.660   1.383  10.659 -0.7393 -0.2900  1.1513
   23SAPC  H15A 2982   2.742   1.450  10.641 -0.5872 -1.1116 -1.7057
   23SAPC  H15B 2983   2.686   1.313  10.737 -1.7244  0.2587  1.9975
   23SAPC  H15C 2984   2.662   1.320  10.571  0.0259  1.0006  0.2141
   23SAPC   C11 2985   2.376   1.611  10.817  0.1747 -0.0593  0.2528
   23SAPC  H11A 2986   2.370   1.663  10.915  1.4618  2.0997 -0.7395
   23SAPC  H11B 2987   2.297   1.533  10.819 -0.6390  0.5650 -2.6269
   23SAPC     P 2988   2.414   1.838  10.700  0.3002 -0.2317 -0.0749
   23SAPC   O13 2989   2.344   1.938  10.784 -0.0784  0.1517 -0.2027
   23SAPC   O14 2990   2.564   1.822  10.715 -0.1913 -0.6151 -0.3086
   23SAPC   O12 2991   2.339   1.695  10.713 -0.7476  0.2223  0.2349
   23SAPC   O11 2992   2.380   1.861  10.549  0.3343  0.5887  0.2874
   23SAPC    C1 2993   2.481   1.875  10.447  0.2257 -0.3028 -0.6774
   23SAPC    HA 2994   2.571   1.935  10.474 -0.8508  0.8544  0.4387
   23SAPC    HB 2995   2.517   1.776  10.410 -0.5283 -1.0863  0.6264
   23SAPC    C2 2996   2.421   1.939  10.315 -0.3983  0.7048 -0.4300
   23SAPC    HS 2997   2.328   1.881  10.296  1.9012 -2.6593 -2.3968
   23SAPC   O21 2998   2.517   1.941  10.209  0.0949  0.3583  0.5318
   23SAPC   C21 2999   2.506   1.842  10.120 -0.3710 -0.2917 -0.7436
   23SAPC   O22 3000   2.426   1.751  10.127  0.4676  0.5593 -0.2219
   23SAPC   C22 3001   2.602   1.879  10.014  0.3881  0.4225  0.2675
   23SAPC   H2R 3002   2.582   1.986   9.996 -3.3527  0.1265  1.6955
   23SAPC   H2S 3003   2.703   1.847  10.048  0.1134 -1.1136 -0.2768
   23SAPC    C3 3004   2.374   2.085  10.340 -0.0023 -0.0472 -0.1571
   23SAPC    HX 3005   2.460   2.151  10.364  0.6648 -1.1456  0.5394
   23SAPC    HY 3006   2.308   2.074  10.429 -0.4181 -1.8570 -0.6446
   23SAPC   O31 3007   2.293   2.127  10.235 -0.0621  0.0248 -0.0989
   23SAPC   C31 3008   2.352   2.190  10.135  0.2330  0.4083 -0.1026
   23SAPC   O32 3009   2.464   2.230  10.124 -0.3060 -0.1062 -0.3791
   23SAPC   C32 3010   2.254   2.182  10.013  0.5525 -0.7281 -0.2205
   23SAPC   H2X 3011   2.185   2.269  10.015 -1.5859 -2.3581  0.2114
   23SAPC   H2Y 3012   2.185   2.095  10.024 -0.2672 -0.0434  0.1451
   23SAPC   C23 3013   2.584   1.803   9.878  0.3018  0.4716  0.0765
   23SAPC   H3R 3014   2.475   1.814   9.859 -0.1074 -3.2460 -0.5105
   23SAPC   H3S 3015   2.587   1.693   9.891 -1.3259  0.3750 -0.1140
   23SAPC   C24 3016   2.677   1.842   9.765  0.2101  0.1612 -0.3747
   23SAPC   H4R 3017   2.683   1.761   9.690 -1.4467 -1.2178  0.9106
   23SAPC   H4S 3018   2.776   1.842   9.817 -0.6138  1.0874  1.2872
   23SAPC   C25 3019   2.654   1.979   9.718 -0.5314 -0.1522 -0.2562
   23SAPC   H5R 3020   2.698   2.069   9.764 -0.9662 -0.8280  1.6001
   23SAPC   C26 3021   2.593   2.007   9.601 -0.1667 -0.0767 -0.2881
   23SAPC   H6R 3022   2.604   2.114   9.578  1.0684  0.5201  2.5914
   23SAPC   C27 3023   2.545   1.917   9.492  0.4645 -0.5951  0.6508
   23SAPC   H7R 3024   2.476   1.976   9.428  0.2067 -1.1910  0.3674
   23SAPC   H7S 3025   2.470   1.843   9.529 -0.2064  0.0874  0.6901
   23SAPC   C28 3026   2.652   1.863   9.401  0.6356 -0.2032 -0.6125
   23SAPC   H8R 3027   2.700   1.769   9.433 -0.9423  0.3483  4.2575
   23SAPC   C29 3028   2.695   1.910   9.284 -0.0230 -0.3284  0.3186
   23SAPC   H9R 3029   2.763   1.846   9.226 -1.2961 -1.0378 -0.4528
   23SAPC  C210 3030   2.652   2.042   9.226  0.3372 -0.9934  0.3732
   23SAPC  H10R 3031   2.545   2.068   9.238  0.1054 -0.1756 -2.6415
   23SAPC  H10S 3032   2.662   2.044   9.115 -0.0511 -2.5976  0.2802
   23SAPC  C211 3033   2.736   2.160   9.267  0.0366 -0.5283 -0.2774
   23SAPC  H11R 3034   2.826   2.130   9.323  1.0079  0.0679 -1.4807
   23SAPC  C212 3035   2.709   2.296   9.251 -0.2709 -0.4788  0.0570
   23SAPC  H12R 3036   2.778   2.376   9.282  0.2278 -1.2322  0.9441
   23SAPC  C213 3037   2.590   2.340   9.168  0.0343 -0.2915 -0.4592
   23SAPC  H13R 3038   2.532   2.426   9.206 -2.9825 -2.4602  0.1537
   23SAPC  H13S 3039   2.515   2.259   9.175 -0.5745  0.2985 -0.0883
   23SAPC  C214 3040   2.621   2.353   9.022  0.8114 -0.2103  0.0387
   23SAPC  H14R 3041   2.629   2.258   8.967 -0.4798  0.1348 -0.7855
   23SAPC  C215 3042   2.626   2.460   8.949 -0.2584  0.7994  0.0460
   23SAPC  H15R 3043   2.639   2.450   8.840  0.1284 -2.4234  0.3090
   23SAPC  C216 3044   2.608   2.598   8.998  0.4857  0.1408  0.5238
   23SAPC  H16R 3045   2.695   2.660   8.966 -0.1458  1.2606  0.8987
   23SAPC  H16S 3046   2.603   2.603   9.109 -0.3547  0.8275  0.4728
   23SAPC  C217 3047   2.483   2.668   8.935  0.4423 -0.1557 -0.1264
   23SAPC  H17R 3048   2.398   2.646   9.003  1.7980 -0.8728  1.4042
   23SAPC  H17S 3049   2.458   2.612   8.842 -0.4357  0.1958 -0.1160
   23SAPC  C218 3050   2.506   2.816   8.901  0.2152  0.4169  0.4262
   23SAPC  H18R 3051   2.550   2.869   8.988 -0.3153  1.8923 -0.1805
   23SAPC  H18S 3052   2.407   2.861   8.876 -0.1600 -2.0563 -3.3260
   23SAPC  C219 3053   2.588   2.837   8.779  0.0469  0.9269 -0.0754
   23SAPC  H19R 3054   2.519   2.846   8.693 -1.3421 -1.8380  0.6202
   23SAPC  H19S 3055   2.665   2.758   8.763 -2.0300 -1.4994  1.2214
   23SAPC  C220 3056   2.658   2.976   8.793  0.1668 -0.3158  0.6197
   23SAPC  H20R 3057   2.583   3.058   8.803  0.6405 -0.2022  5.6710
   23SAPC  H20S 3058   2.725   2.992   8.706  0.8894  1.8362  1.5038
   23SAPC  H20T 3059   2.724   2.988   8.881  0.0104 -0.3845  0.7470
   23SAPC   C33 3060   2.325   2.174   9.875  0.2654  0.2234 -0.1442
   23SAPC   H3X 3061   2.376   2.076   9.872 -3.2911 -1.7919 -2.1825
   23SAPC   H3Y 3062   2.397   2.257   9.861  1.8396 -0.8402  1.3606
   23SAPC   C34 3063   2.219   2.183   9.765 -0.6203 -0.4998  0.1808
   23SAPC   H4X 3064   2.171   2.283   9.766 -0.6793 -0.4929 -1.3453
   23SAPC   H4Y 3065   2.135   2.115   9.789  0.2408 -1.0894  1.6605
   23SAPC   C35 3066   2.278   2.146   9.628 -0.0731 -0.2915 -0.2968
   23SAPC   H5X 3067   2.301   2.038   9.638  0.5977 -0.1503 -0.2479
   23SAPC   H5Y 3068   2.364   2.208   9.594 -1.1566  3.0405  2.4936
   23SAPC   C36 3069   2.184   2.168   9.510 -0.2056  0.3683 -0.4426
   23SAPC   H6X 3070   2.144   2.271   9.528  2.8010  1.5391  0.1089
   23SAPC   H6Y 3071   2.096   2.101   9.505 -0.9711  1.3532 -0.6109
   23SAPC   C37 3072   2.258   2.180   9.372  0.3698 -0.1363 -0.0781
   23SAPC   H7X 3073   2.290   2.080   9.335  0.8975 -0.9982  2.5292
   23SAPC   H7Y 3074   2.353   2.235   9.385  0.2110  0.3399 -0.8670
   23SAPC   C38 3075   2.164   2.248   9.279  0.2195 -1.0274  0.2213
   23SAPC   H8X 3076   2.164   2.358   9.296 -0.0041 -1.1433  1.0019
   23SAPC   H8Y 3077   2.054   2.229   9.280 -0.0925  0.4207 -1.2013
   23SAPC   C39 3078   2.204   2.212   9.139 -0.4223  0.3896  0.6426
   23SAPC   H9X 3079   2.205   2.101   9.127  1.0970  0.4143  0.3901
   23SAPC   H9Y 3080   2.304   2.257   9.127  0.1744 -1.4126 -1.9488
   23SAPC  C310 3081   2.106   2.275   9.039  0.6423  0.3435  0.3841
   23SAPC  H10X 3082   2.062   2.374   9.067  0.3095  0.3812 -0.2507
   23SAPC  H10Y 3083   2.020   2.205   9.030  2.1860 -1.8779  1.9268
   23SAPC  C311 3084   2.168   2.291   8.894  0.4653  0.4071  0.0804
   23SAPC  H11X 3085   2.247   2.369   8.894 -0.9044  1.8725 -1.6284
   23SAPC  H11Y 3086   2.080   2.331   8.839  0.6032  0.3833 -0.1564
   23SAPC  C312 3087   2.218   2.163   8.825 -0.3998 -0.1747 -0.0256
   23SAPC  H12X 3088   2.132   2.100   8.795  0.0122 -1.8562  2.0789
   23SAPC  H12Y 3089   2.276   2.106   8.901 -0.7612  1.7040  1.7590
   23SAPC  C313 3090   2.304   2.185   8.700  0.4238  0.2559 -0.2236
   23SAPC  H13X 3091   2.273   2.270   8.636  0.0181  0.5029  0.3014
   23SAPC  H13Y 3092   2.293   2.092   8.640 -1.9166  0.0589  0.4120
   23SAPC  C314 3093   2.455   2.198   8.744 -0.4188  0.2011 -0.2867
   23SAPC  H14X 3094   2.468   2.116   8.819 -0.0164  0.7121  0.2141
   23SAPC  H14Y 3095   2.460   2.298   8.794 -0.9518 -1.0405  2.4639
   23SAPC  C315 3096   2.545   2.209   8.620 -0.3725 -0.7150  0.8265
   23SAPC  H15X 3097   2.498   2.154   8.536 -1.1808  2.4822 -0.9565
   23SAPC  H15Y 3098   2.644   2.161   8.638 -0.0064  0.1393  1.1479
   23SAPC  C316 3099   2.555   2.352   8.561  0.1671  0.8573 -0.3023
   23SAPC  H16X 3100   2.649   2.395   8.603  1.6117 -2.5847  0.3767
   23SAPC  H16Y 3101   2.460   2.398   8.594  0.5298  0.6485  1.0968
   23SAPC  C317 3102   2.571   2.348   8.408 -0.2182  0.3392 -0.4372
   23SAPC  H17X 3103   2.562   2.455   8.376  1.6665 -0.3250 -3.6475
   23SAPC  H17Y 3104   2.480   2.301   8.365 -0.8816  3.1939 -2.4409
   23SAPC  C318 3105   2.700   2.290   8.349  0.2739 -1.0072 -0.3830
   23SAPC  H18X 3106   2.771   2.271   8.433  1.1839  0.6335 -0.7245
   23SAPC  H18Y 3107   2.736   2.352   8.264 -0.0215  0.2900  0.4097
   23SAPC  H18Z 3108   2.686   2.186   8.314  0.8602 -1.4360  0.5946
   24SAPC     N 3109   5.473   3.352  11.208 -0.2189  0.3392  0.1594
   24SAPC   C12 3110   5.476   3.295  11.071 -0.1343 -0.5171 -0.0301
   24SAPC  H12A 3111   5.438   3.196  11.090 -2.4808  0.1532 -0.9581
   24SAPC  H12B 3112   5.580   3.291  11.040  0.2886  0.4486  1.1581
   24SAPC   C13 3113   5.565   3.267  11.304  0.3489 -0.0065 -0.6244
   24SAPC  H13A 3114   5.558   3.302  11.406  2.1943 -0.7467 -0.1918
   24SAPC  H13B 3115   5.525   3.166  11.304  1.1395 -0.3573  1.2193
   24SAPC  H13C 3116   5.669   3.275  11.277  0.0560  1.2143 -1.4736
   24SAPC   C14 3117   5.527   3.488  11.217  0.1355  0.5725 -0.2302
   24SAPC  H14A 3118   5.462   3.552  11.160 -2.2520  0.2774  1.9636
   24SAPC  H14B 3119   5.526   3.530  11.317 -0.0444 -1.8000  0.8532
   24SAPC  H14C 3120   5.627   3.498  11.178  1.2112 -4.6895  0.3525
   24SAPC   C15 3121   5.339   3.350  11.262 -0.2357 -0.1457 -0.1703
   24SAPC  H15A 3122   5.321   3.399  11.357 -0.4293  1.3967 -0.9679
   24SAPC  H15B 3123   5.268   3.381  11.187  0.0228  1.6710  0.2945
   24SAPC  H15C 3124   5.315   3.248  11.287  0.4081 -0.2322  0.1171
   24SAPC   C11 3125   5.396   3.355  10.957 -0.7442  0.3325  0.0338
   24SAPC  H11A 3126   5.430   3.314  10.859  0.4146 -1.7628  1.2344
   24SAPC  H11B 3127   5.417   3.463  10.946 -1.6501  0.5433  0.2408
   24SAPC     P 3128   5.198   3.202  10.942 -0.0629  0.5326 -0.1803
   24SAPC   O13 3129   5.272   3.096  11.014  0.0107  0.3559  0.0807
   24SAPC   O14 3130   5.058   3.230  10.980  0.5203  0.3619 -0.5200
   24SAPC   O12 3131   5.257   3.341  10.977  0.4061  0.1166 -0.2376
   24SAPC   O11 3132   5.212   3.182  10.787 -0.1199 -0.6132 -0.2323
   24SAPC    C1 3133   5.173   3.280  10.693  0.3078  0.0783 -0.0495
   24SAPC    HA 3134   5.071   3.314  10.718  0.6916  1.9928 -0.8562
   24SAPC    HB 3135   5.242   3.367  10.694 -0.2913  0.5691 -0.5976
   24SAPC    C2 3136   5.185   3.224  10.543  0.0712  0.6314 -0.4485
   24SAPC    HS 3137   5.291   3.237  10.510 -0.1289  1.4096 -0.7984
   24SAPC   O21 3138   5.099   3.296  10.456  0.1275  0.2484 -0.1646
   24SAPC   C21 3139   5.147   3.407  10.403 -0.3096 -0.3285 -0.0161
   24SAPC   O22 3140   5.253   3.461  10.428 -0.6379  0.1536  0.0642
   24SAPC   C22 3141   5.042   3.459  10.302  0.0586 -0.0820 -0.3597
   24SAPC   H2R 3142   4.980   3.377  10.259 -0.8818  1.7283 -2.6499
   24SAPC   H2S 3143   4.976   3.523  10.364 -1.6939 -1.9454 -0.1852
   24SAPC    C3 3144   5.164   3.070  10.536  0.6819 -1.3623 -0.1967
   24SAPC    HX 3145   5.064   3.061  10.584  1.8280 -2.1665  2.2012
   24SAPC    HY 3146   5.229   3.018  10.610  1.4236 -1.0500 -0.6222
   24SAPC   O31 3147   5.163   3.012  10.406  0.2469 -0.3348 -0.1921
   24SAPC   C31 3148   5.275   2.954  10.363  0.3867  0.1460 -0.3675
   24SAPC   O32 3149   5.378   2.937  10.432  0.5339 -0.2550  0.2635
   24SAPC   C32 3150   5.263   2.904  10.221  0.1142  0.8251  0.5448
   24SAPC   H2X 3151   5.155   2.881  10.206  0.4016  0.9091 -1.9695
   24SAPC   H2Y 3152   5.313   2.806  10.208 -0.4725  0.6421 -0.3965
   24SAPC   C23 3153   5.091   3.547  10.184  0.2795  0.3390  0.0214
   24SAPC   H3R 3154   5.186   3.594  10.217  1.2953 -0.0524 -2.1867
   24SAPC   H3S 3155   5.019   3.626  10.153 -0.4991 -1.1803 -2.2330
   24SAPC   C24 3156   5.142   3.456  10.069  0.3584  0.0607  0.0226
   24SAPC   H4R 3157   5.056   3.410  10.015 -1.0470  2.9107 -0.3492
   24SAPC   H4S 3158   5.183   3.369  10.125 -1.2898 -0.6278  0.2300
   24SAPC   C25 3159   5.234   3.539   9.989  0.4949  0.0363  0.0234
   24SAPC   H5R 3160   5.186   3.618   9.928  0.3096  0.1872  0.3639
   24SAPC   C26 3161   5.363   3.520   9.983 -0.0403  0.2342 -0.1588
   24SAPC   H6R 3162   5.431   3.581   9.921  0.6332 -0.2558  0.0803
   24SAPC   C27 3163   5.430   3.414  10.059 -0.2801  0.4827 -0.0055
   24SAPC   H7R 3164   5.386   3.315  10.033 -0.5166  0.7432 -0.6084
   24SAPC   H7S 3165   5.403   3.418  10.167  1.9184 -1.1077  0.6689
   24SAPC   C28 3166   5.580   3.419  10.052  0.4350  0.0624 -0.0617
   24SAPC   H8R 3167   5.637   3.468  10.132  1.0575  0.8494 -0.9571
   24SAPC   C29 3168   5.647   3.391   9.945  0.3013 -0.3004  0.1520
   24SAPC   H9R 3169   5.754   3.417   9.944 -0.4968  3.6580  1.3317
   24SAPC  C210 3170   5.582   3.339   9.821  0.4489  0.7257  0.4952
   24SAPC  H10R 3171   5.472   3.327   9.824  0.0222  4.0910  2.0897
   24SAPC  H10S 3172   5.620   3.238   9.791  0.2764  1.5886 -3.1477
   24SAPC  C211 3173   5.620   3.428   9.697 -0.2868 -0.0878  0.0004
   24SAPC  H11R 3174   5.727   3.452   9.703 -0.0558 -1.2454  0.9222
   24SAPC  C212 3175   5.538   3.479   9.607  0.0146 -0.3292  0.0026
   24SAPC  H12R 3176   5.590   3.529   9.524  1.6589 -0.0268  1.1725
   24SAPC  C213 3177   5.385   3.457   9.599 -0.4077  0.0516  0.3336
   24SAPC  H13R 3178   5.352   3.425   9.700  0.0423  2.1357  1.2037
   24SAPC  H13S 3179   5.356   3.377   9.529 -2.8719  1.9945 -1.0084
   24SAPC  C214 3180   5.319   3.587   9.569  0.5401 -0.3276 -0.0212
   24SAPC  H14R 3181   5.335   3.654   9.655 -1.2299  1.2181 -0.8424
   24SAPC  C215 3182   5.262   3.633   9.455  0.1320  0.7889 -0.7711
   24SAPC  H15R 3183   5.224   3.736   9.449 -1.4140  0.2027 -1.4534
   24SAPC  C216 3184   5.252   3.562   9.323  0.1262  0.3860 -0.2568
   24SAPC  H16R 3185   5.221   3.456   9.340  0.6170  0.4086  0.8307
   24SAPC  H16S 3186   5.354   3.560   9.281 -0.3299  0.6934 -1.4332
   24SAPC  C217 3187   5.158   3.624   9.217  0.8009 -0.6049  0.3720
   24SAPC  H17R 3188   5.062   3.644   9.268  0.0416 -1.2334 -0.7714
   24SAPC  H17S 3189   5.127   3.545   9.145 -0.8660 -1.2743  1.7448
   24SAPC  C218 3190   5.213   3.749   9.142 -0.3576  0.0138  0.5504
   24SAPC  H18R 3191   5.300   3.719   9.079 -1.1162 -0.7095 -0.1597
   24SAPC  H18S 3192   5.245   3.831   9.210  0.8008 -0.4393  0.5793
   24SAPC  C219 3193   5.098   3.811   9.062  0.1034 -0.1811 -0.0768
   24SAPC  H19R 3194   5.014   3.822   9.133  0.9863  1.2484  0.7942
   24SAPC  H19S 3195   5.065   3.750   8.975  0.0601  0.9490 -0.8708
   24SAPC  C220 3196   5.126   3.951   9.004  0.6703 -0.3493 -0.0267
   24SAPC  H20R 3197   5.157   4.020   9.085  0.6277 -0.6158  0.2172
   24SAPC  H20S 3198   5.031   3.994   8.967  0.2055 -0.8357  0.5777
   24SAPC  H20T 3199   5.206   3.939   8.927 -1.0017  2.6441 -2.4660
   24SAPC   C33 3200   5.311   3.002  10.114 -0.3320 -0.3598  0.3747
   24SAPC   H3X 3201   5.420   3.018  10.128  0.0118 -1.3764 -0.9076
   24SAPC   H3Y 3202   5.261   3.100  10.126  0.1564 -0.2554  1.8281
   24SAPC   C34 3203   5.296   2.955   9.968  0.0728  0.6062  0.0828
   24SAPC   H4X 3204   5.188   2.946   9.947  0.1571 -0.8783  0.1965
   24SAPC   H4Y 3205   5.319   2.847   9.961 -4.1661 -0.6467  2.3383
   24SAPC   C35 3206   5.365   3.038   9.861 -0.0240  0.1277 -0.0344
   24SAPC   H5X 3207   5.474   3.033   9.879  0.1512 -0.2313 -1.1210
   24SAPC   H5Y 3208   5.333   3.144   9.859  0.2407  0.2117 -1.5637
   24SAPC   C36 3209   5.329   2.978   9.726 -0.5428 -0.2145  0.5581
   24SAPC   H6X 3210   5.221   2.991   9.707 -0.2676  0.2912 -0.7904
   24SAPC   H6Y 3211   5.363   2.872   9.717  1.2468  0.2925  0.8661
   24SAPC   C37 3212   5.390   3.066   9.612 -0.1198 -0.1591  0.2191
   24SAPC   H7X 3213   5.494   3.087   9.643 -0.7225  1.9461  0.9902
   24SAPC   H7Y 3214   5.332   3.161   9.606 -0.6337 -0.5132 -0.6480
   24SAPC   C38 3215   5.382   2.979   9.482 -0.6878 -1.1139 -0.7681
   24SAPC   H8X 3216   5.277   2.952   9.460 -1.0433 -2.2892  1.9151
   24SAPC   H8Y 3217   5.433   2.882   9.501  0.8676 -0.6077 -2.1509
   24SAPC   C39 3218   5.431   3.049   9.352  0.2549 -0.2426  0.1798
   24SAPC   H9X 3219   5.531   3.093   9.376 -0.2339  1.2177 -0.3141
   24SAPC   H9Y 3220   5.359   3.131   9.330  2.5908  1.5179 -1.4940
   24SAPC  C310 3221   5.439   2.953   9.231  0.2922 -0.1861 -0.2600
   24SAPC  H10X 3222   5.341   2.933   9.183  0.8430 -0.5327 -1.2560
   24SAPC  H10Y 3223   5.468   2.853   9.269  0.8159  0.8183  2.2237
   24SAPC  C311 3224   5.544   2.996   9.129  0.6071  0.7149 -0.1503
   24SAPC  H11X 3225   5.642   2.978   9.178  1.4288 -0.9526 -2.2490
   24SAPC  H11Y 3226   5.535   3.103   9.101  2.7327  1.4899  1.8368
   24SAPC  C312 3227   5.543   2.914   8.998  0.4704  0.4710  1.0387
   24SAPC  H12X 3228   5.615   2.968   8.932 -0.0830  1.7097  1.4073
   24SAPC  H12Y 3229   5.444   2.891   8.953  1.2221 -2.3946  0.6984
   24SAPC  C313 3230   5.619   2.782   9.026  0.0659 -0.1518 -0.1802
   24SAPC  H13X 3231   5.559   2.731   9.105 -0.3045  0.7945  0.1702
   24SAPC  H13Y 3232   5.713   2.820   9.070 -0.0775 -0.7040  0.6352
   24SAPC  C314 3233   5.644   2.702   8.894  0.7724  0.1892 -0.0139
   24SAPC  H14X 3234   5.662   2.779   8.815 -0.3363  0.5869  0.0932
   24SAPC  H14Y 3235   5.548   2.654   8.867 -0.4515  1.8112  1.2600
   24SAPC  C315 3236   5.754   2.604   8.897  0.1586 -0.5052 -0.2632
   24SAPC  H15X 3237   5.743   2.527   8.977  1.3916 -1.4247 -0.9368
   24SAPC  H15Y 3238   5.845   2.662   8.924  0.6942 -2.0198  1.4346
   24SAPC  C316 3239   5.788   2.536   8.766 -0.8931  0.0246 -0.1969
   24SAPC  H16X 3240   5.779   2.613   8.686  2.0983 -0.7713 -1.4255
   24SAPC  H16Y 3241   5.710   2.457   8.772  2.4747 -3.7567 -1.7922
   24SAPC  C317 3242   5.928   2.462   8.768  0.4519 -0.5446  0.0370
   24SAPC  H17X 3243   5.919   2.407   8.864  0.1695  2.6680  1.9857
   24SAPC  H17Y 3244   6.003   2.543   8.778 -1.5499  1.8189 -2.4756
   24SAPC  C318 3245   5.967   2.376   8.651  0.0289 -0.1491 -0.4851
   24SAPC  H18X 3246   5.939   2.428   8.556 -1.3778  2.2310  1.1263
   24SAPC  H18Y 3247   5.909   2.281   8.654 -2.3501  1.2007 -1.2209
   24SAPC  H18Z 3248   6.074   2.346   8.658  0.6554  1.9436 -0.4092
   25SAPC     N 3249   1.659   0.755   6.277  0.2943  0.4384 -0.4620
   25SAPC   C12 3250   1.729   0.627   6.226  0.1979  0.5550  0.1564
   25SAPC  H12A 3251   1.796   0.666   6.152 -3.0561  0.3159 -3.2010
   25SAPC  H12B 3252   1.649   0.567   6.185 -2.5383  2.6328  2.0748
   25SAPC   C13 3253   1.575   0.820   6.172  0.3888 -0.5315  0.3286
   25SAPC  H13A 3254   1.532   0.909   6.216 -0.2149 -0.0479 -1.1609
   25SAPC  H13B 3255   1.626   0.852   6.082 -0.2858  1.3388  0.5689
   25SAPC  H13C 3256   1.495   0.752   6.147  0.8922 -1.0681  0.1593
   25SAPC   C14 3257   1.587   0.723   6.405 -0.3238 -0.5469 -0.1449
   25SAPC  H14A 3258   1.525   0.807   6.433  0.8559  0.3497 -0.1258
   25SAPC  H14B 3259   1.526   0.636   6.390  2.6755 -2.5046 -1.8657
   25SAPC  H14C 3260   1.656   0.708   6.487 -1.2034  0.5748  0.8363
   25SAPC   C15 3261   1.768   0.858   6.306 -0.4563 -0.4573 -0.1837
   25SAPC  H15A 3262   1.725   0.950   6.343 -0.2233 -0.3612 -0.1488
   25SAPC  H15B 3263   1.833   0.818   6.383  0.1632 -2.1454 -1.5346
   25SAPC  H15C 3264   1.835   0.870   6.222 -1.9673  0.4005 -1.3177
   25SAPC   C11 3265   1.806   0.541   6.327  0.2069  0.1375 -0.4843
   25SAPC  H11A 3266   1.824   0.441   6.281 -0.7331 -1.0674  1.6310
   25SAPC  H11B 3267   1.745   0.507   6.413 -0.8288 -1.8424 -1.9132
   25SAPC     P 3268   2.051   0.607   6.283  0.0219 -0.4590  0.3634
   25SAPC   O13 3269   2.027   0.662   6.144  0.0831 -0.2203  0.0635
   25SAPC   O14 3270   2.164   0.672   6.361  0.3962  0.4736  0.2312
   25SAPC   O12 3271   1.921   0.614   6.363  0.2528 -0.0617 -0.3121
   25SAPC   O11 3272   2.083   0.459   6.273  0.2090  0.0214 -0.2066
   25SAPC    C1 3273   2.207   0.401   6.317  0.4520  0.5281  0.1035
   25SAPC    HA 3274   2.286   0.428   6.244  0.2475 -0.1909 -0.4036
   25SAPC    HB 3275   2.232   0.447   6.415 -1.4569  1.4121  0.2122
   25SAPC    C2 3276   2.195   0.244   6.313 -0.2545 -0.6352  0.1061
   25SAPC    HS 3277   2.148   0.203   6.221 -0.0041 -2.5049  0.7650
   25SAPC   O21 3278   2.123   0.207   6.428  0.5389 -0.2854 -0.2274
   25SAPC   C21 3279   1.993   0.182   6.417 -0.4240  0.1891  0.3513
   25SAPC   O22 3280   1.926   0.173   6.318 -0.0905 -0.0756 -0.0485
   25SAPC   C22 3281   1.943   0.156   6.561  0.4983  0.4529  0.0504
   25SAPC   H2R 3282   1.927   0.046   6.564 -1.2026  0.5585 -2.2309
   25SAPC   H2S 3283   2.014   0.192   6.638  1.8490 -0.0994 -0.8993
   25SAPC    C3 3284   2.334   0.180   6.311  0.8610  0.6261  0.0528
   25SAPC    HX 3285   2.394   0.226   6.231  0.7811 -0.0796 -0.4210
   25SAPC    HY 3286   2.322   0.075   6.277 -1.1248  0.9919 -0.5079
   25SAPC   O31 3287   2.411   0.202   6.426 -0.3213  0.0925  0.4046
   25SAPC   C31 3288   2.397   0.127   6.532  0.2078  0.2060  0.9641
   25SAPC   O32 3289   2.319   0.035   6.540 -0.0331 -0.0796 -0.0004
   25SAPC   C32 3290   2.488   0.157   6.646  0.2421 -0.4734  0.5562
   25SAPC   H2X 3291   2.519   0.263   6.654 -1.5110  0.1215 -0.1064
   25SAPC   H2Y 3292   2.582   0.100   6.626 -0.2190 -0.3736 -2.3605
   25SAPC   C23 3293   1.805   0.229   6.583 -0.1004  0.3322 -0.3877
   25SAPC   H3R 3294   1.734   0.174   6.518 -0.8169  0.4107  0.3115
   25SAPC   H3S 3295   1.811   0.338   6.561 -1.8249  1.1219  2.5008
   25SAPC   C24 3296   1.764   0.197   6.725  0.0080 -0.1462 -0.0998
   25SAPC   H4R 3297   1.693   0.275   6.760 -0.1928  0.0983 -1.0389
   25SAPC   H4S 3298   1.853   0.225   6.787  0.4403 -0.1594 -0.7091
   25SAPC   C25 3299   1.714   0.061   6.760  0.1226  0.1114 -0.0477
   25SAPC   H5R 3300   1.635   0.013   6.699 -0.1623  0.0492  0.3617
   25SAPC   C26 3301   1.754   0.001   6.876 -0.1390  0.2132 -0.4392
   25SAPC   H6R 3302   1.698  -0.090   6.902 -2.1472  1.2327 -0.9685
   25SAPC   C27 3303   1.860   0.060   6.972  0.9913  0.3227 -0.4634
   25SAPC   H7R 3304   1.827   0.029   7.073 -0.6647  2.8736 -0.1242
   25SAPC   H7S 3305   1.848   0.170   6.970 -1.5646  0.1175 -1.6275
   25SAPC   C28 3306   1.997   0.013   6.932  0.1634 -0.3251 -0.1963
   25SAPC   H8R 3307   1.998   0.014   6.822  0.3821 -4.3106 -0.3814
   25SAPC   C29 3308   2.100  -0.025   7.011 -0.0905  0.1620  0.0400
   25SAPC   H9R 3309   2.186  -0.073   6.962 -0.7160 -1.7222  0.6880
   25SAPC  C210 3310   2.101  -0.046   7.162  0.8527 -0.3908  0.3728
   25SAPC  H10R 3311   2.073   0.047   7.217  1.3576 -0.4167  0.6824
   25SAPC  H10S 3312   2.207  -0.055   7.193  0.6938 -1.9169  0.5617
   25SAPC  C211 3313   2.023  -0.167   7.216 -0.0223 -0.2982  0.2378
   25SAPC  H11R 3314   2.064  -0.258   7.171 -0.7090  1.7096 -5.2484
   25SAPC  C212 3315   1.926  -0.166   7.312  0.3127 -0.4161 -0.2288
   25SAPC  H12R 3316   1.895  -0.267   7.342  0.1514 -0.3609 -0.2080
   25SAPC  C213 3317   1.863  -0.054   7.378 -0.2575 -0.0706 -0.6549
   25SAPC  H13R 3318   1.858   0.036   7.314 -0.4684  1.5674  1.5590
   25SAPC  H13S 3319   1.916  -0.023   7.471 -0.9766 -0.0445 -0.2485
   25SAPC  C214 3320   1.716  -0.080   7.404 -0.1145 -0.1944  0.1489
   25SAPC  H14R 3321   1.652  -0.058   7.317 -0.5760  0.4889  0.6506
   25SAPC  C215 3322   1.657  -0.117   7.517  0.6668  0.0709 -0.3108
   25SAPC  H15R 3323   1.548  -0.125   7.520  0.7536 -1.1222  0.1799
   25SAPC  C216 3324   1.718  -0.133   7.651 -0.0365  0.1379  0.0702
   25SAPC  H16R 3325   1.829  -0.126   7.641  0.0802 -0.3636  0.8928
   25SAPC  H16S 3326   1.679  -0.229   7.690 -0.1893  0.4437  0.6736
   25SAPC  C217 3327   1.671  -0.036   7.754  0.1463 -0.3859  0.0579
   25SAPC  H17R 3328   1.702   0.067   7.729  2.2782 -0.3750  2.4319
   25SAPC  H17S 3329   1.732  -0.054   7.844 -0.1061  1.3896  0.6150
   25SAPC  C218 3330   1.529  -0.043   7.800 -0.0861  0.8100  0.3239
   25SAPC  H18R 3331   1.505  -0.151   7.783  0.8188  0.3303  1.9523
   25SAPC  H18S 3332   1.455   0.008   7.734  0.7846  0.1901 -1.1864
   25SAPC  C219 3333   1.508  -0.006   7.951  0.6476  0.3667  0.6232
   25SAPC  H19R 3334   1.400  -0.026   7.971  0.3590  1.3126  0.0417
   25SAPC  H19S 3335   1.523   0.104   7.961  0.2381  0.3529  1.5527
   25SAPC  C220 3336   1.596  -0.075   8.049  0.0233  0.5229 -0.0421
   25SAPC  H20R 3337   1.696  -0.027   8.042 -0.2101  1.1425  0.7588
   25SAPC  H20S 3338   1.594  -0.185   8.033  0.1502  0.2026  1.9366
   25SAPC  H20T 3339   1.553  -0.065   8.151 -1.3295 -0.5708 -0.4781
   25SAPC   C33 3340   2.436   0.096   6.778  0.1835 -0.1431  0.0976
   25SAPC   H3X 3341   2.437  -0.015   6.784 -1.7342 -0.1610  0.7254
   25SAPC   H3Y 3342   2.332   0.131   6.794 -0.1474 -1.3225  0.6722
   25SAPC   C34 3343   2.504   0.145   6.905  0.1608 -0.1722 -0.0393
   25SAPC   H4X 3344   2.452   0.239   6.935 -0.1922  0.0948 -1.3957
   25SAPC   H4Y 3345   2.609   0.169   6.876 -0.1170 -0.6446 -1.5627
   25SAPC   C35 3346   2.512   0.030   7.013  0.6440 -0.1706  0.7434
   25SAPC   H5X 3347   2.567  -0.057   6.971 -1.1197 -1.4346  0.9292
   25SAPC   H5Y 3348   2.410  -0.012   7.032  0.7825 -0.0986  1.6550
   25SAPC   C36 3349   2.587   0.082   7.140  0.7217 -0.3229  0.4356
   25SAPC   H6X 3350   2.683   0.133   7.115 -0.7495  1.8615 -1.1688
   25SAPC   H6Y 3351   2.619  -0.004   7.201 -0.0955 -0.2139  1.0322
   25SAPC   C37 3352   2.487   0.156   7.235 -0.4694 -0.3510  0.1289
   25SAPC   H7X 3353   2.423   0.078   7.283  1.3561  0.0292  3.4785
   25SAPC   H7Y 3354   2.427   0.230   7.178 -1.3003 -0.9735  0.1605
   25SAPC   C38 3355   2.564   0.228   7.338 -0.1237 -0.6841 -0.5770
   25SAPC   H8X 3356   2.633   0.300   7.290  0.7787 -0.6148  0.8009
   25SAPC   H8Y 3357   2.616   0.153   7.402  0.0473 -1.4190 -1.5494
   25SAPC   C39 3358   2.472   0.322   7.432 -0.8024  0.4348  0.8350
   25SAPC   H9X 3359   2.378   0.269   7.460 -0.6042 -0.3025  0.1388
   25SAPC   H9Y 3360   2.439   0.404   7.365  0.2436  1.0444  1.0398
   25SAPC  C310 3361   2.540   0.382   7.559 -0.0002 -0.5866  0.3788
   25SAPC  H10X 3362   2.624   0.438   7.511  0.0900 -0.1155  1.0798
   25SAPC  H10Y 3363   2.574   0.307   7.634 -1.7518  0.3045  2.1211
   25SAPC  C311 3364   2.449   0.480   7.628  0.5081 -0.0973  0.3158
   25SAPC  H11X 3365   2.371   0.410   7.665  1.6996 -2.0894 -0.7067
   25SAPC  H11Y 3366   2.413   0.559   7.559  1.0366  0.2799  0.4703
   25SAPC  C312 3367   2.519   0.549   7.747 -0.4422 -0.4410  0.3432
   25SAPC  H12X 3368   2.608   0.611   7.723  1.5955 -1.7571  3.7763
   25SAPC  H12Y 3369   2.561   0.468   7.810  3.2297 -0.5722 -1.9578
   25SAPC  C313 3370   2.413   0.636   7.822  1.0295 -0.9047 -0.3229
   25SAPC  H13X 3371   2.365   0.708   7.753 -1.0095 -1.6712  0.1998
   25SAPC  H13Y 3372   2.464   0.691   7.903  2.9388 -1.8525 -0.8364
   25SAPC  C314 3373   2.300   0.556   7.893  0.1332  0.2186  0.3050
   25SAPC  H14X 3374   2.336   0.480   7.965  0.9098 -1.4580 -1.7473
   25SAPC  H14Y 3375   2.243   0.508   7.809  1.2645 -0.0901 -0.3025
   25SAPC  C315 3376   2.208   0.643   7.974  0.2787  0.1878 -0.2541
   25SAPC  H15X 3377   2.167   0.727   7.915 -0.6299  1.1476  1.6484
   25SAPC  H15Y 3378   2.262   0.701   8.053 -0.3831  0.9665 -0.3656
   25SAPC  C316 3379   2.102   0.557   8.046 -0.1186 -0.8170  0.0802
   25SAPC  H16X 3380   2.157   0.478   8.102  1.4028 -0.0317 -0.2584
   25SAPC  H16Y 3381   2.034   0.501   7.979  0.3602 -1.0892 -0.1844
   25SAPC  C317 3382   2.017   0.647   8.147  0.9330  0.2530  0.0791
   25SAPC  H17X 3383   1.986   0.739   8.093  1.6254  0.7219  0.4655
   25SAPC  H17Y 3384   2.087   0.687   8.224  2.1506  4.5292 -2.9120
   25SAPC  C318 3385   1.902   0.570   8.201  0.1702 -0.9394 -0.9636
   25SAPC  H18X 3386   1.940   0.480   8.253 -0.0135 -0.6591 -0.3320
   25SAPC  H18Y 3387   1.836   0.540   8.117 -2.1925  0.6389  0.1942
   25SAPC  H18Z 3388   1.836   0.636   8.262  1.8809 -0.4573  0.4288
   26SAPC     N 3389   1.761   2.076   5.998  0.6354  0.2201 -0.9537
   26SAPC   C12 3390   1.760   2.091   6.154 -0.5605  1.1723  0.6561
   26SAPC  H12A 3391   1.860   2.075   6.193 -0.7159 -0.4511  0.4817
   26SAPC  H12B 3392   1.694   2.014   6.191 -1.8480  2.6501  1.5253
   26SAPC   C13 3393   1.875   2.152   5.947 -0.1430 -0.9318 -0.4397
   26SAPC  H13A 3394   1.963   2.149   6.011  2.0776  1.2234 -3.1203
   26SAPC  H13B 3395   1.904   2.123   5.847  1.2681  0.3653 -0.4400
   26SAPC  H13C 3396   1.848   2.256   5.940  0.9613 -0.7374 -2.2365
   26SAPC   C14 3397   1.771   1.930   5.959  0.0726  0.2175  0.1876
   26SAPC  H14A 3398   1.872   1.894   5.972  0.0933 -0.8785 -2.3375
   26SAPC  H14B 3399   1.708   1.863   6.015 -1.3322 -0.0805 -1.6590
   26SAPC  H14C 3400   1.751   1.897   5.858 -1.1526 -0.2576  0.5763
   26SAPC   C15 3401   1.637   2.129   5.930  0.1630 -0.0914  0.2281
   26SAPC  H15A 3402   1.663   2.157   5.829  1.1015 -0.6622  0.3015
   26SAPC  H15B 3403   1.544   2.075   5.932  0.2555 -0.2706 -0.2266
   26SAPC  H15C 3404   1.615   2.228   5.969  0.6075 -0.5015  1.6076
   26SAPC   C11 3405   1.693   2.217   6.212 -0.0311 -0.2889  0.0206
   26SAPC  H11A 3406   1.677   2.216   6.322  1.0140  0.2451  0.1959
   26SAPC  H11B 3407   1.588   2.217   6.176 -1.0170 -1.4764  2.6910
   26SAPC     P 3408   1.682   2.467   6.154 -0.2948  0.3215  0.0292
   26SAPC   O13 3409   1.784   2.569   6.124  0.5433  0.1239  0.4518
   26SAPC   O14 3410   1.573   2.451   6.057  0.9914 -0.1487 -0.0508
   26SAPC   O12 3411   1.767   2.334   6.172  0.4049 -0.0489  0.1323
   26SAPC   O11 3412   1.620   2.499   6.298 -0.0690 -0.1077 -0.2878
   26SAPC    C1 3413   1.707   2.516   6.411  0.4464 -0.8448  0.0424
   26SAPC    HA 3414   1.664   2.471   6.503 -0.2919  0.2126  0.2308
   26SAPC    HB 3415   1.799   2.457   6.391  1.2898  0.5129 -0.2154
   26SAPC    C2 3416   1.740   2.664   6.463  0.0915 -0.1686  0.1482
   26SAPC    HS 3417   1.772   2.720   6.372 -3.5399 -0.2049 -1.3336
   26SAPC   O21 3418   1.841   2.652   6.566 -0.2436  0.1095 -0.0905
   26SAPC   C21 3419   1.892   2.769   6.598 -0.3204  0.5610  0.1853
   26SAPC   O22 3420   1.871   2.874   6.540 -0.7033 -0.0673  0.2578
   26SAPC   C22 3421   1.997   2.760   6.710  0.4617 -0.5112 -0.1041
   26SAPC   H2R 3422   2.063   2.850   6.710 -1.8595  1.3269 -1.7098
   26SAPC   H2S 3423   1.934   2.788   6.797 -0.1484  2.6400 -1.4244
   26SAPC    C3 3424   1.603   2.738   6.516 -0.1751 -0.0473  0.1302
   26SAPC    HX 3425   1.527   2.727   6.436 -2.0588 -0.6265  1.8967
   26SAPC    HY 3426   1.627   2.846   6.528 -4.0378  0.7599  2.3022
   26SAPC   O31 3427   1.548   2.662   6.626  0.1940 -0.4895  0.0991
   26SAPC   C31 3428   1.600   2.666   6.744  0.3241  1.3160 -0.3560
   26SAPC   O32 3429   1.688   2.737   6.787  0.9822 -0.2411 -0.1901
   26SAPC   C32 3430   1.543   2.555   6.829  0.1987  0.1219  0.3158
   26SAPC   H2X 3431   1.530   2.466   6.763 -0.4888  0.6709 -0.3092
   26SAPC   H2Y 3432   1.436   2.575   6.852  0.2754  1.2027 -0.2182
   26SAPC   C23 3433   2.068   2.625   6.744  0.2328  0.0749  0.3076
   26SAPC   H3R 3434   2.127   2.598   6.655  0.4092  1.2141  0.0620
   26SAPC   H3S 3435   1.984   2.553   6.749  0.4324 -0.0721  2.5190
   26SAPC   C24 3436   2.164   2.633   6.864 -0.0515 -0.3112 -0.1520
   26SAPC   H4R 3437   2.093   2.656   6.947 -0.3179  1.5125 -0.8335
   26SAPC   H4S 3438   2.227   2.725   6.867 -1.9787  1.0559  2.0083
   26SAPC   C25 3439   2.225   2.501   6.887 -0.2172 -0.6194 -0.4591
   26SAPC   H5R 3440   2.255   2.448   6.796 -0.6715  0.7783 -1.4555
   26SAPC   C26 3441   2.235   2.444   7.012  0.4105  0.0550  0.1347
   26SAPC   H6R 3442   2.275   2.342   7.018 -2.0790 -1.0746 -0.8924
   26SAPC   C27 3443   2.196   2.504   7.148  0.1421  0.0731  0.6590
   26SAPC   H7R 3444   2.228   2.610   7.161 -1.4558  0.6751 -0.0710
   26SAPC   H7S 3445   2.252   2.439   7.219  1.4709  0.4139 -0.0448
   26SAPC   C28 3446   2.053   2.501   7.181  0.3074 -0.2985  0.0221
   26SAPC   H8R 3447   1.978   2.487   7.102  0.3443  1.8616 -0.4570
   26SAPC   C29 3448   2.006   2.536   7.305  0.3276 -0.6568  0.5159
   26SAPC   H9R 3449   1.897   2.538   7.320 -0.0697 -0.1227 -2.0436
   26SAPC  C210 3450   2.092   2.585   7.421 -0.5155  0.0809 -0.5551
   26SAPC  H10R 3451   2.041   2.655   7.491  2.0274  0.8892  0.6454
   26SAPC  H10S 3452   2.178   2.643   7.381  1.0729 -1.1214  0.8955
   26SAPC  C211 3453   2.154   2.469   7.497  0.5604  0.3595 -0.0553
   26SAPC  H11R 3454   2.208   2.396   7.435 -1.9255  0.0931 -2.0877
   26SAPC  C212 3455   2.145   2.449   7.630 -0.3045  0.1530  0.0940
   26SAPC  H12R 3456   2.190   2.357   7.670 -0.8080 -0.2526 -0.2524
   26SAPC  C213 3457   2.103   2.545   7.734  0.1438  0.7727  0.1072
   26SAPC  H13R 3458   2.149   2.642   7.704  0.3885  0.0564 -2.0275
   26SAPC  H13S 3459   2.143   2.510   7.832  3.4858 -0.6022 -1.5739
   26SAPC  C214 3460   1.955   2.569   7.751 -0.6480 -0.1111 -0.2352
   26SAPC  H14R 3461   1.905   2.646   7.689  0.7251 -1.1318 -2.7509
   26SAPC  C215 3462   1.882   2.519   7.849 -0.3155 -0.2012 -0.7064
   26SAPC  H15R 3463   1.776   2.547   7.862  0.3736  2.1810  0.3842
   26SAPC  C216 3464   1.919   2.427   7.970 -0.2311  0.3869  0.1176
   26SAPC  H16R 3465   2.017   2.382   7.943 -2.0580 -2.2659 -2.5899
   26SAPC  H16S 3466   1.848   2.341   7.974 -0.6358  0.7573  1.6672
   26SAPC  C217 3467   1.912   2.497   8.106 -0.6651  0.2172  0.8564
   26SAPC  H17R 3468   1.813   2.547   8.112 -0.7083  0.8772 -2.8679
   26SAPC  H17S 3469   1.991   2.575   8.112 -0.2302 -0.1972  0.6234
   26SAPC  C218 3470   1.944   2.406   8.223  0.4982  0.3586 -0.2279
   26SAPC  H18R 3471   1.889   2.310   8.213  2.2335 -0.5481 -1.7548
   26SAPC  H18S 3472   1.910   2.449   8.320 -1.3054  3.2918 -2.0025
   26SAPC  C219 3473   2.091   2.371   8.241  0.2688  0.0153 -0.4174
   26SAPC  H19R 3474   2.154   2.460   8.216  0.4113 -0.4974 -2.0084
   26SAPC  H19S 3475   2.112   2.305   8.154  3.8092 -0.9522  1.0112
   26SAPC  C220 3476   2.132   2.297   8.371 -0.6516  0.2290  0.2129
   26SAPC  H20R 3477   2.161   2.374   8.445 -1.4120  1.8086 -1.0529
   26SAPC  H20S 3478   2.216   2.227   8.353 -1.5934 -1.5040  2.2950
   26SAPC  H20T 3479   2.040   2.244   8.404 -0.2315  0.6087  2.0904
   26SAPC   C33 3480   1.619   2.526   6.962 -1.0362  0.5008  0.2014
   26SAPC   H3X 3481   1.728   2.538   6.948 -0.7761 -1.1178  0.6826
   26SAPC   H3Y 3482   1.600   2.421   6.992 -1.6991 -0.4374 -3.1638
   26SAPC   C34 3483   1.574   2.621   7.067 -0.1390 -0.2669 -0.0039
   26SAPC   H4X 3484   1.471   2.600   7.104 -0.4828  0.0923 -0.7429
   26SAPC   H4Y 3485   1.586   2.727   7.037  0.5907  0.8023  3.5563
   26SAPC   C35 3486   1.674   2.604   7.184 -0.5133 -0.3454  0.2505
   26SAPC   H5X 3487   1.776   2.632   7.153 -0.5717 -1.4823 -1.0642
   26SAPC   H5Y 3488   1.698   2.501   7.217  0.7207 -0.1326  0.0596
   26SAPC   C36 3489   1.632   2.698   7.300 -0.3595 -0.4186  0.1659
   26SAPC   H6X 3490   1.714   2.680   7.373 -0.4387 -2.7789 -0.2541
   26SAPC   H6Y 3491   1.531   2.675   7.340 -0.6693  0.8144  0.1347
   26SAPC   C37 3492   1.632   2.851   7.272 -0.1015 -0.0596  0.0252
   26SAPC   H7X 3493   1.544   2.858   7.205 -0.4195  0.6593  0.5065
   26SAPC   H7Y 3494   1.728   2.883   7.226 -0.8806 -0.6390 -2.1353
   26SAPC   C38 3495   1.608   2.948   7.392  0.1528 -0.6854 -0.2179
   26SAPC   H8X 3496   1.500   2.964   7.413  0.0028  0.9191 -1.9382
   26SAPC   H8Y 3497   1.660   3.040   7.356  0.0945 -1.0791 -1.3301
   26SAPC   C39 3498   1.666   2.909   7.523 -0.4821 -0.3887  0.7328
   26SAPC   H9X 3499   1.772   2.944   7.531 -1.2141  2.0528  0.6631
   26SAPC   H9Y 3500   1.661   2.800   7.545 -0.8795 -0.3800  0.6886
   26SAPC  C310 3501   1.600   2.969   7.647  0.4584 -0.2689 -0.2588
   26SAPC  H10X 3502   1.500   2.922   7.653 -0.3086  1.3984  0.4386
   26SAPC  H10Y 3503   1.578   3.077   7.634  0.3545 -0.2542  0.0283
   26SAPC  C311 3504   1.681   2.949   7.772 -0.0109  0.3077  0.4065
   26SAPC  H11X 3505   1.779   3.001   7.764 -0.9373  1.9245 -1.8898
   26SAPC  H11Y 3506   1.704   2.842   7.789 -1.0695 -0.4743 -2.4181
   26SAPC  C312 3507   1.609   3.010   7.892 -0.1678 -0.9989  0.3759
   26SAPC  H12X 3508   1.526   2.940   7.914 -1.0871 -0.9601 -2.5708
   26SAPC  H12Y 3509   1.581   3.116   7.872  3.2347  0.0848  0.6658
   26SAPC  C313 3510   1.715   3.028   8.005  0.3521  0.2387  0.3205
   26SAPC  H13X 3511   1.807   3.078   7.966  0.6462 -0.4935  0.0547
   26SAPC  H13Y 3512   1.746   2.925   8.034  0.2854  0.9733  3.3433
   26SAPC  C314 3513   1.662   3.110   8.125 -0.5296 -0.6026 -0.6341
   26SAPC  H14X 3514   1.637   3.215   8.101  0.9035  0.9917  3.8996
   26SAPC  H14Y 3515   1.750   3.123   8.191  0.3547 -0.1296 -1.8610
   26SAPC  C315 3516   1.535   3.052   8.188 -0.2083  0.1928 -0.3060
   26SAPC  H15X 3517   1.557   2.945   8.202  2.6928  0.5628 -1.3852
   26SAPC  H15Y 3518   1.460   3.068   8.107 -1.5721  0.2329  0.9267
   26SAPC  C316 3519   1.495   3.112   8.320  0.3880  0.0268 -0.8538
   26SAPC  H16X 3520   1.489   3.223   8.321  0.2761  0.0782  2.2857
   26SAPC  H16Y 3521   1.575   3.091   8.395  1.5055 -0.7937 -2.2358
   26SAPC  C317 3522   1.359   3.069   8.374  0.3801 -0.1218  0.3620
   26SAPC  H17X 3523   1.366   2.964   8.408 -1.2623 -0.1030  0.8390
   26SAPC  H17Y 3524   1.280   3.061   8.296  0.4647  0.3489  0.2199
   26SAPC  C318 3525   1.304   3.152   8.486 -0.6997 -0.4428 -0.0972
   26SAPC  H18X 3526   1.353   3.147   8.586 -2.0137 -2.1020  0.5028
   26SAPC  H18Y 3527   1.196   3.136   8.509 -0.6163 -0.3441  0.3713
   26SAPC  H18Z 3528   1.303   3.258   8.452 -0.8432  0.1619  1.6636
   27SAPC     N 3529   6.243   2.014   6.331 -1.0845 -0.9306  0.2458
   27SAPC   C12 3530   6.181   1.968   6.461  0.1710  0.5030  0.0619
   27SAPC  H12A 3531   6.097   1.906   6.432 -1.2818  2.4121  0.0719
   27SAPC  H12B 3532   6.148   2.055   6.515  1.1072  0.5118  0.6486
   27SAPC   C13 3533   6.359   2.113   6.349  0.2974  0.2317 -0.9615
   27SAPC  H13A 3534   6.326   2.184   6.423 -0.3257 -0.3889 -0.6331
   27SAPC  H13B 3535   6.455   2.071   6.377  0.0820  0.4243  0.1070
   27SAPC  H13C 3536   6.379   2.162   6.255  2.1566 -0.0230 -0.7487
   27SAPC   C14 3537   6.286   1.904   6.243  0.1584 -0.3220  0.1682
   27SAPC  H14A 3538   6.216   1.852   6.179  1.7981 -0.5563 -1.5366
   27SAPC  H14B 3539   6.373   1.928   6.183 -0.9053  0.4451 -1.1145
   27SAPC  H14C 3540   6.337   1.826   6.298 -0.6696 -0.6122  0.5350
   27SAPC   C15 3541   6.138   2.089   6.251 -0.1471  0.4205 -0.6037
   27SAPC  H15A 3542   6.130   2.187   6.294  0.5727  0.3009 -0.1661
   27SAPC  H15B 3543   6.187   2.116   6.159 -0.1626 -0.9674 -1.0413
   27SAPC  H15C 3544   6.045   2.038   6.232 -0.1129  0.2699 -0.3816
   27SAPC   C11 3545   6.275   1.900   6.558  0.4669 -0.2271  0.3724
   27SAPC  H11A 3546   6.208   1.884   6.644  0.4437 -0.3768  0.3271
   27SAPC  H11B 3547   6.352   1.968   6.599 -0.8399  0.4780  1.7349
   27SAPC     P 3548   6.252   1.634   6.528 -0.1701 -0.0233  0.1287
   27SAPC   O13 3549   6.108   1.657   6.535  0.5370 -0.6219  0.2424
   27SAPC   O14 3550   6.303   1.535   6.425  0.1489  0.6293 -0.3061
   27SAPC   O12 3551   6.323   1.778   6.502  0.8964  0.4261 -0.0859
   27SAPC   O11 3552   6.309   1.598   6.676 -0.2372 -0.0851 -0.2624
   27SAPC    C1 3553   6.449   1.557   6.687  0.7574 -0.1016  0.1218
   27SAPC    HA 3554   6.475   1.464   6.633 -0.7171 -0.2843 -0.3416
   27SAPC    HB 3555   6.509   1.640   6.645 -1.5540  0.9697 -1.2679
   27SAPC    C2 3556   6.489   1.544   6.841  0.6966  0.2457 -0.2710
   27SAPC    HS 3557   6.598   1.523   6.852  0.6961  0.8234  0.9835
   27SAPC   O21 3558   6.403   1.441   6.906 -0.3048  0.2514  0.0163
   27SAPC   C21 3559   6.427   1.317   6.877 -0.2456 -0.7383 -0.7080
   27SAPC   O22 3560   6.507   1.279   6.794 -0.1500 -0.8737 -0.3400
   27SAPC   C22 3561   6.338   1.223   6.953  0.5214  0.8075 -0.7082
   27SAPC   H2R 3562   6.286   1.284   7.029  1.9726  1.5094 -0.2431
   27SAPC   H2S 3563   6.268   1.178   6.878  0.6165  1.6543 -1.3168
   27SAPC    C3 3564   6.456   1.673   6.921  0.0938  0.0558 -0.2680
   27SAPC    HX 3565   6.346   1.672   6.905  0.0736  0.3944 -0.1477
   27SAPC    HY 3566   6.506   1.755   6.865  0.2650 -1.6890 -2.8420
   27SAPC   O31 3567   6.489   1.683   7.061  0.0150  0.0961 -0.1311
   27SAPC   C31 3568   6.420   1.779   7.131 -1.1082  0.0711  0.0319
   27SAPC   O32 3569   6.333   1.849   7.082  0.0304 -0.0492  0.4763
   27SAPC   C32 3570   6.468   1.789   7.277 -0.5494 -0.5420  0.4807
   27SAPC   H2X 3571   6.430   1.885   7.318 -3.3982 -1.5015  0.2713
   27SAPC   H2Y 3572   6.579   1.777   7.284 -0.0506  1.0497 -2.8130
   27SAPC   C23 3573   6.422   1.110   7.011 -0.2009 -0.1778  0.1697
   27SAPC   H3R 3574   6.500   1.067   6.944  0.7952  0.2075  1.0580
   27SAPC   H3S 3575   6.367   1.023   7.051  1.7550 -1.9450 -0.7616
   27SAPC   C24 3576   6.516   1.157   7.126 -0.1595  0.7161  0.7385
   27SAPC   H4R 3577   6.576   1.242   7.088  0.9037 -0.5997 -0.6245
   27SAPC   H4S 3578   6.589   1.076   7.150 -1.1176 -0.4906 -0.2734
   27SAPC   C25 3579   6.440   1.202   7.251  0.0272  0.1771 -0.2435
   27SAPC   H5R 3580   6.366   1.283   7.243 -2.2206 -1.4798  2.0085
   27SAPC   C26 3581   6.446   1.159   7.380  0.0426  0.1676 -0.1218
   27SAPC   H6R 3582   6.386   1.211   7.456 -0.0178 -1.5898  1.1008
   27SAPC   C27 3583   6.529   1.041   7.427  0.0047  0.4874  0.0550
   27SAPC   H7R 3584   6.611   1.065   7.499 -0.0687 -1.6558  0.9323
   27SAPC   H7S 3585   6.590   1.004   7.342 -0.9781 -3.8399  1.0166
   27SAPC   C28 3586   6.444   0.919   7.464  0.1352 -0.2086 -0.0139
   27SAPC   H8R 3587   6.372   0.895   7.385 -0.1548  2.5678 -0.7145
   27SAPC   C29 3588   6.440   0.874   7.593 -0.3267  0.6722  0.3348
   27SAPC   H9R 3589   6.374   0.790   7.619 -1.0416  1.2320  0.3574
   27SAPC  C210 3590   6.526   0.922   7.711 -0.1447  0.4218  0.5669
   27SAPC  H10R 3591   6.621   0.965   7.673 -0.9846 -0.4721 -2.8712
   27SAPC  H10S 3592   6.567   0.836   7.768  0.9849 -1.8112 -3.3198
   27SAPC  C211 3593   6.463   1.014   7.805 -0.5702  0.5858 -0.2627
   27SAPC  H11R 3594   6.458   1.116   7.765 -0.1039 -0.0377 -1.9859
   27SAPC  C212 3595   6.417   0.987   7.930 -0.2837  0.0648  0.3434
   27SAPC  H12R 3596   6.379   1.062   8.001 -0.3269 -1.2230  1.7307
   27SAPC  C213 3597   6.421   0.846   7.986  0.2422  0.8549 -1.2718
   27SAPC  H13R 3598   6.529   0.825   7.997 -0.4383 -3.6620 -1.4107
   27SAPC  H13S 3599   6.380   0.767   7.920  1.5307 -0.9801  0.0533
   27SAPC  C214 3600   6.346   0.851   8.121  0.7981 -0.0059 -0.7931
   27SAPC  H14R 3601   6.241   0.877   8.103  0.6303 -0.5571 -0.6380
   27SAPC  C215 3602   6.376   0.805   8.246  0.0277 -0.0402 -0.0547
   27SAPC  H15R 3603   6.306   0.829   8.328 -0.0251  0.2680 -0.1870
   27SAPC  C216 3604   6.501   0.734   8.282  0.4764 -0.2249  0.1761
   27SAPC  H16R 3605   6.569   0.805   8.332 -1.2677  0.4441  1.7019
   27SAPC  H16S 3606   6.554   0.689   8.195  0.7623 -0.4027  0.4381
   27SAPC  C217 3607   6.482   0.614   8.376  0.2367  0.2806 -0.1549
   27SAPC  H17R 3608   6.432   0.651   8.468 -0.4726  0.3967 -0.5790
   27SAPC  H17S 3609   6.577   0.572   8.415 -0.4994 -1.2140  0.1168
   27SAPC  C218 3610   6.392   0.509   8.316  0.8064  0.2450 -0.4571
   27SAPC  H18R 3611   6.455   0.465   8.236 -1.2428 -0.6763 -1.6235
   27SAPC  H18S 3612   6.298   0.551   8.276  2.2442  3.5997 -0.7116
   27SAPC  C219 3613   6.357   0.397   8.420  0.6931  0.6422 -0.2183
   27SAPC  H19R 3614   6.306   0.437   8.510 -2.3300 -1.6077 -0.7818
   27SAPC  H19S 3615   6.458   0.360   8.447  0.4936 -1.4511 -2.0477
   27SAPC  C220 3616   6.284   0.280   8.355 -0.3182  0.0829  0.2850
   27SAPC  H20R 3617   6.270   0.193   8.422  1.7274 -1.3444 -1.0187
   27SAPC  H20S 3618   6.344   0.247   8.268  0.2623 -1.6143  1.2909
   27SAPC  H20T 3619   6.197   0.331   8.308  0.9962  0.3556 -1.9958
   27SAPC   C33 3620   6.418   1.670   7.355  0.2847  0.1090 -0.2967
   27SAPC   H3X 3621   6.459   1.582   7.302 -0.7140 -0.1054 -0.7246
   27SAPC   H3Y 3622   6.308   1.662   7.363  0.2784  0.2107 -0.2701
   27SAPC   C34 3623   6.480   1.671   7.493 -0.0864  0.4904 -0.0403
   27SAPC   H4X 3624   6.468   1.778   7.520  1.2428  1.2684 -2.2831
   27SAPC   H4Y 3625   6.591   1.665   7.495 -0.0947 -0.6147  3.4134
   27SAPC   C35 3626   6.422   1.578   7.592  0.0753 -0.1985  0.2455
   27SAPC   H5X 3627   6.423   1.470   7.566 -0.5368 -0.0843 -0.2961
   27SAPC   H5Y 3628   6.319   1.603   7.626  0.4772  0.3575  1.0674
   27SAPC   C36 3629   6.504   1.586   7.725  0.0517 -0.0904 -0.2570
   27SAPC   H6X 3630   6.481   1.685   7.769 -0.4020  0.7897 -2.3532
   27SAPC   H6Y 3631   6.613   1.573   7.707  0.0608  1.5764 -1.7532
   27SAPC   C37 3632   6.449   1.478   7.826 -0.1223  0.1718  0.5046
   27SAPC   H7X 3633   6.479   1.378   7.789 -0.9097  0.0330  0.2226
   27SAPC   H7Y 3634   6.339   1.470   7.834 -0.1505 -1.9300 -1.0100
   27SAPC   C38 3635   6.514   1.494   7.967  0.7227  0.1120 -0.3219
   27SAPC   H8X 3636   6.489   1.597   8.000 -3.8932 -0.8567 -0.2027
   27SAPC   H8Y 3637   6.624   1.499   7.948  0.7619  1.0340  0.1247
   27SAPC   C39 3638   6.474   1.386   8.067 -0.0422  0.5641  0.0143
   27SAPC   H9X 3639   6.523   1.292   8.037 -1.2350 -0.9434  2.4211
   27SAPC   H9Y 3640   6.365   1.373   8.087  0.6251 -0.4693  3.8377
   27SAPC  C310 3641   6.494   1.419   8.218 -0.5325  0.6746 -0.4171
   27SAPC  H10X 3642   6.409   1.479   8.259  0.0193  1.5643 -0.5364
   27SAPC  H10Y 3643   6.584   1.483   8.232 -2.0860  2.7240  0.8754
   27SAPC  C311 3644   6.525   1.289   8.302  0.3324  0.3001  0.3669
   27SAPC  H11X 3645   6.624   1.251   8.268  0.9073 -0.7048  2.9595
   27SAPC  H11Y 3646   6.444   1.218   8.274  1.2870 -1.1453  1.1188
   27SAPC  C312 3647   6.516   1.306   8.455  0.3675 -0.1391  0.8843
   27SAPC  H12X 3648   6.412   1.309   8.493  0.4832 -0.0371  1.2001
   27SAPC  H12Y 3649   6.558   1.405   8.484 -1.1510  0.3205  1.6067
   27SAPC  C313 3650   6.593   1.199   8.532  0.5571  0.2157 -0.4341
   27SAPC  H13X 3651   6.702   1.217   8.519  0.7071  0.4026  0.9229
   27SAPC  H13Y 3652   6.564   1.103   8.484 -0.4769  0.3544 -0.1041
   27SAPC  C314 3653   6.563   1.206   8.682  0.1009 -0.4885  0.0524
   27SAPC  H14X 3654   6.452   1.214   8.684  0.2171  1.8913 -0.7846
   27SAPC  H14Y 3655   6.603   1.291   8.741  1.8168 -2.0251  1.2050
   27SAPC  C315 3656   6.618   1.083   8.768 -0.7447  0.0396  0.5029
   27SAPC  H15X 3657   6.598   1.090   8.877  0.2474  0.2955  0.6837
   27SAPC  H15Y 3658   6.728   1.094   8.755 -0.8919  0.3983 -0.5503
   27SAPC  C316 3659   6.578   0.952   8.709 -0.0076  0.2680  0.0432
   27SAPC  H16X 3660   6.641   0.944   8.618  1.8473  0.7610  1.2069
   27SAPC  H16Y 3661   6.476   0.972   8.672  0.3403 -0.3558 -1.3168
   27SAPC  C317 3662   6.586   0.830   8.808  0.2947 -0.1891 -0.0461
   27SAPC  H17X 3663   6.577   0.746   8.735 -2.2864  1.9884 -2.4938
   27SAPC  H17Y 3664   6.493   0.834   8.868 -1.0928  1.2200 -2.1465
   27SAPC  C318 3665   6.709   0.823   8.902  0.1131 -0.4363 -0.2596
   27SAPC  H18X 3666   6.714   0.732   8.966  1.8503  1.5723  2.6809
   27SAPC  H18Y 3667   6.722   0.906   8.974 -0.8742 -1.0685  0.6837
   27SAPC  H18Z 3668   6.799   0.818   8.837 -0.0690  1.3984 -0.6938
   28SAPC     N 3669   5.436   5.794   6.186  0.5352 -0.2405  0.0405
   28SAPC   C12 3670   5.561   5.720   6.162 -0.2466 -0.2263  0.4642
   28SAPC  H12A 3671   5.637   5.765   6.223 -1.0252  0.6590  0.8087
   28SAPC  H12B 3672   5.593   5.748   6.063 -1.2942 -2.0875 -0.4681
   28SAPC   C13 3673   5.470   5.937   6.185  0.6887 -0.1627  0.3096
   28SAPC  H13A 3674   5.539   5.961   6.265  1.2594 -2.3604  0.5306
   28SAPC  H13B 3675   5.499   5.970   6.086 -1.1815  2.0372  0.4271
   28SAPC  H13C 3676   5.380   5.989   6.213  0.9762  0.9709 -0.7635
   28SAPC   C14 3677   5.334   5.771   6.081  0.0666  0.3971 -0.1402
   28SAPC  H14A 3678   5.375   5.793   5.984 -3.0827 -1.9039 -2.1967
   28SAPC  H14B 3679   5.293   5.671   6.079 -1.0679  0.7696  1.7160
   28SAPC  H14C 3680   5.246   5.834   6.084  0.3597  0.7767  0.7627
   28SAPC   C15 3681   5.377   5.746   6.316 -0.2625 -0.0280 -0.0857
   28SAPC  H15A 3682   5.365   5.639   6.300  1.4672 -0.1068 -1.1357
   28SAPC  H15B 3683   5.443   5.772   6.397 -1.1172  1.6284  0.1074
   28SAPC  H15C 3684   5.280   5.791   6.326 -0.2962 -0.6464  3.8683
   28SAPC   C11 3685   5.570   5.571   6.187 -0.0357 -0.1318  0.0989
   28SAPC  H11A 3686   5.652   5.532   6.122 -0.0726 -0.0870  0.0244
   28SAPC  H11B 3687   5.478   5.519   6.153  1.6752 -1.2657 -3.2816
   28SAPC     P 3688   5.716   5.464   6.374 -0.2163  0.1051 -0.3079
   28SAPC   O13 3689   5.689   5.323   6.340 -0.1538 -1.1558 -0.2422
   28SAPC   O14 3690   5.840   5.534   6.328 -0.2318  0.2834  0.3275
   28SAPC   O12 3691   5.597   5.563   6.324 -0.0669  0.2708 -0.0226
   28SAPC   O11 3692   5.697   5.483   6.531  0.2409 -0.1779  0.0706
   28SAPC    C1 3693   5.605   5.408   6.613  1.0096 -0.0472  0.9911
   28SAPC    HA 3694   5.545   5.473   6.680 -1.3132  0.8584 -1.7259
   28SAPC    HB 3695   5.537   5.336   6.560  0.0009 -0.5243  2.8558
   28SAPC    C2 3696   5.692   5.312   6.708  0.1458 -0.0512  0.8513
   28SAPC    HS 3697   5.631   5.228   6.748 -0.7306  0.9239  1.6436
   28SAPC   O21 3698   5.753   5.381   6.815  0.3857 -0.1601 -0.2828
   28SAPC   C21 3699   5.664   5.430   6.911 -0.2796  1.1241 -0.3280
   28SAPC   O22 3700   5.548   5.395   6.923  0.3395  0.6250  0.1579
   28SAPC   C22 3701   5.749   5.516   7.005  0.2810 -0.2394  0.7653
   28SAPC   H2R 3702   5.832   5.448   7.035 -1.7239 -3.8203 -1.1322
   28SAPC   H2S 3703   5.785   5.602   6.944 -0.1319 -2.1410 -2.3931
   28SAPC    C3 3704   5.807   5.235   6.635  0.3304  0.3040 -0.1006
   28SAPC    HX 3705   5.885   5.304   6.595  0.3641  0.9714  1.0627
   28SAPC    HY 3706   5.753   5.181   6.554 -0.9302 -0.8773  1.4768
   28SAPC   O31 3707   5.848   5.132   6.725 -0.8313  0.7523 -0.0305
   28SAPC   C31 3708   5.979   5.110   6.726  0.9353  0.5028  0.0622
   28SAPC   O32 3709   6.065   5.177   6.673  0.1577  0.4838 -0.0290
   28SAPC   C32 3710   5.999   4.971   6.773 -0.4449 -0.3140 -0.2115
   28SAPC   H2X 3711   5.990   4.897   6.691 -0.2282 -0.5622 -0.0163
   28SAPC   H2Y 3712   5.919   4.945   6.846 -1.9748 -0.2256 -1.8064
   28SAPC   C23 3713   5.656   5.578   7.114  0.3008 -0.2528  0.1443
   28SAPC   H3R 3714   5.592   5.495   7.150  0.4768 -1.0134 -1.1987
   28SAPC   H3S 3715   5.587   5.650   7.065 -0.2456 -0.2748  0.8740
   28SAPC   C24 3716   5.741   5.643   7.220 -0.0149 -0.2253  0.1343
   28SAPC   H4R 3717   5.807   5.562   7.258 -0.2675 -0.1258  0.7940
   28SAPC   H4S 3718   5.798   5.730   7.182 -1.6597 -0.2364 -2.7100
   28SAPC   C25 3719   5.656   5.694   7.336  0.2212 -0.1109  0.3885
   28SAPC   H5R 3720   5.581   5.761   7.292  2.1246  0.6212 -1.9456
   28SAPC   C26 3721   5.651   5.668   7.467 -0.9080  0.0608 -0.3631
   28SAPC   H6R 3722   5.570   5.699   7.534  0.5866  0.5671  1.2944
   28SAPC   C27 3723   5.757   5.570   7.531  0.5033 -0.3986  0.1262
   28SAPC   H7R 3724   5.822   5.516   7.460  0.3216 -2.0728  1.1736
   28SAPC   H7S 3725   5.687   5.506   7.589  0.8270  0.2336  1.2427
   28SAPC   C28 3726   5.849   5.627   7.639 -0.5831  0.2439  1.1002
   28SAPC   H8R 3727   5.945   5.653   7.594 -1.0671  1.0045  0.4795
   28SAPC   C29 3728   5.824   5.653   7.765  0.6234 -0.0933 -0.1053
   28SAPC   H9R 3729   5.911   5.686   7.824  0.2500  0.2835  0.2410
   28SAPC  C210 3730   5.699   5.621   7.835  0.5450 -0.5958  0.2843
   28SAPC  H10R 3731   5.706   5.514   7.866  2.0631 -0.0839  1.8711
   28SAPC  H10S 3732   5.613   5.646   7.769  2.3485  3.3309 -0.9018
   28SAPC  C211 3733   5.683   5.711   7.953  0.0627  0.2113  0.6875
   28SAPC  H11R 3734   5.664   5.818   7.934 -1.2205 -0.5411 -2.9685
   28SAPC  C212 3735   5.681   5.664   8.081 -0.5399  0.5526  0.3810
   28SAPC  H12R 3736   5.676   5.731   8.168 -0.8133  0.9557  0.0605
   28SAPC  C213 3737   5.688   5.517   8.132  0.6212  0.0626 -0.5041
   28SAPC  H13R 3738   5.759   5.452   8.077  0.8031 -1.3966  1.3249
   28SAPC  H13S 3739   5.592   5.475   8.097  0.8714  1.5646 -3.3062
   28SAPC  C214 3740   5.704   5.494   8.283  0.4071  0.7749  0.1157
   28SAPC  H14R 3741   5.807   5.484   8.319  2.0380 -0.5221 -4.2419
   28SAPC  C215 3742   5.608   5.492   8.371 -0.5365 -0.0759  0.0651
   28SAPC  H15R 3743   5.636   5.485   8.478 -0.3055 -2.3496 -0.0837
   28SAPC  C216 3744   5.470   5.536   8.341 -0.3530 -1.0624 -0.2811
   28SAPC  H16R 3745   5.440   5.498   8.242 -0.6871 -0.4435 -0.4205
   28SAPC  H16S 3746   5.457   5.646   8.338 -0.3220 -1.0266  0.6220
   28SAPC  C217 3747   5.375   5.481   8.447 -0.2921 -0.3186 -0.0023
   28SAPC  H17R 3748   5.276   5.503   8.401  0.2838  2.9960  0.0795
   28SAPC  H17S 3749   5.402   5.528   8.544  2.6645 -1.6505 -0.0601
   28SAPC  C218 3750   5.364   5.331   8.464  0.5322 -0.2590  0.6494
   28SAPC  H18R 3751   5.465   5.289   8.485 -0.4690 -2.4364  1.3836
   28SAPC  H18S 3752   5.323   5.287   8.371 -2.0896 -1.3315  2.1889
   28SAPC  C219 3753   5.260   5.289   8.574  0.4979 -0.4762 -0.4532
   28SAPC  H19R 3754   5.288   5.335   8.672 -3.0728  1.8296 -0.3033
   28SAPC  H19S 3755   5.259   5.178   8.577 -2.2001 -0.6342 -2.6526
   28SAPC  C220 3756   5.118   5.336   8.540 -0.5010  0.6921  0.4215
   28SAPC  H20R 3757   5.107   5.307   8.433  2.4610  0.9891 -0.0533
   28SAPC  H20S 3758   5.109   5.447   8.542 -1.5803  0.8173 -3.3103
   28SAPC  H20T 3759   5.049   5.277   8.603 -0.3673 -1.6295 -1.4489
   28SAPC   C33 3760   6.149   4.952   6.830 -0.8228  0.1688  0.5550
   28SAPC   H3X 3761   6.214   4.996   6.751  0.3943 -1.6886  0.4489
   28SAPC   H3Y 3762   6.176   4.845   6.847  3.1487  0.9812  0.3006
   28SAPC   C34 3763   6.176   5.027   6.959 -0.2662  0.6712 -0.5061
   28SAPC   H4X 3764   6.111   5.116   6.945 -0.9498  0.2999  0.2164
   28SAPC   H4Y 3765   6.282   5.053   6.978 -0.1385  0.9930 -1.5714
   28SAPC   C35 3766   6.135   4.948   7.082 -0.1886  0.6596  0.1569
   28SAPC   H5X 3767   6.197   4.857   7.090 -1.4690 -0.1043  2.1966
   28SAPC   H5Y 3768   6.027   4.924   7.092 -0.1239  1.0175  2.0139
   28SAPC   C36 3769   6.158   5.034   7.208  0.5396  0.2783  0.5048
   28SAPC   H6X 3770   6.070   5.100   7.215 -0.9901 -1.5986 -0.0980
   28SAPC   H6Y 3771   6.245   5.103   7.199 -0.0282  0.7657 -2.0358
   28SAPC   C37 3772   6.182   4.943   7.328 -0.8904 -0.1840  0.1911
   28SAPC   H7X 3773   6.236   4.852   7.294  0.7628 -0.0970  2.3146
   28SAPC   H7Y 3774   6.081   4.910   7.358 -0.3626 -1.0872  1.0590
   28SAPC   C38 3775   6.271   4.999   7.444  0.1449 -0.3485  0.3345
   28SAPC   H8X 3776   6.218   5.071   7.509  0.2618 -0.8051  0.9365
   28SAPC   H8Y 3777   6.352   5.053   7.389 -2.0815 -0.2554 -3.2060
   28SAPC   C39 3778   6.338   4.897   7.545  0.3600  0.1109  0.7542
   28SAPC   H9X 3779   6.409   4.940   7.618  0.6598 -2.7161  2.2726
   28SAPC   H9Y 3780   6.383   4.808   7.495 -2.5345 -2.6765  2.6986
   28SAPC  C310 3781   6.220   4.840   7.628 -0.9087  0.5438 -0.1634
   28SAPC  H10X 3782   6.171   4.759   7.570  2.4316 -1.6387 -0.2176
   28SAPC  H10Y 3783   6.140   4.917   7.635 -1.7711 -0.3650  0.1895
   28SAPC  C311 3784   6.250   4.794   7.770  0.4911  0.0538  0.1928
   28SAPC  H11X 3785   6.156   4.752   7.811  0.4339 -1.2354 -1.1459
   28SAPC  H11Y 3786   6.262   4.888   7.827  0.0157  0.2809 -0.0747
   28SAPC  C312 3787   6.377   4.695   7.775 -0.6932  0.4102  0.1247
   28SAPC  H12X 3788   6.471   4.750   7.753  1.4651 -2.2230  2.0941
   28SAPC  H12Y 3789   6.370   4.622   7.692 -0.4461 -0.1063  0.5550
   28SAPC  C313 3790   6.396   4.634   7.912 -0.3700 -0.0021  0.4593
   28SAPC  H13X 3791   6.320   4.555   7.928 -1.6647  1.1263 -0.0174
   28SAPC  H13Y 3792   6.385   4.714   7.988  1.9282  0.3252  0.5259
   28SAPC  C314 3793   6.532   4.565   7.934  0.1676 -0.6603 -0.1792
   28SAPC  H14X 3794   6.523   4.499   8.023  0.3757 -0.8805 -0.3198
   28SAPC  H14Y 3795   6.620   4.633   7.942  0.6445 -1.1631 -0.9497
   28SAPC  C315 3796   6.572   4.481   7.809 -0.4845 -0.3502 -0.6192
   28SAPC  H15X 3797   6.675   4.440   7.821 -0.5414 -1.0401 -2.2924
   28SAPC  H15Y 3798   6.580   4.536   7.713  1.6040  3.3904  1.4329
   28SAPC  C316 3799   6.479   4.359   7.792 -0.4087  0.4987  0.2436
   28SAPC  H16X 3800   6.376   4.399   7.802  0.4259  2.3702  2.2645
   28SAPC  H16Y 3801   6.480   4.303   7.887  0.9161 -0.5280 -0.3326
   28SAPC  C317 3802   6.497   4.281   7.667  0.3223  1.0444 -0.0926
   28SAPC  H17X 3803   6.590   4.220   7.672 -0.2182  0.0725 -1.4894
   28SAPC  H17Y 3804   6.507   4.353   7.583 -2.4473  1.5330 -0.0977
   28SAPC  C318 3805   6.383   4.185   7.628 -0.7044 -0.6674  0.0700
   28SAPC  H18X 3806   6.376   4.108   7.707  1.4322 -0.0033  0.9867
   28SAPC  H18Y 3807   6.421   4.138   7.535 -0.3580  0.8595 -0.5995
   28SAPC  H18Z 3808   6.280   4.223   7.610 -1.1490 -1.5146  0.7755
   29SAPC     N 3809   1.789   2.942   6.149 -0.2121 -0.3814 -0.2228
   29SAPC   C12 3810   1.744   3.081   6.191  0.2772  0.0738 -0.7732
   29SAPC  H12A 3811   1.667   3.130   6.134  2.1512  4.1283 -0.1725
   29SAPC  H12B 3812   1.834   3.141   6.184 -1.0731  2.3414  0.2322
   29SAPC   C13 3813   1.675   2.847   6.144  0.0970  0.5431  0.2123
   29SAPC  H13A 3814   1.608   2.855   6.060  0.1059 -0.3685  0.1123
   29SAPC  H13B 3815   1.714   2.746   6.149  0.2107  0.5996  0.5134
   29SAPC  H13C 3816   1.603   2.861   6.224 -1.0239 -1.5653 -0.3626
   29SAPC   C14 3817   1.845   2.948   6.003 -0.3098 -0.1408 -0.7938
   29SAPC  H14A 3818   1.769   2.989   5.939 -1.7958  0.9796  1.5482
   29SAPC  H14B 3819   1.932   3.012   5.995 -0.9602  0.8039 -0.4981
   29SAPC  H14C 3820   1.880   2.849   5.979  0.2416  0.5561 -3.1161
   29SAPC   C15 3821   1.897   2.889   6.232  0.4893  0.1585  0.7752
   29SAPC  H15A 3822   1.914   2.787   6.201  1.0615  0.6690 -0.6158
   29SAPC  H15B 3823   1.990   2.943   6.223  0.7672 -0.5253 -0.6687
   29SAPC  H15C 3824   1.867   2.900   6.336 -1.4232  0.9714  0.1803
   29SAPC   C11 3825   1.680   3.087   6.332 -0.0600 -0.1150 -0.3918
   29SAPC  H11A 3826   1.673   3.194   6.358 -0.1855 -0.4421  0.9958
   29SAPC  H11B 3827   1.751   3.050   6.409 -0.3570 -0.2301 -0.1678
   29SAPC     P 3828   1.411   3.077   6.315 -0.0262 -0.6669 -0.2032
   29SAPC   O13 3829   1.391   3.121   6.176  0.1305 -0.2734  0.0190
   29SAPC   O14 3830   1.326   2.967   6.362  0.3589  0.0339  0.2062
   29SAPC   O12 3831   1.554   3.022   6.338  0.4041  0.1403 -0.1223
   29SAPC   O11 3832   1.392   3.214   6.405 -0.3870  0.2411  0.1359
   29SAPC    C1 3833   1.445   3.212   6.539 -0.7559  0.3568  0.6317
   29SAPC    HA 3834   1.539   3.154   6.550  0.2876  1.9712  0.5455
   29SAPC    HB 3835   1.467   3.317   6.567 -3.6399  1.0934  0.5254
   29SAPC    C2 3836   1.352   3.138   6.636  0.0268 -0.3323  0.5152
   29SAPC    HS 3837   1.347   3.031   6.607  0.1051  0.1189 -1.2316
   29SAPC   O21 3838   1.231   3.199   6.630 -0.3101 -0.6778  0.6090
   29SAPC   C21 3839   1.125   3.130   6.659  0.2615  0.4342 -0.2750
   29SAPC   O22 3840   1.126   3.011   6.685 -0.4609  0.1534 -0.1291
   29SAPC   C22 3841   1.009   3.229   6.669  0.2760  0.0174  0.1743
   29SAPC   H2R 3842   1.010   3.292   6.576 -2.6189 -0.4946 -0.2808
   29SAPC   H2S 3843   0.913   3.177   6.655  1.4652 -1.6936 -2.4317
   29SAPC    C3 3844   1.414   3.146   6.781  0.3312 -0.0523  0.0380
   29SAPC    HX 3845   1.345   3.090   6.847 -0.6644  1.2535  0.1650
   29SAPC    HY 3846   1.403   3.253   6.810  0.4354  0.1524 -0.6605
   29SAPC   O31 3847   1.547   3.092   6.786 -0.5092 -0.1715 -0.0983
   29SAPC   C31 3848   1.615   3.135   6.893  0.0096  0.1655  0.1177
   29SAPC   O32 3849   1.558   3.189   6.987  0.1830  0.2802  0.4029
   29SAPC   C32 3850   1.759   3.111   6.889  0.4505  0.7487 -0.1049
   29SAPC   H2X 3851   1.799   3.118   6.786  0.1831  0.5321 -0.2270
   29SAPC   H2Y 3852   1.767   3.003   6.917 -0.1169 -0.0081 -2.6038
   29SAPC   C23 3853   1.018   3.307   6.796 -0.2895 -0.0225  1.0978
   29SAPC   H3R 3854   0.950   3.392   6.777 -0.4855 -0.4326 -0.1972
   29SAPC   H3S 3855   1.114   3.363   6.805  1.2056 -1.1899 -3.9694
   29SAPC   C24 3856   0.991   3.243   6.924 -0.5731  0.2641  0.2777
   29SAPC   H4R 3857   0.995   3.317   7.006  0.4781 -1.6197  2.0376
   29SAPC   H4S 3858   1.065   3.164   6.950 -2.3396 -2.3461 -1.9818
   29SAPC   C25 3859   0.859   3.162   6.928 -0.8119  0.2558 -0.4076
   29SAPC   H5R 3860   0.838   3.099   6.841  0.5869 -0.7228 -0.0620
   29SAPC   C26 3861   0.784   3.157   7.039 -0.4756 -0.4207 -0.1863
   29SAPC   H6R 3862   0.696   3.091   7.042 -0.3000 -0.6280  1.6670
   29SAPC   C27 3863   0.802   3.228   7.168  0.5994  0.4210  0.5399
   29SAPC   H7R 3864   0.752   3.327   7.162 -2.4850 -0.9985  1.1542
   29SAPC   H7S 3865   0.907   3.254   7.194 -0.0203  0.3948  3.3318
   29SAPC   C28 3866   0.742   3.151   7.285 -0.0220 -0.1769 -0.0316
   29SAPC   H8R 3867   0.682   3.060   7.271 -0.2463  0.0359 -0.4736
   29SAPC   C29 3868   0.744   3.195   7.412 -0.2790 -0.2430  0.1534
   29SAPC   H9R 3869   0.698   3.144   7.498  0.3052 -0.0120  0.6129
   29SAPC  C210 3870   0.811   3.315   7.467  0.6962 -0.3353  1.0455
   29SAPC  H10R 3871   0.731   3.383   7.504  1.4228  0.8407  0.5309
   29SAPC  H10S 3872   0.860   3.380   7.392 -0.9302 -2.9107 -2.5219
   29SAPC  C211 3873   0.899   3.280   7.590  0.4714 -1.0973  0.3413
   29SAPC  H11R 3874   1.004   3.283   7.556  0.1462  2.9309 -0.8323
   29SAPC  C212 3875   0.878   3.279   7.720  0.6534  0.2704 -0.8333
   29SAPC  H12R 3876   0.960   3.267   7.792 -1.2098 -2.1014  1.0753
   29SAPC  C213 3877   0.743   3.307   7.790  0.2150 -0.1787 -0.4398
   29SAPC  H13R 3878   0.663   3.335   7.718  1.2624 -0.4973 -1.7880
   29SAPC  H13S 3879   0.756   3.391   7.861 -1.7908 -0.2300  0.0495
   29SAPC  C214 3880   0.693   3.187   7.857 -0.7420 -0.3561 -0.2943
   29SAPC  H14R 3881   0.608   3.135   7.811 -0.8068  0.0421 -0.6255
   29SAPC  C215 3882   0.747   3.133   7.970  0.5442  0.0044 -0.3317
   29SAPC  H15R 3883   0.702   3.036   7.994 -0.6207  0.3505 -1.0231
   29SAPC  C216 3884   0.866   3.169   8.051  0.0356  0.2070  0.3680
   29SAPC  H16R 3885   0.888   3.276   8.031  0.4172  0.0481 -0.1094
   29SAPC  H16S 3886   0.952   3.109   8.012  0.9482  1.7909 -0.1359
   29SAPC  C217 3887   0.865   3.136   8.201  0.2557 -0.0972  0.7219
   29SAPC  H17R 3888   0.968   3.147   8.241  1.0678  1.3589 -1.6361
   29SAPC  H17S 3889   0.835   3.033   8.230 -1.3394 -0.3709 -1.6397
   29SAPC  C218 3890   0.776   3.239   8.277 -0.1125  0.3200 -0.0595
   29SAPC  H18R 3891   0.668   3.214   8.273  0.1293 -1.1777  1.5570
   29SAPC  H18S 3892   0.792   3.339   8.231 -2.0516  0.9985  0.6339
   29SAPC  C219 3893   0.825   3.248   8.422 -0.3293  0.8507 -0.0492
   29SAPC  H19R 3894   0.936   3.257   8.418 -0.2422 -0.2723 -0.8024
   29SAPC  H19S 3895   0.799   3.156   8.479 -0.4935  0.2460 -1.0741
   29SAPC  C220 3896   0.752   3.357   8.497 -0.3771 -0.2289  0.5775
   29SAPC  H20R 3897   0.800   3.382   8.595 -0.5112 -2.0829  1.1618
   29SAPC  H20S 3898   0.651   3.326   8.531  0.6315 -1.0787  3.0090
   29SAPC  H20T 3899   0.752   3.455   8.444  0.7082  0.1733  1.2944
   29SAPC   C33 3900   1.839   3.196   6.987  0.2177 -0.3041  0.1924
   29SAPC   H3X 3901   1.799   3.198   7.091  3.0843 -0.1842  1.3874
   29SAPC   H3Y 3902   1.826   3.300   6.949  0.3565 -0.3504  0.0181
   29SAPC   C34 3903   1.988   3.167   6.991 -0.3041  0.3641 -0.3200
   29SAPC   H4X 3904   2.032   3.257   7.040 -1.4438 -1.0181  3.6137
   29SAPC   H4Y 3905   2.025   3.158   6.887  1.2414 -0.4757  0.2740
   29SAPC   C35 3906   2.031   3.042   7.081  0.0071 -1.0406  0.2271
   29SAPC   H5X 3907   2.141   3.034   7.076  0.2811  1.0073  1.6694
   29SAPC   H5Y 3908   1.981   2.951   7.041 -0.2942 -0.3287 -1.0965
   29SAPC   C36 3909   1.968   3.076   7.221  0.5915 -0.2262  0.0917
   29SAPC   H6X 3910   1.857   3.069   7.228  0.3223  1.4416 -1.7621
   29SAPC   H6Y 3911   1.999   3.179   7.247  0.3723  0.3878 -1.9787
   29SAPC   C37 3912   2.036   2.996   7.335  0.0060  0.2892  0.4726
   29SAPC   H7X 3913   2.143   2.986   7.306  0.2416  0.6289  1.1879
   29SAPC   H7Y 3914   1.989   2.896   7.344  1.7294 -0.5314  0.6341
   29SAPC   C38 3915   2.040   3.065   7.478 -0.3444  0.2128  0.5798
   29SAPC   H8X 3916   1.935   3.071   7.513 -1.1202 -1.8425 -1.1640
   29SAPC   H8Y 3917   2.062   3.172   7.455  0.9251 -0.2412 -0.5200
   29SAPC   C39 3918   2.141   2.996   7.571  0.1360 -0.3633 -0.0997
   29SAPC   H9X 3919   2.239   3.034   7.534 -0.6504  0.9641 -0.8515
   29SAPC   H9Y 3920   2.127   2.886   7.575 -0.9078 -0.2214  0.2502
   29SAPC  C310 3921   2.129   3.043   7.722  0.2336  0.4850 -0.8017
   29SAPC  H10X 3922   2.032   3.001   7.758  0.2176  1.5039  0.3739
   29SAPC  H10Y 3923   2.153   3.151   7.730 -0.3513  0.5295  0.4719
   29SAPC  C311 3924   2.236   2.973   7.811 -0.1259 -0.8210  0.5032
   29SAPC  H11X 3925   2.332   3.018   7.779 -0.2859 -0.9660 -0.1901
   29SAPC  H11Y 3926   2.223   2.863   7.812 -0.8721 -0.7391  0.8736
   29SAPC  C312 3927   2.221   3.007   7.956 -0.0371 -0.1231 -0.2635
   29SAPC  H12X 3928   2.220   3.118   7.962  1.6489 -0.0895 -0.2751
   29SAPC  H12Y 3929   2.313   2.974   8.008 -0.9331 -1.2643  0.6377
   29SAPC  C313 3930   2.106   2.943   8.028 -0.9399  0.1764  0.1681
   29SAPC  H13X 3931   2.108   2.835   8.000 -0.6753 -0.9286  3.8791
   29SAPC  H13Y 3932   2.017   2.998   7.991 -0.6280  0.3574 -0.3246
   29SAPC  C314 3933   2.115   2.947   8.181 -0.2118  0.0549  0.1804
   29SAPC  H14X 3934   2.144   3.047   8.219 -0.3189  0.1199  0.0903
   29SAPC  H14Y 3935   2.191   2.871   8.206  1.2495  0.3824 -2.8000
   29SAPC  C315 3936   1.983   2.909   8.244  0.3699  0.7617  0.0164
   29SAPC  H15X 3937   1.945   2.821   8.189 -0.0142  0.3119  0.9724
   29SAPC  H15Y 3938   1.908   2.991   8.232 -0.7015  0.0210  1.3188
   29SAPC  C316 3939   2.018   2.868   8.385  0.0957  0.7599 -0.1507
   29SAPC  H16X 3940   2.080   2.944   8.437  2.7001  1.7170 -4.2372
   29SAPC  H16Y 3941   2.090   2.784   8.377  2.1431  2.2944  1.2397
   29SAPC  C317 3942   1.909   2.809   8.474  0.0718 -0.1169  0.2446
   29SAPC  H17X 3943   1.968   2.779   8.563  0.9059  0.0584 -0.2365
   29SAPC  H17Y 3944   1.862   2.713   8.444  0.9813 -0.5792  0.2657
   29SAPC  C318 3945   1.788   2.905   8.508 -0.1178  0.1454 -0.9835
   29SAPC  H18X 3946   1.703   2.851   8.556  0.0440  0.7491  0.0089
   29SAPC  H18Y 3947   1.742   2.950   8.417 -2.8979 -1.3885 -0.4558
   29SAPC  H18Z 3948   1.826   2.988   8.572  1.2033 -1.0352 -0.1711
   30SAPC     N 3949   2.803   3.891   6.018  0.3999  0.4226 -0.0367
   30SAPC   C12 3950   2.946   3.912   6.057 -0.3356 -0.6032  0.1904
   30SAPC  H12A 3951   2.964   3.866   6.153  4.1363 -1.1540 -0.6727
   30SAPC  H12B 3952   2.972   4.015   6.079 -0.9885 -0.4506  0.2634
   30SAPC   C13 3953   2.756   3.961   5.892  0.1726  0.0474  0.6251
   30SAPC  H13A 3954   2.742   4.064   5.922 -1.3698 -0.6384  2.4495
   30SAPC  H13B 3955   2.821   3.960   5.806 -1.2470  1.4506 -0.5320
   30SAPC  H13C 3956   2.659   3.927   5.860  0.2721  0.0581  0.3032
   30SAPC   C14 3957   2.776   3.740   5.999 -0.6104  0.2948  0.0966
   30SAPC  H14A 3958   2.812   3.687   6.086  1.8902  1.2210 -0.2860
   30SAPC  H14B 3959   2.673   3.718   5.974  0.2113 -2.7860 -1.0397
   30SAPC  H14C 3960   2.841   3.714   5.917  1.9681  0.4007  1.9920
   30SAPC   C15 3961   2.713   3.943   6.127 -0.6626 -0.1139  0.5475
   30SAPC  H15A 3962   2.689   4.047   6.111  1.2662  0.3546  0.3881
   30SAPC  H15B 3963   2.622   3.886   6.135 -0.0407 -0.9965  1.6336
   30SAPC  H15C 3964   2.748   3.926   6.228 -0.3837 -1.4458  0.2484
   30SAPC   C11 3965   3.061   3.858   5.957  0.4005  0.5732 -0.0152
   30SAPC  H11A 3966   3.158   3.903   5.987  1.0484 -1.5899  1.3947
   30SAPC  H11B 3967   3.029   3.881   5.853 -1.4811 -1.4107  0.0451
   30SAPC     P 3968   3.124   3.635   6.090 -0.2220  0.4084 -0.3313
   30SAPC   O13 3969   3.020   3.543   6.138 -0.5801  0.1953 -0.5785
   30SAPC   O14 3970   3.252   3.562   6.068 -0.0859 -0.2496  0.3021
   30SAPC   O12 3971   3.079   3.715   5.960  0.6671  0.5130 -0.0320
   30SAPC   O11 3972   3.137   3.748   6.203 -0.4181  0.3837 -0.7715
   30SAPC    C1 3973   3.251   3.822   6.250 -0.8500 -0.2515 -0.1123
   30SAPC    HA 3974   3.327   3.827   6.169 -1.8566 -0.8112 -1.1108
   30SAPC    HB 3975   3.226   3.922   6.289 -0.1235 -0.0860 -0.0430
   30SAPC    C2 3976   3.309   3.736   6.369 -0.0613 -0.1186  0.1364
   30SAPC    HS 3977   3.337   3.636   6.330 -0.8093 -0.7688  1.2294
   30SAPC   O21 3978   3.219   3.723   6.479  0.5447 -0.0993 -0.4297
   30SAPC   C21 3979   3.227   3.611   6.555  0.5600 -0.2094  0.6285
   30SAPC   O22 3980   3.303   3.519   6.534  0.7294 -0.1528  0.0730
   30SAPC   C22 3981   3.123   3.606   6.670  0.2010  0.1935  0.4007
   30SAPC   H2R 3982   3.089   3.708   6.698 -0.5010  0.8116 -2.3812
   30SAPC   H2S 3983   3.038   3.553   6.621  1.6671 -2.3539  0.4364
   30SAPC    C3 3984   3.434   3.815   6.423  0.4123 -0.4066  0.4133
   30SAPC    HX 3985   3.412   3.922   6.445 -0.3732 -0.0246 -1.9895
   30SAPC    HY 3986   3.517   3.804   6.351  0.2970 -2.4851  0.5472
   30SAPC   O31 3987   3.477   3.760   6.549 -0.0760 -0.9159  0.4031
   30SAPC   C31 3988   3.596   3.696   6.559  0.2357 -0.7331  0.3181
   30SAPC   O32 3989   3.679   3.697   6.473  0.2307 -0.3961 -0.5904
   30SAPC   C32 3990   3.617   3.652   6.701  0.3004  0.3025  1.2351
   30SAPC   H2X 3991   3.708   3.588   6.702  0.7037  0.5298 -2.9847
   30SAPC   H2Y 3992   3.522   3.599   6.723  0.0264  0.7625  1.1726
   30SAPC   C23 3993   3.160   3.531   6.796 -0.5611 -0.5223  0.8286
   30SAPC   H3R 3994   3.196   3.429   6.772  0.6268  0.0425  0.1036
   30SAPC   H3S 3995   3.080   3.508   6.869  0.4189 -2.3149  1.4139
   30SAPC   C24 3996   3.266   3.607   6.879  0.2769 -0.8325  0.1475
   30SAPC   H4R 3997   3.209   3.687   6.932 -2.2462 -2.5362  0.1783
   30SAPC   H4S 3998   3.336   3.652   6.805 -0.5094 -1.2405 -0.8646
   30SAPC   C25 3999   3.341   3.514   6.966 -0.0697  0.2399  0.2263
   30SAPC   H5R 4000   3.406   3.455   6.899 -0.5001  2.4702 -2.3349
   30SAPC   C26 4001   3.345   3.513   7.099  0.1270 -0.4619  0.1689
   30SAPC   H6R 4002   3.417   3.447   7.148  1.0825 -0.6312 -1.4117
   30SAPC   C27 4003   3.259   3.601   7.182 -0.0686  0.1291 -0.7330
   30SAPC   H7R 4004   3.167   3.617   7.121 -0.2425  0.5521 -0.3601
   30SAPC   H7S 4005   3.303   3.699   7.209  0.6047  0.2501 -2.1674
   30SAPC   C28 4006   3.216   3.529   7.307 -0.0997  0.3227  0.9017
   30SAPC   H8R 4007   3.128   3.469   7.279  2.0063 -1.3707 -2.9957
   30SAPC   C29 4008   3.276   3.535   7.428 -0.2661 -0.5976 -0.6714
   30SAPC   H9R 4009   3.220   3.493   7.513 -0.3402 -3.3642 -1.9628
   30SAPC  C210 4010   3.395   3.619   7.451  0.7078 -0.5321 -0.2224
   30SAPC  H10R 4011   3.365   3.726   7.456 -0.8060 -0.9832  2.9668
   30SAPC  H10S 4012   3.481   3.601   7.384  0.1157 -1.6907 -0.7052
   30SAPC  C211 4013   3.432   3.585   7.601  0.8419  0.1314 -0.0179
   30SAPC  H11R 4014   3.503   3.502   7.612  0.4319 -0.3561 -0.9465
   30SAPC  C212 4015   3.427   3.668   7.710  0.0748  1.3532  0.4194
   30SAPC  H12R 4016   3.472   3.633   7.803 -0.2483 -4.1629 -1.1593
   30SAPC  C213 4017   3.374   3.810   7.716 -0.1866 -0.4074 -0.0059
   30SAPC  H13R 4018   3.309   3.815   7.807 -0.4827  0.2905 -0.2474
   30SAPC  H13S 4019   3.318   3.844   7.626  0.0526  0.3185  0.1133
   30SAPC  C214 4020   3.497   3.905   7.735  0.3697 -0.5669  0.6742
   30SAPC  H14R 4021   3.540   3.923   7.635 -0.8204 -1.1166  0.0299
   30SAPC  C215 4022   3.536   3.959   7.852  0.6304 -0.4509 -0.6868
   30SAPC  H15R 4023   3.618   4.032   7.852 -0.3030  0.6224 -1.1206
   30SAPC  C216 4024   3.469   3.940   7.988 -0.6184 -0.7436 -0.8291
   30SAPC  H16R 4025   3.532   3.879   8.056  0.9162  1.6949  0.0456
   30SAPC  H16S 4026   3.376   3.880   7.977 -1.5684  0.8995 -2.5673
   30SAPC  C217 4027   3.441   4.076   8.060  0.8332  0.1109 -1.0237
   30SAPC  H17R 4028   3.371   4.137   8.000  0.5838  1.8096  0.8821
   30SAPC  H17S 4029   3.533   4.136   8.077 -0.3152  1.5237  0.4522
   30SAPC  C218 4030   3.384   4.057   8.207  0.2055  0.5482 -0.3676
   30SAPC  H18R 4031   3.463   4.014   8.271 -0.1657 -1.5879 -1.2741
   30SAPC  H18S 4032   3.299   3.986   8.217  0.4305  0.4866  1.3882
   30SAPC  C219 4033   3.347   4.179   8.280  0.1177 -0.1932  0.4525
   30SAPC  H19R 4034   3.256   4.163   8.340 -0.0353  1.7767  0.8223
   30SAPC  H19S 4035   3.312   4.244   8.197  1.7707 -0.7259 -0.7254
   30SAPC  C220 4036   3.445   4.247   8.376  0.5221  0.1903 -0.4179
   30SAPC  H20R 4037   3.475   4.172   8.452 -0.6706 -1.4606 -1.4764
   30SAPC  H20S 4038   3.394   4.333   8.423 -2.0122 -1.8847  0.8972
   30SAPC  H20T 4039   3.536   4.282   8.323  0.4697  0.3524 -0.3990
   30SAPC   C33 4040   3.645   3.769   6.801 -0.0129  0.3649  0.2012
   30SAPC   H3X 4041   3.553   3.831   6.791 -0.1478  0.6030  2.3990
   30SAPC   H3Y 4042   3.725   3.834   6.759  0.6053 -1.7624 -2.1546
   30SAPC   C34 4043   3.667   3.724   6.947  0.0259 -0.3164 -0.4642
   30SAPC   H4X 4044   3.736   3.636   6.940  1.3420  0.7954 -3.4646
   30SAPC   H4Y 4045   3.568   3.688   6.982 -1.5189  3.5199 -0.4155
   30SAPC   C35 4046   3.711   3.839   7.034 -0.1723  0.1439 -0.2520
   30SAPC   H5X 4047   3.629   3.912   7.017 -2.2786 -2.0138  0.0733
   30SAPC   H5Y 4048   3.805   3.894   7.013  0.8152 -0.3031  2.5838
   30SAPC   C36 4049   3.708   3.805   7.183  0.9068  0.2721 -0.0219
   30SAPC   H6X 4050   3.779   3.723   7.208  1.9632  0.3080 -2.5598
   30SAPC   H6Y 4051   3.605   3.766   7.188 -0.8167  4.1689 -1.3899
   30SAPC   C37 4052   3.718   3.933   7.270 -0.5882  0.2213 -0.4635
   30SAPC   H7X 4053   3.620   3.986   7.267  0.0318  1.4507  0.3441
   30SAPC   H7Y 4054   3.798   4.000   7.233 -1.0520  0.8066 -0.4344
   30SAPC   C38 4055   3.761   3.888   7.412 -0.0707  0.3269 -0.2774
   30SAPC   H8X 4056   3.851   3.824   7.404  0.4044  0.5799  2.3556
   30SAPC   H8Y 4057   3.679   3.826   7.456  1.5005 -0.9036  1.0482
   30SAPC   C39 4058   3.785   4.014   7.496  0.0981 -0.1019 -0.7737
   30SAPC   H9X 4059   3.690   4.070   7.513  0.2662 -0.3596  1.2105
   30SAPC   H9Y 4060   3.848   4.079   7.431 -2.5973  1.6414 -1.8154
   30SAPC  C310 4061   3.859   3.980   7.623 -0.0500 -0.6537 -0.2196
   30SAPC  H10X 4062   3.933   3.899   7.606  0.8214 -0.1965  1.2184
   30SAPC  H10Y 4063   3.791   3.943   7.704  2.1463  0.1986  2.1437
   30SAPC  C311 4064   3.927   4.105   7.678  0.5601  0.1515  0.3287
   30SAPC  H11X 4065   3.863   4.178   7.733  2.4349  0.4762  2.2456
   30SAPC  H11Y 4066   3.962   4.161   7.589 -0.5699 -3.9958 -3.0529
   30SAPC  C312 4067   4.060   4.085   7.748  0.1398  0.3458  0.4007
   30SAPC  H12X 4068   4.116   4.180   7.740 -1.5353  1.3164 -0.3467
   30SAPC  H12Y 4069   4.112   4.003   7.695  1.0137  1.5847 -0.7153
   30SAPC  C313 4070   4.045   4.032   7.888 -0.4001 -0.1934  0.3576
   30SAPC  H13X 4071   4.140   3.980   7.915 -0.8053  0.5626  3.7149
   30SAPC  H13Y 4072   3.968   3.956   7.909  0.3726 -0.5168  2.2074
   30SAPC  C314 4073   4.013   4.142   7.986 -0.1349 -0.3250  0.8222
   30SAPC  H14X 4074   3.922   4.200   7.960 -0.2589  0.1248  2.1529
   30SAPC  H14Y 4075   4.101   4.210   7.975  1.2666 -2.2945 -0.9584
   30SAPC  C315 4076   3.987   4.106   8.133  0.0549 -0.2149 -0.5836
   30SAPC  H15X 4077   3.968   4.200   8.190  0.0784 -0.1421 -0.6944
   30SAPC  H15Y 4078   4.083   4.064   8.170  0.6002 -1.0285 -2.7647
   30SAPC  C316 4079   3.866   4.015   8.159 -0.6679 -0.0916  0.4667
   30SAPC  H16X 4080   3.892   3.919   8.109 -1.5430 -0.2190  0.2474
   30SAPC  H16Y 4081   3.765   4.041   8.123 -0.3623 -0.0986 -0.4148
   30SAPC  C317 4082   3.864   3.979   8.308 -0.2268  0.1987 -0.9102
   30SAPC  H17X 4083   3.826   4.067   8.363 -2.4704 -0.7417 -0.8487
   30SAPC  H17Y 4084   3.972   3.962   8.329 -0.5391  0.1376  0.7547
   30SAPC  C318 4085   3.784   3.846   8.340 -0.0927  0.5600 -0.5235
   30SAPC  H18X 4086   3.677   3.853   8.311 -0.2068 -0.9236 -0.5274
   30SAPC  H18Y 4087   3.810   3.826   8.446  1.8434  0.2956 -1.0071
   30SAPC  H18Z 4088   3.834   3.770   8.277  2.0677  0.3090  1.3643
   31SAPC     N 4089   3.490   4.514   5.993 -0.0805 -0.4686 -0.2109
   31SAPC   C12 4090   3.592   4.400   5.989  0.2522 -0.8249  0.4094
   31SAPC  H12A 4091   3.683   4.438   5.946  1.4480 -2.0050  1.7896
   31SAPC  H12B 4092   3.553   4.319   5.930  2.3905 -2.8706  1.6433
   31SAPC   C13 4093   3.346   4.469   6.024 -0.7533  0.4290  0.1009
   31SAPC  H13A 4094   3.278   4.553   6.024  1.5009  2.3871 -0.0552
   31SAPC  H13B 4095   3.310   4.400   5.950  0.8170  0.2697 -0.5482
   31SAPC  H13C 4096   3.336   4.423   6.122 -3.4270 -0.2050 -0.4147
   31SAPC   C14 4097   3.540   4.601   6.102 -0.3832  0.0655  0.5944
   31SAPC  H14A 4098   3.540   4.550   6.197  0.8360  1.2094  1.2433
   31SAPC  H14B 4099   3.640   4.638   6.085 -0.4543  0.8391  1.8045
   31SAPC  H14C 4100   3.476   4.686   6.119 -2.9678 -1.7362  0.4259
   31SAPC   C15 4101   3.480   4.577   5.862 -0.4965 -0.0910  0.1760
   31SAPC  H15A 4102   3.396   4.644   5.873 -1.8868 -1.5086 -1.3080
   31SAPC  H15B 4103   3.567   4.639   5.842  0.4515 -1.8298 -1.4446
   31SAPC  H15C 4104   3.471   4.519   5.771  0.9843  1.3734 -0.9647
   31SAPC   C11 4105   3.636   4.323   6.122 -0.2064  0.3434  0.0451
   31SAPC  H11A 4106   3.695   4.390   6.188  0.3423 -1.0968  1.0435
   31SAPC  H11B 4107   3.694   4.236   6.086  0.0708 -0.4805  2.3458
   31SAPC     P 4108   3.488   4.275   6.336 -0.0679  0.5063 -0.1153
   31SAPC   O13 4109   3.574   4.382   6.401 -0.3441  0.1187 -0.0238
   31SAPC   O14 4110   3.342   4.272   6.365 -0.7920  0.0632  0.1860
   31SAPC   O12 4111   3.515   4.269   6.176  0.1393  0.9360  0.0348
   31SAPC   O11 4112   3.542   4.136   6.381  1.1790  0.3157  0.2373
   31SAPC    C1 4113   3.681   4.109   6.389 -0.6763 -0.1577 -1.0778
   31SAPC    HA 4114   3.707   4.013   6.339 -0.3549 -1.1497  0.9106
   31SAPC    HB 4115   3.748   4.177   6.332 -0.0935  0.2309  0.0428
   31SAPC    C2 4116   3.733   4.109   6.533 -0.2406  0.2006 -1.4703
   31SAPC    HS 4117   3.789   4.202   6.556  0.3714 -0.1526 -1.5183
   31SAPC   O21 4118   3.807   3.988   6.567 -0.1971  0.4877 -0.0712
   31SAPC   C21 4119   3.934   3.980   6.524 -0.4393 -0.5513 -0.2927
   31SAPC   O22 4120   3.992   4.071   6.464 -0.2781  0.2252  0.1165
   31SAPC   C22 4121   3.994   3.846   6.571  0.0613 -0.3501  0.2789
   31SAPC   H2R 4122   3.908   3.779   6.551  2.2369 -2.5248 -2.8923
   31SAPC   H2S 4123   4.070   3.815   6.496 -1.2657 -1.2729 -0.7333
   31SAPC    C3 4124   3.621   4.118   6.637 -0.8045 -0.9056  0.8279
   31SAPC    HX 4125   3.557   4.028   6.625 -2.4174  0.1444  1.1790
   31SAPC    HY 4126   3.545   4.198   6.628 -0.0822 -0.0101  2.3647
   31SAPC   O31 4127   3.663   4.110   6.772 -0.1172  0.2726  0.0892
   31SAPC   C31 4128   3.702   4.230   6.818  0.1735  0.5858 -0.3886
   31SAPC   O32 4129   3.728   4.332   6.754 -0.2359 -0.3929  0.2137
   31SAPC   C32 4130   3.709   4.213   6.966 -0.3152 -0.8931 -0.3071
   31SAPC   H2X 4131   3.756   4.116   6.993  0.1889 -0.6889 -0.4275
   31SAPC   H2Y 4132   3.608   4.229   7.010  0.2705 -0.3099  0.8896
   31SAPC   C23 4133   4.051   3.843   6.715  0.5088  0.2545  0.4938
   31SAPC   H3R 4134   3.966   3.875   6.778 -0.7776  0.0629 -1.0838
   31SAPC   H3S 4135   4.134   3.916   6.723 -0.4235  1.2170  1.7662
   31SAPC   C24 4136   4.081   3.696   6.774 -0.2130  0.2682  0.2849
   31SAPC   H4R 4137   4.173   3.659   6.724  0.8159  1.9544  0.8573
   31SAPC   H4S 4138   3.994   3.633   6.746 -0.4145  0.4587  0.4753
   31SAPC   C25 4139   4.101   3.724   6.921  0.0872 -0.3345 -0.4282
   31SAPC   H5R 4140   4.014   3.775   6.964  0.5490  0.5085 -0.4501
   31SAPC   C26 4141   4.210   3.694   6.993  0.4387  0.2656  0.0340
   31SAPC   H6R 4142   4.218   3.707   7.102 -0.7853 -0.3731  0.2144
   31SAPC   C27 4143   4.332   3.632   6.931  0.1707  0.1039 -0.2176
   31SAPC   H7R 4144   4.288   3.571   6.850 -1.5778  0.3646  0.5095
   31SAPC   H7S 4145   4.373   3.556   7.000 -1.1473  0.7361  1.3011
   31SAPC   C28 4146   4.433   3.738   6.888  0.6816 -0.5730 -0.1703
   31SAPC   H8R 4147   4.413   3.801   6.800  3.2106 -0.1826 -0.5494
   31SAPC   C29 4148   4.562   3.749   6.943  0.0275 -0.6483  0.6283
   31SAPC   H9R 4149   4.622   3.835   6.911  0.8820 -0.7847  1.8136
   31SAPC  C210 4150   4.616   3.654   7.049  0.0928  0.3327 -0.2547
   31SAPC  H10R 4151   4.631   3.555   7.000  2.0446  2.1048 -3.6927
   31SAPC  H10S 4152   4.538   3.645   7.127  1.0298  0.7694  0.7536
   31SAPC  C211 4153   4.742   3.699   7.113  0.2240  0.5089 -0.3522
   31SAPC  H11R 4154   4.829   3.690   7.048  0.5709 -0.9839  0.2777
   31SAPC  C212 4155   4.768   3.720   7.237  0.4236 -0.0034  0.5822
   31SAPC  H12R 4156   4.860   3.773   7.265 -0.2558  0.3054  2.3979
   31SAPC  C213 4157   4.676   3.703   7.355 -0.1838  0.2990 -0.1504
   31SAPC  H13R 4158   4.596   3.631   7.328  1.1129 -1.7956  1.3343
   31SAPC  H13S 4159   4.641   3.807   7.376 -0.1258  0.8680 -2.5172
   31SAPC  C214 4160   4.758   3.646   7.470  0.3069 -0.0628  0.0608
   31SAPC  H14R 4161   4.830   3.572   7.432 -0.1044  1.0205 -3.2159
   31SAPC  C215 4162   4.757   3.678   7.602 -0.1113  0.7459  0.1354
   31SAPC  H15R 4163   4.811   3.617   7.675 -3.2187 -1.9242  0.4040
   31SAPC  C216 4164   4.674   3.782   7.673  0.4348  0.5764  0.7043
   31SAPC  H16R 4165   4.599   3.818   7.599 -0.2176  0.4553  1.2980
   31SAPC  H16S 4166   4.731   3.871   7.708 -0.8296  2.1366 -0.9458
   31SAPC  C217 4167   4.603   3.720   7.789 -0.7342  0.1396  0.3575
   31SAPC  H17R 4168   4.673   3.703   7.874 -1.1267 -0.6268  0.5411
   31SAPC  H17S 4169   4.552   3.625   7.760 -0.2097  0.1530 -0.6447
   31SAPC  C218 4170   4.487   3.804   7.845  0.0243  0.0115 -0.1789
   31SAPC  H18R 4171   4.420   3.744   7.909 -0.9578 -0.9474 -2.0196
   31SAPC  H18S 4172   4.424   3.837   7.759 -0.4482 -0.6275 -0.0844
   31SAPC  C219 4173   4.526   3.928   7.938  0.2107  0.2025  0.4722
   31SAPC  H19R 4174   4.440   3.999   7.938 -0.5159 -0.6361 -0.7794
   31SAPC  H19S 4175   4.602   3.993   7.889 -2.0492  3.8681  1.4431
   31SAPC  C220 4176   4.551   3.893   8.079 -0.6255 -0.2724 -0.6846
   31SAPC  H20R 4177   4.640   3.826   8.074  0.1379  0.7686 -1.5199
   31SAPC  H20S 4178   4.464   3.852   8.134 -0.3770 -1.0811 -0.8757
   31SAPC  H20T 4179   4.576   3.988   8.131 -1.0548 -0.6118  0.1507
   31SAPC   C33 4180   3.791   4.320   7.033 -0.7593 -0.6277  0.0882
   31SAPC   H3X 4181   3.754   4.422   7.010 -0.5099 -0.2815  1.1548
   31SAPC   H3Y 4182   3.896   4.322   6.996 -0.7192 -1.1912  0.1587
   31SAPC   C34 4183   3.786   4.321   7.189  0.4901 -0.3575 -0.1109
   31SAPC   H4X 4184   3.852   4.241   7.228  0.9253 -1.1454 -2.3304
   31SAPC   H4Y 4185   3.680   4.291   7.204 -0.5901  0.7011 -4.2806
   31SAPC   C35 4186   3.819   4.460   7.245  0.2119 -0.0844  0.0313
   31SAPC   H5X 4187   3.744   4.529   7.201 -0.8099 -0.4230  1.2001
   31SAPC   H5Y 4188   3.918   4.496   7.208  0.9185  0.0451  1.9635
   31SAPC   C36 4189   3.806   4.466   7.400  0.0266 -0.0713 -0.7260
   31SAPC   H6X 4190   3.834   4.564   7.445  0.3232 -0.8703  0.8941
   31SAPC   H6Y 4191   3.879   4.388   7.431 -0.1943  0.4784  1.2888
   31SAPC   C37 4192   3.667   4.425   7.453 -0.4586  0.3363  0.1815
   31SAPC   H7X 4193   3.631   4.327   7.415  1.1304 -1.5870  3.2207
   31SAPC   H7Y 4194   3.587   4.497   7.426 -0.1144  0.7891  0.3670
   31SAPC   C38 4195   3.677   4.398   7.606  0.1519  0.0426  0.0313
   31SAPC   H8X 4196   3.741   4.479   7.648 -0.4756  0.9679 -0.7578
   31SAPC   H8Y 4197   3.728   4.302   7.628  1.9327  0.9975  0.2119
   31SAPC   C39 4198   3.537   4.404   7.674  0.1108 -0.5849 -0.4368
   31SAPC   H9X 4199   3.472   4.317   7.650 -1.9847  0.4520  1.2422
   31SAPC   H9Y 4200   3.484   4.495   7.640  0.5471  0.3493  1.3015
   31SAPC  C310 4201   3.554   4.403   7.821 -0.2382  0.8389 -0.4624
   31SAPC  H10X 4202   3.618   4.485   7.860  0.2022  0.8017 -1.0956
   31SAPC  H10Y 4203   3.592   4.304   7.856 -1.4784  0.3312 -0.4775
   31SAPC  C311 4204   3.415   4.422   7.891 -0.7360  0.4193 -0.2090
   31SAPC  H11X 4205   3.430   4.391   7.997  1.5813 -3.8548 -1.5238
   31SAPC  H11Y 4206   3.337   4.359   7.843 -0.0393 -0.6351  0.0061
   31SAPC  C312 4207   3.373   4.568   7.895 -0.0406 -0.5287  0.1914
   31SAPC  H12X 4208   3.289   4.589   7.826 -1.0647  1.7808  2.0179
   31SAPC  H12Y 4209   3.460   4.628   7.861  0.7859 -1.6480  0.2534
   31SAPC  C313 4210   3.348   4.615   8.038  0.6000 -0.3102 -0.6575
   31SAPC  H13X 4211   3.435   4.582   8.099  0.5933 -0.1851 -0.5805
   31SAPC  H13Y 4212   3.254   4.567   8.072 -0.3456  0.6453 -1.8518
   31SAPC  C314 4213   3.350   4.773   8.048 -0.2295 -0.2816  0.2544
   31SAPC  H14X 4214   3.262   4.807   7.990  0.4752 -0.6542 -1.0827
   31SAPC  H14Y 4215   3.436   4.810   7.987 -0.6896 -0.6962 -0.6672
   31SAPC  C315 4216   3.347   4.834   8.186 -0.0585  0.3490  0.9506
   31SAPC  H15X 4217   3.435   4.792   8.239  0.4353  0.4026  0.1813
   31SAPC  H15Y 4218   3.261   4.796   8.246 -0.5779 -0.5737 -0.3449
   31SAPC  C316 4219   3.328   4.988   8.175 -0.2741 -0.8826 -0.1521
   31SAPC  H16X 4220   3.275   5.015   8.082 -0.9056  2.6999  1.1172
   31SAPC  H16Y 4221   3.431   5.026   8.157 -0.3135 -0.1159  1.1647
   31SAPC  C317 4222   3.255   5.053   8.293  0.1305 -0.5662  0.4985
   31SAPC  H17X 4223   3.286   5.014   8.392 -1.7837  0.4530  1.5692
   31SAPC  H17Y 4224   3.146   5.032   8.285  0.3652 -1.5741 -0.1885
   31SAPC  C318 4225   3.278   5.201   8.294 -0.1304  0.4598 -0.1451
   31SAPC  H18X 4226   3.240   5.238   8.196  2.6672  0.7887 -1.1959
   31SAPC  H18Y 4227   3.389   5.208   8.300 -0.1383 -0.5436  3.1739
   31SAPC  H18Z 4228   3.237   5.258   8.380  0.3641  0.1223  0.3221
   32SAPC     N 4229   4.771   4.928   5.871  0.1762  0.7376  0.1063
   32SAPC   C12 4230   4.662   5.031   5.860  0.0185 -0.4755  0.2300
   32SAPC  H12A 4231   4.568   4.980   5.873  0.2220 -0.2603  3.2913
   32SAPC  H12B 4232   4.665   5.062   5.756 -1.0601 -2.1988 -0.3616
   32SAPC   C13 4233   4.900   4.985   5.855 -0.3905  0.4463  0.5063
   32SAPC  H13A 4234   4.907   5.058   5.935 -0.8496 -0.3423  1.2750
   32SAPC  H13B 4235   4.980   4.913   5.848  0.0160  0.9094  0.2535
   32SAPC  H13C 4236   4.919   5.037   5.762  2.6067 -1.3573 -0.0267
   32SAPC   C14 4237   4.775   4.852   6.006  0.0257  0.0928  0.9629
   32SAPC  H14A 4238   4.779   4.918   6.091 -2.6062 -0.1319  1.3499
   32SAPC  H14B 4239   4.701   4.775   6.021  0.4265 -0.7459 -1.0715
   32SAPC  H14C 4240   4.865   4.792   6.005 -0.6721 -1.0085 -1.1643
   32SAPC   C15 4241   4.771   4.830   5.761 -0.0422  0.0547 -0.2963
   32SAPC  H15A 4242   4.835   4.744   5.775 -0.4519  0.1236  2.5927
   32SAPC  H15B 4243   4.672   4.789   5.744  0.2621 -0.5894 -0.5507
   32SAPC  H15C 4244   4.793   4.869   5.663 -0.4078  0.7018 -0.1329
   32SAPC   C11 4245   4.668   5.149   5.959  0.5447 -0.1172  0.5685
   32SAPC  H11A 4246   4.577   5.209   5.939  0.1093 -1.2790 -1.2405
   32SAPC  H11B 4247   4.763   5.201   5.935 -0.1653  0.8902 -0.1334
   32SAPC     P 4248   4.648   5.198   6.206  0.2233 -0.1250 -0.1235
   32SAPC   O13 4249   4.776   5.262   6.249  0.0166 -0.6400  0.2813
   32SAPC   O14 4250   4.529   5.280   6.178 -0.4809 -0.1503 -0.2118
   32SAPC   O12 4251   4.666   5.095   6.091 -0.1376  0.1718 -0.3937
   32SAPC   O11 4252   4.618   5.098   6.317  0.2623  0.2516  0.1694
   32SAPC    C1 4253   4.489   5.095   6.387 -0.5107  0.4224 -0.3518
   32SAPC    HA 4254   4.406   5.089   6.314 -0.5096  1.4261 -0.4457
   32SAPC    HB 4255   4.486   5.004   6.450 -2.0906  1.3173  0.9620
   32SAPC    C2 4256   4.484   5.211   6.490 -0.4204  0.0242 -0.3417
   32SAPC    HS 4257   4.485   5.308   6.436  0.3535  0.1954 -0.0395
   32SAPC   O21 4258   4.599   5.196   6.572 -0.4738 -0.2294 -0.1066
   32SAPC   C21 4259   4.665   5.298   6.608  0.8219 -1.5108  0.2348
   32SAPC   O22 4260   4.637   5.413   6.583 -0.4204  0.3484 -0.1548
   32SAPC   C22 4261   4.767   5.255   6.723  0.2414 -0.2950 -0.1607
   32SAPC   H2R 4262   4.710   5.210   6.807  0.5041  1.1822  0.8335
   32SAPC   H2S 4263   4.829   5.174   6.677  0.6790 -0.6575  1.0457
   32SAPC    C3 4264   4.358   5.231   6.576  0.5321  0.2562 -0.2243
   32SAPC    HX 4265   4.268   5.235   6.512  0.8272 -0.3144 -0.6846
   32SAPC    HY 4266   4.370   5.322   6.639  0.5914 -0.1061  0.2981
   32SAPC   O31 4267   4.340   5.120   6.667 -0.0778  0.3470  0.2924
   32SAPC   C31 4268   4.402   5.119   6.784  0.2473 -0.0651  0.6414
   32SAPC   O32 4269   4.456   5.214   6.836  0.1464 -0.4052 -0.1038
   32SAPC   C32 4270   4.381   4.985   6.849  0.4191  0.3207  0.2380
   32SAPC   H2X 4271   4.481   4.938   6.839 -0.5291 -1.7500  0.0169
   32SAPC   H2Y 4272   4.305   4.934   6.786 -2.1975  2.5871  1.3557
   32SAPC   C23 4273   4.857   5.369   6.779  0.0544  0.3465 -0.2333
   32SAPC   H3R 4274   4.796   5.460   6.795  0.1437  0.2732  0.5904
   32SAPC   H3S 4275   4.943   5.392   6.712 -0.3497  1.3337 -0.4376
   32SAPC   C24 4276   4.902   5.326   6.925 -0.2970 -0.1892  0.2286
   32SAPC   H4R 4277   4.807   5.296   6.973  0.7052 -1.6366  1.4156
   32SAPC   H4S 4278   4.947   5.414   6.976  0.0854  0.2363 -0.8072
   32SAPC   C25 4279   4.998   5.208   6.925 -0.1172  0.2799  0.2212
   32SAPC   H5R 4280   4.958   5.132   6.857  0.1912  0.7600 -0.5059
   32SAPC   C26 4281   5.093   5.188   7.017  0.4668  0.2140 -0.5621
   32SAPC   H6R 4282   5.154   5.096   7.020 -0.3784 -0.3434  0.8035
   32SAPC   C27 4283   5.138   5.279   7.130 -0.2995 -0.5382 -0.2939
   32SAPC   H7R 4284   5.109   5.385   7.116  1.5365 -0.0387 -0.5512
   32SAPC   H7S 4285   5.248   5.297   7.134 -0.5656  1.6701 -1.2621
   32SAPC   C28 4286   5.080   5.242   7.264 -0.1603  0.0343  0.2632
   32SAPC   H8R 4287   4.973   5.266   7.261 -0.0157  0.6140 -1.4191
   32SAPC   C29 4288   5.130   5.155   7.351 -0.7678  0.3574  0.3347
   32SAPC   H9R 4289   5.078   5.131   7.445  0.9064 -0.3970  1.1062
   32SAPC  C210 4290   5.269   5.100   7.340  0.0822 -0.8794 -0.8295
   32SAPC  H10R 4291   5.309   5.121   7.441 -2.8110 -0.5589  0.3369
   32SAPC  H10S 4292   5.337   5.147   7.265 -0.6865  1.4479 -0.1705
   32SAPC  C211 4293   5.255   4.949   7.326  0.4070 -0.2732  0.9657
   32SAPC  H11R 4294   5.214   4.925   7.227 -2.9725 -0.5117  2.2809
   32SAPC  C212 4295   5.268   4.855   7.417  0.0258 -0.0626 -0.0634
   32SAPC  H12R 4296   5.255   4.751   7.382  0.0771  0.0441 -0.4056
   32SAPC  C213 4297   5.304   4.882   7.567 -0.2754 -0.0937  0.3175
   32SAPC  H13R 4298   5.256   4.978   7.595 -0.4153  0.3231 -1.2198
   32SAPC  H13S 4299   5.413   4.897   7.580 -0.5807  2.1515  0.7561
   32SAPC  C214 4300   5.247   4.770   7.657  0.0453 -0.0163 -1.0207
   32SAPC  H14R 4301   5.156   4.717   7.624 -2.3423  2.5685  0.9050
   32SAPC  C215 4302   5.294   4.737   7.780  0.0730 -0.4790 -0.2409
   32SAPC  H15R 4303   5.233   4.658   7.826  0.0103 -1.1705 -1.4541
   32SAPC  C216 4304   5.412   4.791   7.851 -0.1575  0.2398  0.3336
   32SAPC  H16R 4305   5.465   4.871   7.795  0.9617 -0.3063  0.5769
   32SAPC  H16S 4306   5.500   4.724   7.865  0.5277  0.8662 -0.8387
   32SAPC  C217 4307   5.389   4.854   7.986 -0.1846 -0.4375  0.4584
   32SAPC  H17R 4308   5.310   4.932   7.988  0.2809  0.2016 -2.1447
   32SAPC  H17S 4309   5.486   4.904   8.006 -1.2110  1.8591  0.0148
   32SAPC  C218 4310   5.364   4.751   8.101 -0.8873 -0.5052  0.0427
   32SAPC  H18R 4311   5.459   4.693   8.108  1.2751  2.7378 -0.1763
   32SAPC  H18S 4312   5.282   4.684   8.067 -0.8590 -1.3633  1.5584
   32SAPC  C219 4313   5.313   4.813   8.230 -0.1163 -0.7536  1.0046
   32SAPC  H19R 4314   5.225   4.878   8.214  0.9338  0.4728 -0.0171
   32SAPC  H19S 4315   5.399   4.867   8.275 -0.4167  1.5166 -0.9789
   32SAPC  C220 4316   5.276   4.693   8.327 -0.5453 -0.2462  0.0223
   32SAPC  H20R 4317   5.179   4.707   8.381 -1.0683 -1.0177 -0.6793
   32SAPC  H20S 4318   5.364   4.685   8.394 -0.3760  2.4053  0.2024
   32SAPC  H20T 4319   5.269   4.594   8.276 -0.4388  0.3877 -1.2527
   32SAPC   C33 4320   4.335   4.980   6.993 -0.4568 -0.1036 -1.0770
   32SAPC   H3X 4321   4.410   5.036   7.053  0.2663  0.7135 -2.6633
   32SAPC   H3Y 4322   4.351   4.881   7.039  0.9903  0.6371  0.1229
   32SAPC   C34 4323   4.190   5.019   7.026  0.0931 -0.1696  0.1317
   32SAPC   H4X 4324   4.128   4.945   6.969  0.0723 -1.0506  1.2587
   32SAPC   H4Y 4325   4.165   5.117   6.981  2.7737  0.8985  0.7783
   32SAPC   C35 4326   4.147   5.029   7.171  0.1499 -0.4720 -0.1194
   32SAPC   H5X 4327   4.194   4.945   7.226  0.0334 -1.4423 -1.4339
   32SAPC   H5Y 4328   4.036   5.029   7.174 -0.1958  2.3416 -4.1685
   32SAPC   C36 4329   4.186   5.162   7.235 -0.1930 -0.3064  0.5484
   32SAPC   H6X 4330   4.163   5.252   7.174  2.5122 -0.4337 -0.8159
   32SAPC   H6Y 4331   4.297   5.161   7.243 -0.3270 -0.1735  3.4640
   32SAPC   C37 4332   4.131   5.177   7.380  0.3327 -0.7266 -0.5705
   32SAPC   H7X 4333   4.020   5.175   7.374  0.3479  0.3003 -1.7175
   32SAPC   H7Y 4334   4.159   5.280   7.410  4.0527 -1.5229 -0.8987
   32SAPC   C38 4335   4.175   5.078   7.484 -0.3530  0.0231 -0.3359
   32SAPC   H8X 4336   4.284   5.056   7.480 -0.6131 -1.2342 -1.3199
   32SAPC   H8Y 4337   4.143   4.976   7.454  0.6107 -0.3988  0.0217
   32SAPC   C39 4338   4.146   5.104   7.628 -0.2963 -0.0645  0.1134
   32SAPC   H9X 4339   4.036   5.094   7.638 -0.2770 -0.4323 -0.0075
   32SAPC   H9Y 4340   4.180   5.206   7.654 -0.9189  0.6163 -1.6382
   32SAPC  C310 4341   4.203   4.992   7.720 -0.5927  0.3426  0.0282
   32SAPC  H10X 4342   4.313   4.996   7.702 -0.5617 -0.7953 -0.0835
   32SAPC  H10Y 4343   4.180   4.891   7.681 -0.8316 -0.8572  3.0889
   32SAPC  C311 4344   4.168   4.998   7.866  0.6601  0.0050 -0.0590
   32SAPC  H11X 4345   4.218   5.085   7.915  1.0025  0.1479 -0.6384
   32SAPC  H11Y 4346   4.212   4.907   7.911 -0.3984 -0.9480 -0.8976
   32SAPC  C312 4347   4.020   5.016   7.898  0.4228 -0.5761 -0.4482
   32SAPC  H12X 4348   3.963   4.938   7.844 -0.6442 -0.4928  0.5169
   32SAPC  H12Y 4349   3.993   5.116   7.858  0.0873 -1.3864 -2.3159
   32SAPC  C313 4350   4.003   5.015   8.049 -0.8044 -0.2119 -0.0220
   32SAPC  H13X 4351   4.072   5.087   8.097 -2.0952  2.1413 -1.4755
   32SAPC  H13Y 4352   4.026   4.917   8.097 -0.9684  0.0810  0.6661
   32SAPC  C314 4353   3.861   5.059   8.087  0.2261  0.0627  0.0366
   32SAPC  H14X 4354   3.780   4.994   8.048  0.2018 -0.7259  1.3685
   32SAPC  H14Y 4355   3.837   5.163   8.055  2.0214  0.5754  0.2508
   32SAPC  C315 4356   3.846   5.036   8.234  0.7862 -0.2013 -0.1956
   32SAPC  H15X 4357   3.911   5.109   8.287  2.7711 -2.4268  0.6313
   32SAPC  H15Y 4358   3.874   4.933   8.265  0.4351 -0.6437 -1.3190
   32SAPC  C316 4359   3.710   5.051   8.296  0.3046 -0.4687 -0.6395
   32SAPC  H16X 4360   3.634   4.971   8.280 -1.8047  1.8085 -3.0238
   32SAPC  H16Y 4361   3.659   5.142   8.255  0.9597  0.8654  1.3698
   32SAPC  C317 4362   3.721   5.062   8.446 -0.4641 -0.0186 -0.2050
   32SAPC  H17X 4363   3.809   5.125   8.472 -1.6376  1.6881 -0.2241
   32SAPC  H17Y 4364   3.740   4.959   8.484 -4.5726 -1.7971 -2.3183
   32SAPC  C318 4365   3.605   5.111   8.531 -0.1481  0.1327  0.3869
   32SAPC  H18X 4366   3.582   5.219   8.519  1.9939  1.0348  3.4526
   32SAPC  H18Y 4367   3.631   5.103   8.638  1.6887  0.6470  0.0039
   32SAPC  H18Z 4368   3.520   5.041   8.514  0.8476 -1.1118  0.3889
   33POPC     N 4369   2.374   6.154  10.652 -0.3676  0.0253  0.5915
   33POPC   C12 4370   2.415   6.294  10.652 -0.4594 -0.4133  0.9306
   33POPC  H12A 4371   2.520   6.302  10.674 -0.5662  1.5294  0.9416
   33POPC  H12B 4372   2.360   6.337  10.735 -1.3492  0.7143 -0.1989
   33POPC   C13 4373   2.396   6.091  10.519 -0.2552  0.4179  0.0366
   33POPC  H13A 4374   2.347   6.146  10.440  1.8604  1.3330 -0.7142
   33POPC  H13B 4375   2.500   6.092  10.489 -0.6455 -3.6029 -2.1119
   33POPC  H13C 4376   2.374   5.986  10.516  0.3137  0.3074 -2.1636
   33POPC   C14 4377   2.432   6.084  10.775 -0.2367 -0.1905  0.0439
   33POPC  H14A 4378   2.384   6.107  10.869 -0.0402 -0.4939  0.2184
   33POPC  H14B 4379   2.434   5.978  10.758 -0.4080 -0.0302 -1.0336
   33POPC  H14C 4380   2.537   6.109  10.778  0.0081 -1.2708  1.3390
   33POPC   C15 4381   2.228   6.157  10.681 -0.4709  0.2631  0.7972
   33POPC  H15A 4382   2.189   6.057  10.687  1.7362 -0.6415  1.1188
   33POPC  H15B 4383   2.177   6.209  10.601 -2.2165  2.8689  3.4307
   33POPC  H15C 4384   2.212   6.209  10.774 -2.4301  2.0571 -0.4469
   33POPC   C11 4385   2.391   6.379  10.529 -0.2955 -0.4292 -0.1948
   33POPC  H11A 4386   2.453   6.328  10.451 -1.1010 -1.3984 -0.2244
   33POPC  H11B 4387   2.446   6.475  10.535 -2.5661  0.8872  0.4663
   33POPC     P 4388   2.159   6.493  10.531 -0.1828 -0.2470  0.1439
   33POPC   O13 4389   2.191   6.524  10.672  0.3936  0.8794  0.2504
   33POPC   O14 4390   2.020   6.445  10.515  0.8207 -0.3800  0.2451
   33POPC   O12 4391   2.261   6.385  10.478  0.3683  0.4694 -0.0102
   33POPC   O11 4392   2.188   6.623  10.448 -0.5387 -0.2871 -0.0374
   33POPC    C1 4393   2.234   6.632  10.311 -0.1161 -0.2306 -0.7531
   33POPC    HA 4394   2.277   6.734  10.302  0.1880 -0.0602  1.8060
   33POPC    HB 4395   2.306   6.550  10.290  0.9116  0.5704 -0.4961
   33POPC    C2 4396   2.115   6.622  10.211  0.2036 -0.9196  0.4847
   33POPC    HS 4397   2.025   6.668  10.258 -1.0398 -2.4369 -0.3396
   33POPC   O21 4398   2.090   6.485  10.175  0.1330  0.4447 -0.2011
   33POPC   C21 4399   1.964   6.448  10.177 -0.9659  0.3228 -0.2072
   33POPC   O22 4400   1.874   6.515  10.220  0.1552 -0.2529 -0.1056
   33POPC   C22 4401   1.945   6.304  10.129  0.2968 -0.0707  0.3860
   33POPC   H2R 4402   1.841   6.270  10.144  0.7522 -1.1444  1.2243
   33POPC   H2S 4403   1.996   6.234  10.198 -2.2165 -4.4359 -1.7340
   33POPC    C3 4404   2.152   6.695  10.081  0.1620  0.2080  0.2465
   33POPC    HX 4405   2.234   6.641  10.030 -1.7754 -1.2304 -1.5252
   33POPC    HY 4406   2.183   6.791  10.128 -0.3372 -0.2388  1.5469
   33POPC   O31 4407   2.036   6.711  10.001  0.0524  0.5939  0.1983
   33POPC   C31 4408   2.057   6.802   9.906  1.0168  0.0087  0.2857
   33POPC   O32 4409   2.161   6.856   9.879  0.4088 -0.0766 -0.7814
   33POPC   C32 4410   1.930   6.806   9.818  0.0411 -0.1451  0.0975
   33POPC   H2X 4411   1.840   6.851   9.865 -1.2107  0.3945 -2.6256
   33POPC   H2Y 4412   1.891   6.704   9.799  0.0904  0.0656 -1.2598
   33POPC   C23 4413   2.004   6.277   9.993  0.4156 -0.0831  0.6685
   33POPC   H3R 4414   1.982   6.174   9.958 -0.6439  0.0598  0.8760
   33POPC   H3S 4415   2.114   6.294  10.001  0.1722  1.1380  1.8785
   33POPC   C24 4416   1.951   6.362   9.878  0.3172  0.6620  0.0678
   33POPC   H4R 4417   1.922   6.465   9.905 -1.2958  0.4537 -0.7467
   33POPC   H4S 4418   1.860   6.308   9.843  1.0668  0.5606 -1.7943
   33POPC   C25 4419   2.045   6.373   9.761 -0.0740  0.1983  0.3086
   33POPC   H5R 4420   2.125   6.299   9.783 -1.8265 -1.5430  1.1277
   33POPC   H5S 4421   2.099   6.470   9.766 -0.3532  0.4849 -1.5941
   33POPC   C26 4422   1.977   6.344   9.624 -0.3906 -0.1057  0.4905
   33POPC   H6R 4423   1.897   6.414   9.593 -0.2985 -0.2538 -0.0941
   33POPC   H6S 4424   1.936   6.242   9.619 -3.2535  0.8566  2.1623
   33POPC   C27 4425   2.089   6.356   9.515  0.1047  0.0018 -0.1372
   33POPC   H7R 4426   2.164   6.288   9.561 -1.2795 -1.4273  0.0820
   33POPC   H7S 4427   2.122   6.461   9.504 -1.2543  0.7471  2.2704
   33POPC   C28 4428   2.052   6.295   9.379  0.9050 -0.1591  0.6978
   33POPC   H8R 4429   2.008   6.379   9.320 -0.0926  0.0896  1.7502
   33POPC   H8S 4430   1.960   6.233   9.390 -1.1774  2.1414 -2.0227
   33POPC   C29 4431   2.170   6.249   9.305  0.4581 -0.5304 -0.9448
   33POPC   H91 4432   2.247   6.193   9.359 -1.2725 -1.3962  0.7549
   33POPC  C210 4433   2.184   6.262   9.172  0.4327 -0.3783  0.1915
   33POPC  H101 4434   2.279   6.224   9.131 -0.1009 -2.7918  1.0106
   33POPC  C211 4435   2.078   6.333   9.082  0.0676  0.3189 -0.0311
   33POPC  H11R 4436   2.081   6.443   9.097  1.2167  0.1743  0.9593
   33POPC  H11S 4437   1.975   6.302   9.111  0.9013 -4.2994 -1.1389
   33POPC  C212 4438   2.119   6.301   8.939 -0.4978 -0.2022 -0.0164
   33POPC  H12R 4439   2.031   6.327   8.876 -0.0619 -2.4446 -1.6799
   33POPC  H12S 4440   2.123   6.190   8.927 -0.4689 -0.2097  0.0653
   33POPC  C213 4441   2.237   6.367   8.873 -0.1968 -0.0311  0.2166
   33POPC  H13R 4442   2.298   6.282   8.835 -0.1877 -0.6543  1.5409
   33POPC  H13S 4443   2.305   6.414   8.948 -0.2306  1.1020 -0.4389
   33POPC  C214 4444   2.218   6.488   8.771 -0.4144  0.1453  0.0680
   33POPC  H14R 4445   2.209   6.576   8.838  0.4638 -0.7167  1.3739
   33POPC  H14S 4446   2.123   6.478   8.715 -0.7963  0.8217  0.5752
   33POPC  C215 4447   2.348   6.509   8.692  0.1847 -0.3457  0.8252
   33POPC  H15R 4448   2.391   6.411   8.662 -0.3050 -0.0585 -0.9691
   33POPC  H15S 4449   2.420   6.562   8.757  1.4390  0.5094 -1.1502
   33POPC  C216 4450   2.331   6.600   8.567  0.3843  0.1685 -0.0461
   33POPC  H16R 4451   2.224   6.600   8.535  0.2486 -3.3902 -0.0010
   33POPC  H16S 4452   2.383   6.559   8.478 -0.9762 -1.4330 -0.1601
   33POPC  C217 4453   2.369   6.742   8.594 -0.4280  0.6905  0.4116
   33POPC  H17R 4454   2.474   6.741   8.631 -0.1030 -0.9683 -0.4628
   33POPC  H17S 4455   2.299   6.789   8.667 -3.1277 -0.0764 -1.5420
   33POPC  C218 4456   2.375   6.826   8.466 -0.2295 -0.5039 -0.2047
   33POPC  H18R 4457   2.404   6.931   8.488  0.6008 -0.3076 -2.0644
   33POPC  H18S 4458   2.280   6.824   8.410 -0.5105  0.2190  0.2344
   33POPC  H18T 4459   2.457   6.793   8.398 -1.4572 -0.8960 -1.5256
   33POPC   C33 4460   1.961   6.867   9.674 -0.0489 -0.3125 -0.7603
   33POPC   H3X 4461   2.045   6.818   9.621 -1.2098  1.2662 -4.3160
   33POPC   H3Y 4462   2.002   6.968   9.698  0.1776 -0.6423  0.2812
   33POPC   C34 4463   1.840   6.882   9.567  0.7320 -0.7470 -0.4421
   33POPC   H4X 4464   1.759   6.949   9.603 -1.5944 -3.8471  0.5559
   33POPC   H4Y 4465   1.802   6.778   9.553  0.4189 -0.7728  0.5081
   33POPC   C35 4466   1.876   6.931   9.431  0.0415  0.2286 -0.4454
   33POPC   H5X 4467   1.921   7.033   9.430  1.9391 -0.5666 -1.0681
   33POPC   H5Y 4468   1.789   6.937   9.362 -0.9763 -0.1656  0.7713
   33POPC   C36 4469   1.985   6.845   9.358 -0.3471 -0.1903 -0.9528
   33POPC   H6X 4470   2.074   6.824   9.421 -1.5634  1.3976  1.4066
   33POPC   H6Y 4471   2.014   6.904   9.268 -0.7735 -0.1338 -1.0568
   33POPC   C37 4472   1.934   6.720   9.288 -0.2474 -0.0262  0.8388
   33POPC   H7X 4473   1.855   6.675   9.352 -2.0509  1.0324 -0.5362
   33POPC   H7Y 4474   2.005   6.635   9.276 -0.3650  0.0388 -0.4637
   33POPC   C38 4475   1.856   6.748   9.144  0.0342  0.1456 -0.5457
   33POPC   H8X 4476   1.762   6.806   9.157 -0.6470 -0.7993 -1.1271
   33POPC   H8Y 4477   1.811   6.655   9.104  0.7348 -1.2881  1.7783
   33POPC   C39 4478   1.949   6.815   9.044 -0.6119  0.2684 -0.0172
   33POPC   H9X 4479   2.053   6.804   9.080  0.1617  1.0641 -1.8658
   33POPC   H9Y 4480   1.933   6.923   9.025  0.3188  0.3698 -0.2543
   33POPC  C310 4481   1.968   6.734   8.913  0.4348 -0.2269  0.2604
   33POPC  H10X 4482   1.874   6.720   8.855  0.1212  2.2275  0.0667
   33POPC  H10Y 4483   1.993   6.632   8.948  0.7217  0.4979  2.3016
   33POPC  C311 4484   2.062   6.794   8.810 -0.3101  0.6038  0.0586
   33POPC  H11X 4485   2.075   6.725   8.724 -1.0225 -0.2870  0.6515
   33POPC  H11Y 4486   2.163   6.809   8.854  0.6923 -2.0133 -1.1272
   33POPC  C312 4487   2.033   6.931   8.755 -0.4736 -0.7276 -0.0353
   33POPC  H12X 4488   1.989   6.993   8.836 -0.2239 -0.8242  0.1755
   33POPC  H12Y 4489   1.948   6.919   8.684  0.2407 -0.4466 -0.9568
   33POPC  C313 4490   2.149   7.004   8.689  0.2567 -0.8674 -0.5001
   33POPC  H13X 4491   2.172   6.965   8.587 -1.5477  0.3574 -1.4276
   33POPC  H13Y 4492   2.240   6.999   8.751 -0.5321  1.0058  0.9118
   33POPC  C314 4493   2.118   7.155   8.669 -0.2771  0.0047 -0.1650
   33POPC  H14X 4494   2.097   7.186   8.774 -1.3977 -1.4994  0.0865
   33POPC  H14Y 4495   2.026   7.161   8.607  1.2757 -0.0586 -2.5674
   33POPC  C315 4496   2.232   7.234   8.603  0.1447 -0.3555 -0.5864
   33POPC  H15X 4497   2.315   7.168   8.569  0.1811 -0.2623 -0.6793
   33POPC  H15Y 4498   2.287   7.298   8.675  1.5447 -2.2137  0.0945
   33POPC  C316 4499   2.199   7.323   8.485  0.0279  0.3742 -0.4183
   33POPC  H16X 4500   2.115   7.386   8.520 -0.8809 -1.0534  0.0574
   33POPC  H16Y 4501   2.173   7.270   8.391  0.7953  0.7967 -0.8736
   33POPC  H16Z 4502   2.286   7.389   8.463  0.4029 -0.3973 -1.3177
   34POPC     N 4503   1.080   6.330  10.900 -0.0144 -0.3117  0.2472
   34POPC   C12 4504   1.203   6.280  10.821  0.1691  0.0106  0.5801
   34POPC  H12A 4505   1.283   6.282  10.894  1.5799 -1.0450 -0.8623
   34POPC  H12B 4506   1.232   6.346  10.740 -0.0781 -0.2388  0.2837
   34POPC   C13 4507   1.040   6.236  11.015 -0.1936 -0.0527  0.6803
   34POPC  H13A 4508   0.939   6.258  11.046 -0.9778 -1.8645 -0.4837
   34POPC  H13B 4509   1.035   6.134  10.980  0.8041 -0.2475  1.0660
   34POPC  H13C 4510   1.120   6.249  11.087 -0.0595  0.6550  0.4184
   34POPC   C14 4511   1.102   6.471  10.958 -0.4105 -0.1692 -0.4811
   34POPC  H14A 4512   1.176   6.530  10.905 -0.2813  1.2554  1.2067
   34POPC  H14B 4513   1.010   6.523  10.980 -0.6069 -0.3162 -0.9278
   34POPC  H14C 4514   1.153   6.456  11.052 -0.6575 -1.1853 -0.5020
   34POPC   C15 4515   0.963   6.343  10.809 -0.8921  1.0664 -0.5275
   34POPC  H15A 4516   0.986   6.401  10.721  1.1613 -0.8491 -1.3291
   34POPC  H15B 4517   0.877   6.376  10.866 -1.3050 -0.0397 -0.4851
   34POPC  H15C 4518   0.943   6.246  10.766 -0.4431  1.4730 -1.6807
   34POPC   C11 4519   1.202   6.136  10.756  0.4549 -0.1456 -0.0241
   34POPC  H11A 4520   1.230   6.061  10.833 -0.3510  0.3550  0.7703
   34POPC  H11B 4521   1.286   6.132  10.683  1.0012 -1.3118  0.6455
   34POPC     P 4522   0.981   5.994  10.730  0.8053 -0.1698  0.1925
   34POPC   O13 4523   0.848   6.058  10.712 -0.1137 -0.2664 -0.1551
   34POPC   O14 4524   1.005   5.948  10.869 -0.1925 -0.2499  0.2246
   34POPC   O12 4525   1.081   6.110  10.686 -0.6302 -0.4367  0.0561
   34POPC   O11 4526   0.988   5.881  10.619  0.0749 -0.1150  0.1305
   34POPC    C1 4527   1.109   5.813  10.583 -0.4133 -0.2644 -0.0350
   34POPC    HA 4528   1.093   5.706  10.561 -3.0021  0.0481  0.0470
   34POPC    HB 4529   1.181   5.810  10.667 -1.2192 -0.6916  0.6589
   34POPC    C2 4530   1.180   5.873  10.458 -0.0241 -0.4713  0.1169
   34POPC    HS 4531   1.204   5.979  10.483 -0.2363 -0.2336 -0.6599
   34POPC   O21 4532   1.092   5.876  10.342  0.2169  0.2431  0.0624
   34POPC   C21 4533   1.113   5.968  10.253 -0.2899  0.0106 -0.1650
   34POPC   O22 4534   1.187   6.067  10.266  0.1284  0.2453 -0.1776
   34POPC   C22 4535   1.014   5.941  10.137  0.6270 -0.3945  0.6132
   34POPC   H2R 4536   0.986   6.048  10.131  0.7288 -0.4170 -0.5668
   34POPC   H2S 4537   0.931   5.873  10.166 -3.2721  2.4867 -2.5683
   34POPC    C3 4538   1.308   5.789  10.427 -0.5862  0.0180 -0.0035
   34POPC    HX 4539   1.277   5.683  10.439  2.1861 -1.0303 -1.2284
   34POPC    HY 4540   1.381   5.814  10.508 -0.6223  1.0477 -0.2744
   34POPC   O31 4541   1.359   5.804  10.292  0.1935 -0.7687  0.3627
   34POPC   C31 4542   1.485   5.832  10.262  0.4376 -0.7050 -0.6631
   34POPC   O32 4543   1.575   5.849  10.342 -0.0440  0.0625  0.1136
   34POPC   C32 4544   1.505   5.851  10.114  0.0837  0.0303  0.8869
   34POPC   H2X 4545   1.416   5.902  10.070  0.3147 -1.0131 -0.8962
   34POPC   H2Y 4546   1.507   5.751  10.067  0.3571  0.1037  0.7358
   34POPC   C23 4547   1.073   5.893  10.002  0.6002 -0.3916 -0.0693
   34POPC   H3R 4548   1.167   5.948   9.978  0.0846 -0.3491 -2.1788
   34POPC   H3S 4549   1.002   5.906   9.918  0.8235 -0.3904 -0.2602
   34POPC   C24 4550   1.107   5.741  10.002  0.2099  0.5268 -0.4385
   34POPC   H4R 4551   1.019   5.685  10.041  0.5448  0.5633  0.3670
   34POPC   H4S 4552   1.198   5.722  10.062 -0.9842 -1.2368  0.9071
   34POPC   C25 4553   1.127   5.683   9.866  0.0083  0.2505  0.1364
   34POPC   H5R 4554   1.054   5.727   9.794  1.7045  0.6417 -1.4341
   34POPC   H5S 4555   1.108   5.574   9.869  0.8502  0.1066  0.6753
   34POPC   C26 4556   1.266   5.704   9.811 -0.5982 -0.2579  0.7122
   34POPC   H6R 4557   1.338   5.648   9.875 -1.2506 -2.5166 -0.4068
   34POPC   H6S 4558   1.277   5.814   9.808 -3.5422  0.0885 -1.0487
   34POPC   C27 4559   1.296   5.637   9.678  0.5985  0.3889  0.2241
   34POPC   H7R 4560   1.249   5.536   9.678  0.9280  0.2334  0.3955
   34POPC   H7S 4561   1.407   5.627   9.667  0.6102 -0.9301  1.3045
   34POPC   C28 4562   1.238   5.730   9.568  0.5081 -0.0551  0.5494
   34POPC   H8R 4563   1.301   5.821   9.578  1.5679 -0.6591 -0.4298
   34POPC   H8S 4564   1.142   5.773   9.602  0.6895  2.1995 -1.5485
   34POPC   C29 4565   1.228   5.691   9.425 -0.9598 -0.4156  1.0856
   34POPC   H91 4566   1.329   5.681   9.382 -0.0469 -2.0167  3.4416
   34POPC  C210 4567   1.118   5.676   9.344  0.2075  0.6335 -0.1205
   34POPC  H101 4568   1.124   5.664   9.235 -0.4264  1.0448 -0.2053
   34POPC  C211 4569   0.973   5.677   9.394 -0.2481 -0.6955  0.1738
   34POPC  H11R 4570   0.921   5.756   9.338  1.5785  0.5702  0.1710
   34POPC  H11S 4571   0.949   5.684   9.503 -1.7057 -1.2221 -0.0962
   34POPC  C212 4572   0.902   5.539   9.355  0.3925  0.3353 -0.2742
   34POPC  H12R 4573   0.800   5.555   9.395  0.3085  0.1222 -0.4016
   34POPC  H12S 4574   0.948   5.452   9.406  0.6585 -0.5307 -1.9203
   34POPC  C213 4575   0.901   5.513   9.203  0.1814  0.2880  0.1436
   34POPC  H13R 4576   1.001   5.491   9.160  0.1269  1.5089 -0.6418
   34POPC  H13S 4577   0.871   5.604   9.147  0.8764 -0.5389 -1.6527
   34POPC  C214 4578   0.812   5.392   9.164  0.3006 -0.3272  0.2985
   34POPC  H14R 4579   0.834   5.356   9.061  0.3426 -0.7206  0.4431
   34POPC  H14S 4580   0.707   5.427   9.167  0.2997 -0.3564  0.6293
   34POPC  C215 4581   0.814   5.276   9.259  0.4594  0.2927 -0.1474
   34POPC  H15R 4582   0.771   5.290   9.361  0.1590 -1.3340 -0.0214
   34POPC  H15S 4583   0.922   5.256   9.272  0.5969  1.0737 -0.0602
   34POPC  C216 4584   0.738   5.154   9.198 -0.3997 -0.2563  0.0283
   34POPC  H16R 4585   0.779   5.104   9.107 -3.7235  0.5253 -2.0746
   34POPC  H16S 4586   0.646   5.206   9.165  0.7303  1.2005 -0.9816
   34POPC  C217 4587   0.722   5.050   9.302  0.8055  0.2934 -0.5915
   34POPC  H17R 4588   0.663   5.102   9.380  1.8927  0.8477 -0.1203
   34POPC  H17S 4589   0.818   5.011   9.343 -0.0325  0.6477  1.8393
   34POPC  C218 4590   0.642   4.922   9.262 -0.6339 -0.8321  0.8451
   34POPC  H18R 4591   0.700   4.875   9.180  1.3740  1.8769  0.5756
   34POPC  H18S 4592   0.543   4.948   9.219 -0.5237 -0.9270  0.5264
   34POPC  H18T 4593   0.625   4.847   9.342 -2.2304 -0.2613  1.0794
   34POPC   C33 4594   1.636   5.931  10.094 -0.6240  0.3533  0.7682
   34POPC   H3X 4595   1.714   5.863  10.134 -2.7863 -1.8132  1.6047
   34POPC   H3Y 4596   1.634   6.019  10.162  0.3417  1.4854 -0.6249
   34POPC   C34 4597   1.672   5.958   9.945  0.3129 -0.0214 -0.4345
   34POPC   H4X 4598   1.659   5.858   9.899 -0.8437 -0.9099  1.6924
   34POPC   H4Y 4599   1.778   5.993   9.950 -0.3000  2.1154 -1.1640
   34POPC   C35 4600   1.587   6.065   9.871 -0.1828  0.0421 -0.3469
   34POPC   H5X 4601   1.610   6.164   9.916 -0.3257  0.0865 -0.3694
   34POPC   H5Y 4602   1.480   6.050   9.899 -0.1251  1.2694  0.6169
   34POPC   C36 4603   1.622   6.084   9.723 -0.2838  0.2359  1.2366
   34POPC   H6X 4604   1.639   5.988   9.671  0.1966  0.8659  0.2233
   34POPC   H6Y 4605   1.717   6.140   9.717  0.0155 -0.2418  1.5016
   34POPC   C37 4606   1.526   6.156   9.632  1.0703  0.1645  0.4675
   34POPC   H7X 4607   1.519   6.263   9.660  0.9091  0.2326  0.1781
   34POPC   H7Y 4608   1.427   6.104   9.635  0.9847  0.1937 -1.0568
   34POPC   C38 4609   1.583   6.169   9.495 -0.1492 -0.3803  0.8958
   34POPC   H8X 4610   1.593   6.069   9.446  0.2031 -0.6278  1.4627
   34POPC   H8Y 4611   1.689   6.202   9.499 -0.0471 -0.8110  2.4933
   34POPC   C39 4612   1.501   6.270   9.411  0.9841  0.8044 -0.6410
   34POPC   H9X 4613   1.474   6.352   9.481  0.2553 -0.0297  0.0824
   34POPC   H9Y 4614   1.407   6.216   9.385  2.5259 -0.9503 -3.0153
   34POPC  C310 4615   1.569   6.314   9.280 -0.0264  0.3325  0.1339
   34POPC  H10X 4616   1.679   6.313   9.293  0.4293 -1.4221 -2.9000
   34POPC  H10Y 4617   1.524   6.412   9.256  0.2530  0.5745  0.5881
   34POPC  C311 4618   1.545   6.220   9.160 -0.3802  0.2176  0.6870
   34POPC  H11X 4619   1.443   6.229   9.117 -0.8179  3.1551  2.0917
   34POPC  H11Y 4620   1.575   6.125   9.209 -0.2111  0.0557  0.2765
   34POPC  C312 4621   1.647   6.249   9.049 -0.3229  0.0194  0.5283
   34POPC  H12X 4622   1.669   6.163   8.984  2.4184  1.2387 -0.2931
   34POPC  H12Y 4623   1.743   6.283   9.092  1.6922 -0.9707 -2.8427
   34POPC  C313 4624   1.603   6.374   8.967  0.7910  0.3004  0.3695
   34POPC  H13X 4625   1.624   6.460   9.035  0.7450  2.1241 -1.8200
   34POPC  H13Y 4626   1.496   6.361   8.942  0.6665 -1.2482  1.5411
   34POPC  C314 4627   1.687   6.377   8.842 -0.2505  0.4647  0.4380
   34POPC  H14X 4628   1.670   6.278   8.795  2.3790 -0.1903  0.7040
   34POPC  H14Y 4629   1.795   6.391   8.866 -0.5658 -0.9979  3.2310
   34POPC  C315 4630   1.632   6.484   8.747 -0.1316  0.3822 -0.6174
   34POPC  H15X 4631   1.616   6.580   8.801 -2.2245 -0.1503 -0.2305
   34POPC  H15Y 4632   1.528   6.459   8.718 -0.1827  0.2346 -0.3093
   34POPC  C316 4633   1.732   6.512   8.634 -0.2867 -0.4165 -0.0814
   34POPC  H16X 4634   1.754   6.421   8.574  1.2096 -1.4070  1.8259
   34POPC  H16Y 4635   1.831   6.529   8.682  0.7869 -0.9950 -1.9946
   34POPC  H16Z 4636   1.691   6.588   8.564 -1.0581  0.8779  1.6911
   35POPC     N 4637   1.181   4.841  10.944 -0.7316 -0.6574  1.3049
   35POPC   C12 4638   1.092   4.725  10.974 -0.0908 -0.0757  0.3801
   35POPC  H12A 4639   1.157   4.639  10.970  0.3128  0.2452 -2.0745
   35POPC  H12B 4640   1.026   4.725  10.888  1.7640 -0.7703 -1.1067
   35POPC   C13 4641   1.300   4.856  11.034 -0.6221 -0.5193 -0.7427
   35POPC  H13A 4642   1.366   4.771  11.021  0.6829  0.1713  0.8407
   35POPC  H13B 4643   1.360   4.945  11.026 -0.5710 -0.3170  1.2801
   35POPC  H13C 4644   1.272   4.863  11.138 -1.1876  0.1139 -0.9382
   35POPC   C14 4645   1.243   4.824  10.809  0.6822 -0.4548 -0.0393
   35POPC  H14A 4646   1.181   4.853  10.725 -0.6189 -0.3219  0.9438
   35POPC  H14B 4647   1.333   4.883  10.797 -0.4765  1.2300 -0.8514
   35POPC  H14C 4648   1.268   4.720  10.794 -1.2731 -1.2757  1.9072
   35POPC   C15 4649   1.110   4.969  10.945  0.0543  0.2406  0.7705
   35POPC  H15A 4650   1.011   4.952  10.906  0.8202 -3.2155  0.0331
   35POPC  H15B 4651   1.161   5.043  10.885 -1.2076  0.9511  0.5464
   35POPC  H15C 4652   1.102   5.007  11.046  1.5582  0.3954  0.8600
   35POPC   C11 4653   0.999   4.739  11.097  0.2350 -0.5510 -0.9811
   35POPC  H11A 4654   1.064   4.765  11.183 -0.8863 -2.0063  0.3715
   35POPC  H11B 4655   0.963   4.635  11.115  1.3532 -0.8786 -0.6042
   35POPC     P 4656   0.745   4.780  11.011 -0.3078  0.5195  0.2943
   35POPC   O13 4657   0.640   4.884  11.025 -0.7845 -0.2595  0.3802
   35POPC   O14 4658   0.703   4.645  11.057 -0.6602 -0.4342 -0.1170
   35POPC   O12 4659   0.888   4.829  11.085  0.9959  0.6393  0.1550
   35POPC   O11 4660   0.795   4.767  10.863  0.3189  0.0790 -0.5112
   35POPC    C1 4661   0.760   4.859  10.759 -0.3459 -0.1270 -0.3061
   35POPC    HA 4662   0.848   4.880  10.695  1.4233  0.1283  2.0694
   35POPC    HB 4663   0.733   4.958  10.801  0.1755 -0.2890  0.4361
   35POPC    C2 4664   0.645   4.801  10.674 -0.0920 -0.0960  0.4238
   35POPC    HS 4665   0.573   4.769  10.752  0.4055  0.7816  1.2675
   35POPC   O21 4666   0.696   4.693  10.599  0.2888 -0.2741 -0.9120
   35POPC   C21 4667   0.607   4.602  10.557 -0.3985  0.5063  0.2068
   35POPC   O22 4668   0.492   4.587  10.602  0.3886  0.0769 -0.5193
   35POPC   C22 4669   0.669   4.519  10.451  0.0993 -0.6608  0.2619
   35POPC   H2R 4670   0.728   4.434  10.490 -0.1623 -1.1749 -0.4558
   35POPC   H2S 4671   0.746   4.577  10.395 -2.3767  1.7978 -0.8562
   35POPC    C3 4672   0.581   4.911  10.587 -0.1920 -0.2905 -0.3145
   35POPC    HX 4673   0.658   4.988  10.562 -2.3837  1.7609 -1.1579
   35POPC    HY 4674   0.510   4.970  10.649  1.6382  1.8364 -0.0843
   35POPC   O31 4675   0.516   4.861  10.468 -0.6741 -0.4950  0.4385
   35POPC   C31 4676   0.473   4.963  10.396  1.0187  0.1004 -0.9479
   35POPC   O32 4677   0.453   5.075  10.440  0.1741 -0.2390 -0.5325
   35POPC   C32 4678   0.422   4.903  10.270  0.2136 -0.1416  0.4000
   35POPC   H2X 4679   0.327   4.956  10.245  0.8510 -0.2349 -2.5391
   35POPC   H2Y 4680   0.397   4.795  10.286 -0.4407 -0.0966 -0.2539
   35POPC   C23 4681   0.563   4.459  10.359 -0.3642  0.0976  0.1243
   35POPC   H3R 4682   0.520   4.532  10.287 -2.9191  0.4264  1.8711
   35POPC   H3S 4683   0.476   4.426  10.420  0.3549  0.6108  1.4591
   35POPC   C24 4684   0.621   4.343  10.281  0.1183 -0.0267 -0.5448
   35POPC   H4R 4685   0.660   4.264  10.348 -2.0571 -1.7383 -1.1711
   35POPC   H4S 4686   0.706   4.387  10.226 -0.1249 -0.1498 -1.0222
   35POPC   C25 4687   0.513   4.282  10.194  0.1280 -0.4497 -0.2028
   35POPC   H5R 4688   0.477   4.347  10.112  2.0274  1.0575  0.1004
   35POPC   H5S 4689   0.426   4.267  10.263 -1.7927 -0.6516 -2.5378
   35POPC   C26 4690   0.571   4.162  10.117 -0.0718 -0.3206 -0.0064
   35POPC   H6R 4691   0.636   4.096  10.179  0.6522  0.8105  0.4694
   35POPC   H6S 4692   0.643   4.206  10.046 -0.2005  0.6269  0.4317
   35POPC   C27 4693   0.472   4.073  10.051  0.1100  0.2886  0.2321
   35POPC   H7R 4694   0.394   4.044  10.124 -0.3612  0.0174 -0.3744
   35POPC   H7S 4695   0.514   3.981  10.006  0.1790  0.5985 -0.3450
   35POPC   C28 4696   0.381   4.145   9.951  0.2440 -0.6246  0.6577
   35POPC   H8R 4697   0.318   4.216  10.009  0.6746 -0.0852  0.4683
   35POPC   H8S 4698   0.315   4.067   9.906 -0.5268 -0.6007  1.7078
   35POPC   C29 4699   0.469   4.222   9.847 -0.0066  0.4912 -0.1985
   35POPC   H91 4700   0.474   4.330   9.865 -0.2713  0.4913 -0.1116
   35POPC  C210 4701   0.555   4.171   9.760  0.6149 -0.0392  0.6239
   35POPC  H101 4702   0.604   4.238   9.687 -1.0738  0.1816 -0.3616
   35POPC  C211 4703   0.565   4.020   9.728 -0.2505 -0.2820 -0.4086
   35POPC  H11R 4704   0.463   3.975   9.734  0.3886 -1.7561 -0.1358
   35POPC  H11S 4705   0.631   3.975   9.806  1.8074  2.7425 -0.2610
   35POPC  C212 4706   0.628   3.999   9.594  0.0636 -0.4736 -0.3075
   35POPC  H12R 4707   0.642   3.889   9.591 -3.0571 -0.9956  0.6905
   35POPC  H12S 4708   0.727   4.048   9.609  0.1356 -1.3154  2.9193
   35POPC  C213 4709   0.539   4.053   9.484  0.3727 -0.1584  0.4387
   35POPC  H13R 4710   0.533   4.162   9.467 -0.8287 -0.6416 -3.2208
   35POPC  H13S 4711   0.439   4.004   9.483  0.3765 -0.1833  1.1162
   35POPC  C214 4712   0.602   4.010   9.351 -0.0261  0.0242 -0.2960
   35POPC  H14R 4713   0.598   3.899   9.353  0.1162  0.0236  1.1289
   35POPC  H14S 4714   0.710   4.036   9.351  0.7819 -2.9944 -0.4401
   35POPC  C215 4715   0.533   4.045   9.223  0.6270 -0.0666  0.7388
   35POPC  H15R 4716   0.516   4.154   9.211 -2.4095 -0.6711 -1.9917
   35POPC  H15S 4717   0.433   3.996   9.221  0.1969  0.7547  1.3302
   35POPC  C216 4718   0.613   3.993   9.096  0.2723  0.5414 -0.2863
   35POPC  H16R 4719   0.618   3.882   9.100  0.3706  0.5691  1.7791
   35POPC  H16S 4720   0.708   4.050   9.094  1.0443 -0.6961 -0.1869
   35POPC  C217 4721   0.531   4.016   8.962  0.3662  0.0021 -0.0317
   35POPC  H17R 4722   0.518   4.126   8.961 -0.2090 -0.0473 -1.9114
   35POPC  H17S 4723   0.430   3.970   8.967  0.8895 -1.2199 -0.2563
   35POPC  C218 4724   0.609   3.989   8.831 -0.5002 -0.6184  0.3467
   35POPC  H18R 4725   0.549   4.036   8.750  1.5413  0.6411 -0.5169
   35POPC  H18S 4726   0.626   3.879   8.828  0.6791 -0.4373 -0.2017
   35POPC  H18T 4727   0.709   4.037   8.825  0.0016 -1.5500  1.0291
   35POPC   C33 4728   0.519   4.940  10.149 -0.4146 -0.1070 -0.3363
   35POPC   H3X 4729   0.564   4.846  10.111 -1.0267 -0.5535  0.0270
   35POPC   H3Y 4730   0.593   5.018  10.180  0.4199 -1.5995  1.6646
   35POPC   C34 4731   0.438   4.995  10.029  0.0426 -0.1343  0.5155
   35POPC   H4X 4732   0.433   5.105  10.035 -0.0845 -0.1798  1.5099
   35POPC   H4Y 4733   0.329   4.978  10.046 -0.3050 -1.1777 -2.2016
   35POPC   C35 4734   0.464   4.937   9.892 -0.2007  0.3403 -0.8082
   35POPC   H5X 4735   0.468   4.826   9.885 -1.6112  0.2947 -1.0368
   35POPC   H5Y 4736   0.571   4.966   9.877  0.6720 -0.7615  2.4678
   35POPC   C36 4737   0.392   5.003   9.775 -0.9124 -0.2059  0.3433
   35POPC   H6X 4738   0.385   5.113   9.793 -1.1773 -0.4708  2.0169
   35POPC   H6Y 4739   0.283   4.982   9.784 -1.2611  0.1910 -2.2693
   35POPC   C37 4740   0.462   4.991   9.643 -0.1473  0.5328  0.3280
   35POPC   H7X 4741   0.455   4.886   9.609  1.6288  0.0664  1.2710
   35POPC   H7Y 4742   0.572   5.005   9.656 -0.3395  0.7300  2.0618
   35POPC   C38 4743   0.413   5.083   9.542  0.0661  0.8517  0.3359
   35POPC   H8X 4744   0.478   5.061   9.455  1.3462 -1.6740  1.8199
   35POPC   H8Y 4745   0.446   5.181   9.583  2.3870  0.3951 -0.3071
   35POPC   C39 4746   0.261   5.063   9.520  0.1743  0.5608  0.3101
   35POPC   H9X 4747   0.205   5.077   9.615  2.1784 -1.6727  1.9316
   35POPC   H9Y 4748   0.255   4.955   9.496  0.3604  0.6236 -0.0270
   35POPC  C310 4749   0.207   5.158   9.408 -0.1680 -0.2573  0.8073
   35POPC  H10X 4750   0.241   5.261   9.429  1.6510 -0.4082 -1.1089
   35POPC  H10Y 4751   0.096   5.148   9.418  0.0216 -1.2108  2.3067
   35POPC  C311 4752   0.255   5.109   9.266  0.1605  1.0904  0.5923
   35POPC  H11X 4753   0.250   4.998   9.276 -0.8076  0.6999 -3.0415
   35POPC  H11Y 4754   0.359   5.142   9.243 -0.3691  2.2079 -0.2903
   35POPC  C312 4755   0.175   5.160   9.144 -0.0811 -0.0533 -0.4533
   35POPC  H12X 4756   0.190   5.269   9.132  2.6247 -0.0626  1.7516
   35POPC  H12Y 4757   0.066   5.153   9.163 -0.3235  0.1090 -1.7380
   35POPC  C313 4758   0.200   5.087   9.010  0.4478  0.0450 -0.4304
   35POPC  H13X 4759   0.182   4.981   9.039 -1.6035  0.0378 -1.5686
   35POPC  H13Y 4760   0.303   5.097   8.970  0.3644 -2.0464 -1.2755
   35POPC  C314 4761   0.098   5.133   8.902 -0.4504  0.3452 -0.5348
   35POPC  H14X 4762   0.121   5.233   8.860 -1.3475  0.9533  0.3801
   35POPC  H14Y 4763  -0.005   5.123   8.942 -1.9259  3.7645 -3.0176
   35POPC  C315 4764   0.113   5.057   8.769  0.6199 -1.0395  0.0194
   35POPC  H15X 4765   0.038   5.108   8.705  2.5363  1.4215 -0.4395
   35POPC  H15Y 4766   0.085   4.953   8.797 -0.8441 -0.4836  0.7277
   35POPC  C316 4767   0.248   5.055   8.699  1.0511  0.2340  0.1163
   35POPC  H16X 4768   0.254   5.006   8.600  3.3026  0.8202 -0.0784
   35POPC  H16Y 4769   0.316   4.998   8.766  0.9231  1.3291  1.2236
   35POPC  H16Z 4770   0.287   5.159   8.698  1.1299  0.2079  0.3366
   36POPC     N 4771   6.613   2.235  11.160 -0.1844 -0.3420  0.5115
   36POPC   C12 4772   6.624   2.118  11.066 -0.2317 -0.0119  0.1138
   36POPC  H12A 4773   6.531   2.065  11.073 -1.5514  2.3672  2.0729
   36POPC  H12B 4774   6.700   2.054  11.108 -1.1483  0.0605  1.9328
   36POPC   C13 4775   6.577   2.173  11.289  0.0806  0.0394  0.1308
   36POPC  H13A 4776   6.486   2.115  11.279 -0.0152  0.0811  0.7248
   36POPC  H13B 4777   6.654   2.108  11.328  0.6666  0.3656 -0.4553
   36POPC  H13C 4778   6.546   2.250  11.358  0.3774 -0.4571  0.8308
   36POPC   C14 4779   6.746   2.313  11.170 -0.0422 -0.1976 -0.2467
   36POPC  H14A 4780   6.726   2.418  11.182  0.2648 -0.0641 -0.8540
   36POPC  H14B 4781   6.806   2.262  11.244  4.7555  0.7419 -3.0912
   36POPC  H14C 4782   6.792   2.315  11.072 -0.9319  0.2469 -0.6662
   36POPC   C15 4783   6.513   2.338  11.128  0.3172  0.4341 -0.2688
   36POPC  H15A 4784   6.411   2.304  11.119  0.1366  0.2199  1.9129
   36POPC  H15B 4785   6.530   2.395  11.038 -1.3212  1.0299 -0.2433
   36POPC  H15C 4786   6.516   2.404  11.214 -0.1090 -1.2446  1.1050
   36POPC   C11 4787   6.669   2.143  10.915 -0.0319  0.7168 -0.8119
   36POPC  H11A 4788   6.595   2.218  10.878  0.3335  1.1084 -0.7639
   36POPC  H11B 4789   6.668   2.057  10.845  1.4630  2.0135 -2.5421
   36POPC     P 4790   6.935   2.123  10.909  0.6145  0.5140 -0.2159
   36POPC   O13 4791   6.917   1.996  10.983 -0.5936  0.4493  0.2668
   36POPC   O14 4792   7.048   2.215  10.937  0.5507  0.4080 -0.2720
   36POPC   O12 4793   6.794   2.201  10.908  0.1394 -0.2110  0.7038
   36POPC   O11 4794   6.944   2.086  10.761  0.6426 -0.2076  0.4967
   36POPC    C1 4795   6.892   1.973  10.693  0.2537  0.3166  0.0118
   36POPC    HA 4796   6.814   2.003  10.621  1.7242 -1.0050 -2.2526
   36POPC    HB 4797   6.846   1.895  10.757 -0.9570 -0.1014 -1.3215
   36POPC    C2 4798   6.993   1.884  10.608  0.1564  0.0657  0.0031
   36POPC    HS 4799   7.063   1.857  10.690  0.9320  2.5617  0.2573
   36POPC   O21 4800   7.052   1.973  10.517  0.0269 -0.0159 -0.0108
   36POPC   C21 4801   7.176   1.944  10.479  0.1396  0.5669  1.0590
   36POPC   O22 4802   7.240   1.843  10.511 -0.1684  0.3347  0.5506
   36POPC   C22 4803   7.211   2.036  10.363  0.0552  0.0641  0.6201
   36POPC   H2R 4804   7.213   2.139  10.404  3.3376 -1.4810  5.1654
   36POPC   H2S 4805   7.128   2.018  10.292 -0.6939 -0.2561  1.5569
   36POPC    C3 4806   6.936   1.758  10.543 -0.3208 -0.0060  0.3880
   36POPC    HX 4807   6.897   1.687  10.620  0.4791  0.4968  1.2703
   36POPC    HY 4808   7.017   1.705  10.489  1.7710  0.0077  3.2834
   36POPC   O31 4809   6.821   1.781  10.455  0.4307 -0.2809  0.6084
   36POPC   C31 4810   6.847   1.824  10.340  0.0790 -0.4563  0.2690
   36POPC   O32 4811   6.957   1.855  10.300  0.9017 -0.6568  0.2631
   36POPC   C32 4812   6.717   1.821  10.262  0.4992 -0.0069 -0.1271
   36POPC   H2X 4813   6.647   1.889  10.314 -1.1961 -1.0254 -0.9910
   36POPC   H2Y 4814   6.675   1.718  10.272  1.6118 -0.3377  1.8545
   36POPC   C23 4815   7.343   2.013  10.286  0.5716  0.7816  0.4964
   36POPC   H3R 4816   7.322   1.919  10.231 -0.8505  1.8675 -0.8955
   36POPC   H3S 4817   7.432   2.010  10.353  0.7496 -2.1897  0.2412
   36POPC   C24 4818   7.369   2.130  10.186  0.7813  0.4399  0.2742
   36POPC   H4R 4819   7.478   2.150  10.172  0.3781  1.4286 -2.0147
   36POPC   H4S 4820   7.344   2.229  10.229  1.2754 -0.0972  1.8795
   36POPC   C25 4821   7.305   2.118  10.043 -0.5210  0.3882 -0.0549
   36POPC   H5R 4822   7.361   2.049   9.976  0.4556 -1.6308  2.6736
   36POPC   H5S 4823   7.295   2.222  10.004  0.8100  0.7829  0.5971
   36POPC   C26 4824   7.160   2.069  10.051  0.9727  0.0650 -0.0770
   36POPC   H6R 4825   7.105   2.136  10.121  0.2074  0.6775 -1.2268
   36POPC   H6S 4826   7.150   1.963  10.083  0.3810  0.6463  1.8232
   36POPC   C27 4827   7.092   2.076   9.916  0.0711  0.3226  0.1745
   36POPC   H7R 4828   7.002   2.012   9.906  0.6438 -0.2246 -2.0007
   36POPC   H7S 4829   7.146   2.029   9.831 -2.8738 -1.2164 -1.0062
   36POPC   C28 4830   7.049   2.219   9.878 -0.2907  0.9053 -0.2793
   36POPC   H8R 4831   7.140   2.281   9.862 -0.2402  0.9967  0.3407
   36POPC   H8S 4832   7.001   2.263   9.968 -0.1937 -0.5004  0.4910
   36POPC   C29 4833   6.960   2.220   9.761 -0.2556 -0.7170  0.3674
   36POPC   H91 4834   6.865   2.270   9.783 -0.3176 -1.3457  1.6174
   36POPC  C210 4835   6.981   2.179   9.631 -0.0847  0.7153 -0.1792
   36POPC  H101 4836   6.905   2.196   9.552 -1.1919 -0.8245  0.5083
   36POPC  C211 4837   7.110   2.113   9.581 -0.0261 -0.1701  0.6409
   36POPC  H11R 4838   7.113   2.006   9.611  0.2706 -0.4619 -0.3740
   36POPC  H11S 4839   7.190   2.169   9.635 -0.2462  1.2232 -0.3986
   36POPC  C212 4840   7.126   2.135   9.424  0.3699  0.5157  0.1889
   36POPC  H12R 4841   7.224   2.097   9.388 -1.0432 -1.0917 -2.2176
   36POPC  H12S 4842   7.120   2.242   9.392 -3.3076 -0.1195 -1.7942
   36POPC  C213 4843   7.033   2.044   9.353  0.4769  0.1646  0.6888
   36POPC  H13R 4844   6.930   2.086   9.357 -0.0190 -0.9147 -0.2796
   36POPC  H13S 4845   7.030   1.947   9.406  0.9186  0.3947  1.1476
   36POPC  C214 4846   7.069   2.048   9.207 -0.4229  0.3689 -0.0450
   36POPC  H14R 4847   7.177   2.024   9.197 -0.8559 -1.2699 -1.1718
   36POPC  H14S 4848   7.063   2.154   9.174  0.1743  0.0296 -1.3377
   36POPC  C215 4849   6.973   1.966   9.125 -0.5693 -0.3983 -0.1275
   36POPC  H15R 4850   6.868   2.003   9.120 -0.1504  0.7735 -0.9549
   36POPC  H15S 4851   6.968   1.865   9.171 -0.0238  0.4101  1.8018
   36POPC  C216 4852   7.034   1.964   8.978  0.1453 -0.8121 -0.4888
   36POPC  H16R 4853   7.138   1.933   9.001 -0.4917 -0.9378  2.7504
   36POPC  H16S 4854   7.037   2.063   8.930  0.3452 -1.0088 -0.8842
   36POPC  C217 4855   6.956   1.877   8.875  0.5151  0.2257  0.1086
   36POPC  H17R 4856   6.850   1.910   8.873  0.1601 -0.8291  0.5426
   36POPC  H17S 4857   6.936   1.771   8.902 -0.1228  0.7128  1.5926
   36POPC  C218 4858   7.012   1.878   8.736  0.4962  0.2113 -0.3642
   36POPC  H18R 4859   7.091   1.803   8.715  0.7278  0.5386 -0.6594
   36POPC  H18S 4860   7.046   1.980   8.711  0.0895  0.4995  0.2319
   36POPC  H18T 4861   6.938   1.847   8.660  1.3737 -1.0753 -0.7250
   36POPC   C33 4862   6.728   1.878  10.123 -0.8843 -0.3027  0.0408
   36POPC   H3X 4863   6.780   1.977  10.120  1.0666 -1.3059 -1.6763
   36POPC   H3Y 4864   6.624   1.893  10.088 -0.2707  2.2789 -0.9648
   36POPC   C34 4865   6.786   1.776  10.023  0.0717  0.0866  0.4269
   36POPC   H4X 4866   6.770   1.670  10.051 -0.4740 -0.1280 -0.6510
   36POPC   H4Y 4867   6.894   1.798  10.005  0.1881 -0.1797  0.7779
   36POPC   C35 4868   6.722   1.785   9.885 -1.2133 -0.2746  0.6855
   36POPC   H5X 4869   6.612   1.773   9.894 -1.1500  0.1964  2.3851
   36POPC   H5Y 4870   6.764   1.696   9.833 -2.5030  0.3853 -1.6672
   36POPC   C36 4871   6.765   1.894   9.785 -0.6635 -0.4194  0.5155
   36POPC   H6X 4872   6.875   1.887   9.770 -0.1247  2.8172  1.9352
   36POPC   H6Y 4873   6.750   1.998   9.821  3.9143  0.8845 -0.5857
   36POPC   C37 4874   6.675   1.903   9.659 -0.1007  0.1551  0.2452
   36POPC   H7X 4875   6.682   2.005   9.616  0.1094 -0.0340 -0.1732
   36POPC   H7Y 4876   6.570   1.882   9.689 -0.0072 -1.5232 -0.5202
   36POPC   C38 4877   6.709   1.811   9.542  0.5515  0.4107 -0.3600
   36POPC   H8X 4878   6.668   1.710   9.563 -1.5725  1.2941 -0.0484
   36POPC   H8Y 4879   6.820   1.797   9.540  0.5824 -0.8745  3.5427
   36POPC   C39 4880   6.647   1.844   9.406 -0.4611 -0.0570  0.3650
   36POPC   H9X 4881   6.682   1.947   9.385  4.3326 -1.3175  0.9381
   36POPC   H9Y 4882   6.536   1.836   9.410 -0.3909 -0.6342  3.3807
   36POPC  C310 4883   6.713   1.756   9.299  0.0830 -0.0324 -1.0072
   36POPC  H10X 4884   6.679   1.653   9.321  1.0070 -0.1422 -0.0027
   36POPC  H10Y 4885   6.821   1.758   9.324 -0.3886  0.4992  1.1959
   36POPC  C311 4886   6.694   1.797   9.156 -0.4156  0.6354  0.6568
   36POPC  H11X 4887   6.760   1.728   9.099 -1.5665 -0.9260  1.1625
   36POPC  H11Y 4888   6.720   1.898   9.119 -0.3635  0.3520 -0.0848
   36POPC  C312 4889   6.551   1.765   9.096  0.4515  0.4320 -0.5170
   36POPC  H12X 4890   6.484   1.814   9.169  0.9986  0.1426  0.1980
   36POPC  H12Y 4891   6.534   1.655   9.099 -1.3427  0.6790 -0.8584
   36POPC  C313 4892   6.528   1.818   8.954  0.3042 -0.3294 -0.5270
   36POPC  H13X 4893   6.590   1.911   8.950 -0.1110 -0.0869 -1.7393
   36POPC  H13Y 4894   6.422   1.842   8.931  0.4936  0.3021 -0.7765
   36POPC  C314 4895   6.586   1.727   8.840 -0.5285 -0.0931 -1.1400
   36POPC  H14X 4896   6.674   1.691   8.898 -1.1639  1.4352  0.8872
   36POPC  H14Y 4897   6.619   1.788   8.753 -1.2871 -2.1084 -2.9296
   36POPC  C315 4898   6.502   1.614   8.784  0.0994  0.1739 -0.0784
   36POPC  H15X 4899   6.487   1.547   8.870 -0.0161  0.7577  0.3602
   36POPC  H15Y 4900   6.561   1.563   8.704 -0.9568 -0.0881 -0.7177
   36POPC  C316 4901   6.361   1.655   8.736  0.4454 -0.2462 -0.0872
   36POPC  H16X 4902   6.310   1.687   8.829  1.8002  0.2987  0.4943
   36POPC  H16Y 4903   6.301   1.576   8.686 -1.9074  1.6996 -0.5652
   36POPC  H16Z 4904   6.376   1.740   8.667 -0.7313  0.1043  0.0597
   37POPC     N 4905   6.024   3.394   6.491  0.2589  0.3831 -0.2188
   37POPC   C12 4906   5.976   3.349   6.630 -0.5820  0.9436 -0.0575
   37POPC  H12A 4907   6.002   3.423   6.704 -3.2852  2.0955 -0.1408
   37POPC  H12B 4908   6.014   3.250   6.654 -1.0831  1.2837  2.4652
   37POPC   C13 4909   6.177   3.405   6.491  0.2074  0.2870 -0.4722
   37POPC  H13A 4910   6.214   3.477   6.562 -0.5466  0.4572 -0.2418
   37POPC  H13B 4911   6.226   3.309   6.494  0.0870  0.2165 -0.7312
   37POPC  H13C 4912   6.209   3.433   6.392  0.4720 -0.3794 -0.5777
   37POPC   C14 4913   5.987   3.295   6.382  0.5995 -0.3965 -0.4176
   37POPC  H14A 4914   6.015   3.346   6.291  1.4443  2.3897  1.3034
   37POPC  H14B 4915   6.030   3.196   6.383 -0.2352 -0.7780 -0.8434
   37POPC  H14C 4916   5.880   3.288   6.374  0.3259 -0.3351  2.3801
   37POPC   C15 4917   5.962   3.531   6.475 -0.4234  0.3277 -0.2221
   37POPC  H15A 4918   5.999   3.601   6.549 -0.5859  0.0961  0.0821
   37POPC  H15B 4919   5.854   3.536   6.477 -0.3951  0.8755  1.3434
   37POPC  H15C 4920   5.988   3.572   6.378 -0.5229 -2.0091 -1.3034
   37POPC   C11 4921   5.823   3.329   6.647  1.2846 -0.1184  0.1004
   37POPC  H11A 4922   5.771   3.418   6.607  0.2905  0.5436  2.6266
   37POPC  H11B 4923   5.801   3.326   6.756  2.2283  2.5667  0.4288
   37POPC     P 4924   5.802   3.063   6.640 -0.2989  0.0475 -0.1929
   37POPC   O13 4925   5.941   3.034   6.589  0.2791  0.5464  0.1583
   37POPC   O14 4926   5.692   2.970   6.600  0.0407  0.0934 -1.0475
   37POPC   O12 4927   5.772   3.214   6.583  0.2603  0.4174 -0.1622
   37POPC   O11 4928   5.800   3.088   6.794 -0.1356  0.1470 -0.1533
   37POPC    C1 4929   5.878   2.998   6.885  0.7132  0.1007  0.9006
   37POPC    HA 4930   5.966   2.953   6.833  1.0900  1.5623  0.2318
   37POPC    HB 4931   5.812   2.914   6.916 -0.0798  0.2884 -0.2177
   37POPC    C2 4932   5.927   3.074   7.009 -0.3019  0.1297  0.3065
   37POPC    HS 4933   6.022   3.033   7.052 -0.6975 -1.3356 -0.1554
   37POPC   O21 4934   5.826   3.080   7.118 -0.3772  0.3207 -0.2499
   37POPC   C21 4935   5.866   3.084   7.242 -0.2658 -0.5966  0.3345
   37POPC   O22 4936   5.970   3.039   7.287 -0.0282  0.2273 -0.4158
   37POPC   C22 4937   5.771   3.171   7.318  1.2644 -0.2610  0.1444
   37POPC   H2R 4938   5.674   3.117   7.329  1.8035 -1.4438 -0.7453
   37POPC   H2S 4939   5.747   3.268   7.271  0.6456  0.8075  2.5072
   37POPC    C3 4940   5.970   3.226   6.972  0.4005  0.0730  0.4287
   37POPC    HX 4941   5.878   3.287   6.957 -0.1041 -0.9023 -0.6319
   37POPC    HY 4942   6.023   3.236   6.874  0.4204  0.9930  0.5217
   37POPC   O31 4943   6.078   3.275   7.060 -0.0883  0.0681  0.0727
   37POPC   C31 4944   6.111   3.403   7.054  0.1235 -0.2736 -0.4309
   37POPC   O32 4945   6.059   3.491   6.990 -0.6065 -0.0570  0.3548
   37POPC   C32 4946   6.213   3.428   7.168 -0.2997  0.3578 -0.3984
   37POPC   H2X 4947   6.217   3.539   7.172 -0.9480  0.3665  1.7639
   37POPC   H2Y 4948   6.301   3.372   7.130 -1.0261 -0.3735 -1.0302
   37POPC   C23 4949   5.838   3.190   7.456  0.9228 -0.2679  0.1985
   37POPC   H3R 4950   5.940   3.232   7.441  0.1787  1.9859  1.0277
   37POPC   H3S 4951   5.851   3.101   7.522 -0.8257 -1.1480 -0.5990
   37POPC   C24 4952   5.766   3.296   7.542  0.0799  0.0796 -0.1086
   37POPC   H4R 4953   5.673   3.249   7.581  1.1715 -0.9015  1.4033
   37POPC   H4S 4954   5.738   3.380   7.474  0.8207  0.9791  0.6724
   37POPC   C25 4955   5.859   3.339   7.656  0.7676 -0.1359 -0.6084
   37POPC   H5R 4956   5.956   3.379   7.618  2.0998 -1.1275  1.5422
   37POPC   H5S 4957   5.892   3.252   7.716  0.5788  0.0478 -0.2374
   37POPC   C26 4958   5.801   3.441   7.754 -0.0805  0.0739  0.1678
   37POPC   H6R 4959   5.764   3.527   7.695  3.5746  0.8462 -1.2308
   37POPC   H6S 4960   5.893   3.474   7.807  0.5926 -0.4024 -0.6854
   37POPC   C27 4961   5.691   3.392   7.857  0.0446 -0.7902 -0.0414
   37POPC   H7R 4962   5.681   3.286   7.828  1.8685 -0.8897 -0.4252
   37POPC   H7S 4963   5.592   3.436   7.835 -0.2013 -0.5663  1.4085
   37POPC   C28 4964   5.724   3.425   8.008 -0.0907  0.3122  0.0883
   37POPC   H8R 4965   5.756   3.531   8.006  1.8585 -0.1488  1.9677
   37POPC   H8S 4966   5.819   3.370   8.029  1.0732  1.0611 -2.7521
   37POPC   C29 4967   5.619   3.394   8.113 -0.2558  0.1587 -0.0025
   37POPC   H91 4968   5.558   3.308   8.082  1.3049 -0.8889 -0.2808
   37POPC  C210 4969   5.595   3.456   8.230 -0.3316  0.8955  0.4967
   37POPC  H101 4970   5.524   3.416   8.305  0.7418 -2.3356 -0.0651
   37POPC  C211 4971   5.670   3.581   8.271 -0.1211 -0.0950  0.0123
   37POPC  H11R 4972   5.629   3.616   8.368  1.4618  1.5611  0.1443
   37POPC  H11S 4973   5.645   3.662   8.199  0.4725  1.5778  1.6304
   37POPC  C212 4974   5.823   3.583   8.281 -0.3401  0.4621 -0.4988
   37POPC  H12R 4975   5.851   3.587   8.173 -0.4959  0.6934 -0.5326
   37POPC  H12S 4976   5.867   3.489   8.319  1.2691  0.3041 -2.5418
   37POPC  C213 4977   5.882   3.697   8.359  0.3740 -0.3653 -0.7306
   37POPC  H13R 4978   5.837   3.706   8.461 -0.3509 -1.8951 -0.8753
   37POPC  H13S 4979   5.839   3.786   8.308  0.9544  1.5412  1.9058
   37POPC  C214 4980   6.034   3.691   8.373 -0.2800  0.4529 -0.4704
   37POPC  H14R 4981   6.092   3.786   8.368 -0.5233  0.5603 -1.3347
   37POPC  H14S 4982   6.072   3.633   8.287 -1.2976 -2.6114  1.0115
   37POPC  C215 4983   6.087   3.615   8.498 -0.1193 -0.5202 -1.0336
   37POPC  H15R 4984   6.066   3.508   8.476  0.5564 -0.4148 -2.2335
   37POPC  H15S 4985   6.040   3.641   8.595  2.1240 -0.5743  0.1328
   37POPC  C216 4986   6.244   3.629   8.502 -0.4769 -0.3408 -1.0249
   37POPC  H16R 4987   6.276   3.729   8.540 -0.3874 -0.9147  0.4983
   37POPC  H16S 4988   6.287   3.618   8.400 -0.7222 -1.1516 -1.0471
   37POPC  C217 4989   6.313   3.519   8.593  0.6761 -0.6056 -0.0140
   37POPC  H17R 4990   6.421   3.535   8.575  0.7043 -0.0099  0.6471
   37POPC  H17S 4991   6.284   3.422   8.547  1.5371 -0.8909  0.0223
   37POPC  C218 4992   6.279   3.515   8.735  0.2745  0.1550  0.2785
   37POPC  H18R 4993   6.288   3.615   8.782  0.1929  0.3001 -0.0134
   37POPC  H18S 4994   6.340   3.441   8.791  0.1413 -0.2506 -0.1084
   37POPC  H18T 4995   6.171   3.489   8.740  0.2634  0.2022  0.2848
   37POPC   C33 4996   6.173   3.369   7.310 -0.0246 -0.0199 -0.3978
   37POPC   H3X 4997   6.122   3.270   7.304 -0.7881  0.3597 -0.3217
   37POPC   H3Y 4998   6.087   3.425   7.353  1.4370  2.1101 -0.0911
   37POPC   C34 4999   6.295   3.369   7.402  0.7741  0.5179 -0.0621
   37POPC   H4X 5000   6.379   3.345   7.334 -0.4529 -1.1136 -1.0705
   37POPC   H4Y 5001   6.282   3.292   7.481  0.0312  2.0022  1.3379
   37POPC   C35 5002   6.305   3.509   7.453  0.0926  0.1243  0.1276
   37POPC   H5X 5003   6.264   3.576   7.375  0.5403 -0.6821 -0.8162
   37POPC   H5Y 5004   6.414   3.531   7.464  0.3738 -1.3972  0.5253
   37POPC   C36 5005   6.232   3.531   7.579  0.0201  0.4273 -0.2790
   37POPC   H6X 5006   6.260   3.451   7.651  1.0054 -0.2310 -1.3567
   37POPC   H6Y 5007   6.121   3.523   7.569  0.3122 -1.9691 -2.7052
   37POPC   C37 5008   6.258   3.668   7.645  0.1858  0.1752 -0.1464
   37POPC   H7X 5009   6.217   3.748   7.580  1.8903 -1.2073 -3.1191
   37POPC   H7Y 5010   6.363   3.695   7.664 -0.2080  0.5949  1.5862
   37POPC   C38 5011   6.187   3.675   7.786 -0.2148  0.0334  0.2903
   37POPC   H8X 5012   6.217   3.591   7.852 -1.7008  1.6824  3.3455
   37POPC   H8Y 5013   6.078   3.670   7.761  0.0601  2.4423 -1.8461
   37POPC   C39 5014   6.209   3.818   7.846  0.4755 -0.2517  0.0641
   37POPC   H9X 5015   6.195   3.894   7.767  1.1837 -1.6545 -1.4826
   37POPC   H9Y 5016   6.313   3.826   7.883  0.2925 -0.6558  0.6792
   37POPC  C310 5017   6.112   3.862   7.959  0.0507 -0.0414  0.0743
   37POPC  H10X 5018   6.163   3.818   8.047  0.0551 -0.6150 -0.2058
   37POPC  H10Y 5019   6.011   3.814   7.953  1.8180 -4.1076 -0.2794
   37POPC  C311 5020   6.093   4.016   7.971 -0.6996  0.6349 -0.0938
   37POPC  H11X 5021   6.031   4.047   7.884  0.3615  2.2131 -0.3312
   37POPC  H11Y 5022   6.187   4.071   7.948  0.1934 -0.9131 -0.3687
   37POPC  C312 5023   6.049   4.072   8.112  0.1308  1.2886  0.8635
   37POPC  H12X 5024   6.075   4.180   8.115 -0.0967  1.4402 -1.0375
   37POPC  H12Y 5025   6.101   4.010   8.188 -1.5700 -2.2134 -0.6200
   37POPC  C313 5026   5.902   4.051   8.144 -0.6235  0.2722 -0.4378
   37POPC  H13X 5027   5.868   3.950   8.176 -2.4720  0.4012 -1.8715
   37POPC  H13Y 5028   5.837   4.072   8.057 -1.9532 -0.1074  0.4333
   37POPC  C314 5029   5.866   4.141   8.263 -0.7760 -0.1218  0.2794
   37POPC  H14X 5030   5.757   4.139   8.284 -0.7112  0.5743  0.7360
   37POPC  H14Y 5031   5.876   4.247   8.231  1.5039  0.0837  1.5041
   37POPC  C315 5032   5.937   4.113   8.393 -0.7214 -0.3708  0.4518
   37POPC  H15X 5033   6.047   4.118   8.374 -0.4506 -2.1167  1.3805
   37POPC  H15Y 5034   5.911   4.007   8.410 -2.0687 -0.0234  0.6751
   37POPC  C316 5035   5.891   4.199   8.512  0.0225  0.0634 -0.3123
   37POPC  H16X 5036   5.965   4.197   8.596 -0.6239 -1.3752  0.2656
   37POPC  H16Y 5037   5.797   4.157   8.554  0.1496 -1.6066 -1.6137
   37POPC  H16Z 5038   5.889   4.307   8.488 -1.6880 -0.4716 -2.8385
   38POPC     N 5039   1.124   2.152   6.358 -0.3516  0.9830 -0.3676
   38POPC   C12 5040   1.228   2.115   6.249  0.3364  0.5755  0.1925
   38POPC  H12A 5041   1.246   2.192   6.176  0.4861 -0.9151 -1.4095
   38POPC  H12B 5042   1.169   2.052   6.183 -2.8584  0.9734  2.4384
   38POPC   C13 5043   1.188   2.242   6.463 -0.4909 -0.1776 -0.3039
   38POPC  H13A 5044   1.257   2.302   6.406 -2.1815 -0.7393 -3.1577
   38POPC  H13B 5045   1.112   2.300   6.513 -1.2347 -2.0251  0.8286
   38POPC  H13C 5046   1.247   2.183   6.531  1.5911  1.2039 -0.8441
   38POPC   C14 5047   1.013   2.222   6.296 -0.3821  0.2013 -0.0273
   38POPC  H14A 5048   0.933   2.247   6.365  0.1204  0.9466  0.3067
   38POPC  H14B 5049   1.050   2.318   6.261 -0.9468  0.2462 -0.5206
   38POPC  H14C 5050   0.979   2.160   6.214  2.1022 -1.5030  0.1481
   38POPC   C15 5051   1.073   2.026   6.429 -0.1305  0.1468 -0.2140
   38POPC  H15A 5052   1.036   1.964   6.349 -3.4695  3.0248 -1.1909
   38POPC  H15B 5053   1.003   2.043   6.510 -2.4839 -1.8984 -1.6652
   38POPC  H15C 5054   1.158   1.968   6.461 -1.0475 -0.8185  0.5430
   38POPC   C11 5055   1.352   2.036   6.293  0.1080  0.2523  0.4462
   38POPC  H11A 5056   1.417   2.106   6.349  1.3317 -0.4530 -0.0682
   38POPC  H11B 5057   1.402   2.012   6.197 -0.8416 -1.1923  0.2788
   38POPC     P 5058   1.331   1.774   6.287 -0.1831 -0.0794 -0.0867
   38POPC   O13 5059   1.469   1.720   6.295 -0.0749  0.1851  0.2378
   38POPC   O14 5060   1.269   1.773   6.157 -0.4704 -0.4245 -0.3000
   38POPC   O12 5061   1.315   1.917   6.360 -0.6217  0.2983  0.0589
   38POPC   O11 5062   1.246   1.683   6.376  0.0241  0.0038 -0.4087
   38POPC    C1 5063   1.294   1.566   6.440  0.4960  0.1253 -0.4058
   38POPC    HA 5064   1.374   1.509   6.387 -0.7613 -1.2580 -0.8735
   38POPC    HB 5065   1.213   1.491   6.431  1.2925 -0.8846  0.5922
   38POPC    C2 5066   1.332   1.581   6.587 -0.4771 -0.0870  0.3820
   38POPC    HS 5067   1.321   1.481   6.635 -2.2458 -0.5253 -0.8236
   38POPC   O21 5068   1.257   1.679   6.653  0.4463  0.3661  0.2720
   38POPC   C21 5069   1.125   1.649   6.651  0.2390  0.2726 -0.1057
   38POPC   O22 5070   1.072   1.551   6.610 -0.1843  0.2818  0.1356
   38POPC   C22 5071   1.055   1.752   6.732  0.7941 -0.5390 -0.0304
   38POPC   H2R 5072   0.987   1.804   6.661  1.7333 -0.4097 -0.8630
   38POPC   H2S 5073   1.122   1.835   6.763  1.8161 -1.1370 -0.5902
   38POPC    C3 5074   1.493   1.610   6.603  0.0157  0.3531  0.4046
   38POPC    HX 5075   1.507   1.689   6.526  0.1871 -1.8559 -1.9515
   38POPC    HY 5076   1.547   1.515   6.581  1.4157  1.8045 -3.2598
   38POPC   O31 5077   1.533   1.660   6.737 -1.2073  0.2176 -0.0355
   38POPC   C31 5078   1.535   1.567   6.837 -0.5117  0.6655  0.1247
   38POPC   O32 5079   1.488   1.456   6.827 -0.3968 -0.4131 -0.6940
   38POPC   C32 5080   1.594   1.631   6.964  0.6492  1.1844  0.7372
   38POPC   H2X 5081   1.597   1.742   6.970 -0.5285  1.3615 -1.1745
   38POPC   H2Y 5082   1.701   1.599   6.970  0.5753  0.0953 -2.3924
   38POPC   C23 5083   0.991   1.701   6.865 -0.3752 -0.1976  0.9027
   38POPC   H3R 5084   1.067   1.654   6.930  0.8009 -2.4311 -1.8556
   38POPC   H3S 5085   0.920   1.617   6.847 -1.1228  0.6394 -0.2227
   38POPC   C24 5086   0.915   1.814   6.938 -0.4608 -0.9624  0.0996
   38POPC   H4R 5087   0.840   1.856   6.868  0.2567 -1.1601 -0.8161
   38POPC   H4S 5088   0.978   1.905   6.949  0.1876 -1.6304  2.6138
   38POPC   C25 5089   0.878   1.775   7.079 -0.3704  0.0152 -0.5297
   38POPC   H5R 5090   0.873   1.665   7.092  3.0129  0.0737  2.8438
   38POPC   H5S 5091   0.780   1.825   7.094  0.0283  0.8714 -0.7401
   38POPC   C26 5092   0.964   1.832   7.193 -0.2515 -0.6688 -0.1245
   38POPC   H6R 5093   0.987   1.940   7.177  1.0166 -1.0842 -1.3063
   38POPC   H6S 5094   1.068   1.797   7.212 -0.7058 -1.0210  2.0039
   38POPC   C27 5095   0.899   1.820   7.332 -0.1368 -0.2984  0.9271
   38POPC   H7R 5096   0.908   1.713   7.359  2.0452 -0.4617 -0.2122
   38POPC   H7S 5097   0.791   1.842   7.339 -0.2086  0.3356 -1.2872
   38POPC   C28 5098   0.959   1.909   7.441 -0.0641  0.3213 -0.6885
   38POPC   H8R 5099   0.889   1.915   7.528 -0.3633  0.5117 -0.9396
   38POPC   H8S 5100   0.960   2.009   7.391 -0.9895  0.0431 -1.2961
   38POPC   C29 5101   1.089   1.847   7.475 -0.5406  0.3092  0.1225
   38POPC   H91 5102   1.156   1.844   7.388 -0.0852  0.7808  0.4528
   38POPC  C210 5103   1.134   1.810   7.596  0.2163  0.4243 -1.0490
   38POPC  H101 5104   1.235   1.768   7.597 -0.1265 -0.8564  3.8519
   38POPC  C211 5105   1.064   1.813   7.729 -0.1750  0.6512  0.1057
   38POPC  H11R 5106   1.107   1.744   7.805 -1.1343 -0.2469 -0.1444
   38POPC  H11S 5107   0.963   1.768   7.716  0.6818 -1.2904 -0.2426
   38POPC  C212 5108   1.069   1.953   7.789 -0.1542  0.2543  0.7356
   38POPC  H12R 5109   1.029   2.023   7.712  0.9487 -0.7947 -0.8638
   38POPC  H12S 5110   1.179   1.962   7.801  0.1950 -1.3093 -0.9124
   38POPC  C213 5111   1.002   1.977   7.923 -0.0707  1.2266  0.2820
   38POPC  H13R 5112   1.049   1.909   7.998  1.7692 -1.2369 -2.8311
   38POPC  H13S 5113   0.896   1.944   7.913  0.2024  0.4725 -0.2390
   38POPC  C214 5114   1.029   2.119   7.966  0.5864  0.4860  0.5178
   38POPC  H14R 5115   0.986   2.189   7.891  1.3037 -0.5594 -0.9225
   38POPC  H14S 5116   1.137   2.139   7.984  0.1659  1.3159  2.3853
   38POPC  C215 5117   0.954   2.150   8.094 -0.4361  0.0702  0.6040
   38POPC  H15R 5118   0.971   2.070   8.169  0.3444  0.0651  0.4373
   38POPC  H15S 5119   0.847   2.145   8.065 -0.7468  0.0171  1.7174
   38POPC  C216 5120   0.987   2.284   8.162  0.0002  0.3391 -0.8155
   38POPC  H16R 5121   0.949   2.366   8.099  0.8946  1.0035 -0.5233
   38POPC  H16S 5122   1.094   2.289   8.194 -0.1985  0.9740 -0.2115
   38POPC  C217 5123   0.912   2.288   8.290 -0.3739 -0.4782 -1.1756
   38POPC  H17R 5124   0.962   2.360   8.358  2.4435 -1.7681 -1.7692
   38POPC  H17S 5125   0.923   2.189   8.340 -0.1532  0.9092  1.7627
   38POPC  C218 5126   0.759   2.330   8.279 -0.5971  0.0603 -0.2771
   38POPC  H18R 5127   0.699   2.244   8.242 -2.7177 -0.3647  3.5863
   38POPC  H18S 5128   0.770   2.412   8.206  0.6631  0.2486  0.1018
   38POPC  H18T 5129   0.716   2.359   8.377  1.6046  0.6029  0.5825
   38POPC   C33 5130   1.520   1.570   7.087  0.0306 -0.1701 -0.7948
   38POPC   H3X 5131   1.507   1.460   7.074  2.8178 -0.3877 -2.4875
   38POPC   H3Y 5132   1.416   1.611   7.089 -1.1941 -2.8767 -2.4201
   38POPC   C34 5133   1.611   1.602   7.210  0.7654  0.0419 -0.2339
   38POPC   H4X 5134   1.615   1.713   7.212  0.8796  0.0555 -0.9138
   38POPC   H4Y 5135   1.714   1.563   7.199 -0.0441 -2.1252 -0.5597
   38POPC   C35 5136   1.555   1.560   7.349  0.0960  0.1970  0.3429
   38POPC   H5X 5137   1.562   1.450   7.362 -2.2817 -0.4152 -2.5168
   38POPC   H5Y 5138   1.446   1.581   7.351 -0.0884 -0.5493 -0.8530
   38POPC   C36 5139   1.623   1.643   7.456  0.1551  0.1169  0.1545
   38POPC   H6X 5140   1.643   1.746   7.420  0.3916  0.3974  1.0752
   38POPC   H6Y 5141   1.714   1.586   7.484 -0.0921 -0.7929 -0.8501
   38POPC   C37 5142   1.526   1.651   7.575  0.8013  0.2481  0.0378
   38POPC   H7X 5143   1.479   1.551   7.588 -3.8107  1.7735 -2.4167
   38POPC   H7Y 5144   1.434   1.710   7.555  1.4032  0.6509 -1.8253
   38POPC   C38 5145   1.594   1.694   7.706  0.0993 -0.1557 -0.2379
   38POPC   H8X 5146   1.651   1.788   7.691 -1.6601  0.8818 -0.8855
   38POPC   H8Y 5147   1.667   1.612   7.723 -0.5553 -0.7941 -0.4305
   38POPC   C39 5148   1.492   1.723   7.819 -0.0039 -0.3772 -0.8646
   38POPC   H9X 5149   1.416   1.642   7.821 -0.8018  0.3502  1.5894
   38POPC   H9Y 5150   1.452   1.824   7.794  0.1845 -0.5323 -1.8439
   38POPC  C310 5151   1.536   1.723   7.968  0.2805  0.6663  0.4715
   38POPC  H10X 5152   1.628   1.787   7.967 -0.8166  2.4046 -2.5333
   38POPC  H10Y 5153   1.555   1.617   7.993 -2.6078  0.3858  1.8404
   38POPC  C311 5154   1.428   1.787   8.057 -0.5267 -0.1007  0.5179
   38POPC  H11X 5155   1.338   1.722   8.052  0.7352 -1.8687  0.0970
   38POPC  H11Y 5156   1.403   1.890   8.023  1.3529  0.9428  2.1109
   38POPC  C312 5157   1.461   1.806   8.205 -0.4579  0.0903 -0.1342
   38POPC  H12X 5158   1.550   1.872   8.210 -2.4655  3.1636 -1.7642
   38POPC  H12Y 5159   1.476   1.708   8.255 -1.0924  0.2165  0.3161
   38POPC  C313 5160   1.345   1.872   8.285 -1.0022 -0.4414 -0.1975
   38POPC  H13X 5161   1.319   1.973   8.247 -5.1013 -1.5459 -0.8327
   38POPC  H13Y 5162   1.382   1.883   8.389 -0.1528 -0.3010 -0.5009
   38POPC  C314 5163   1.220   1.797   8.296 -0.6534 -0.7767  0.2540
   38POPC  H14X 5164   1.232   1.687   8.309 -1.9611 -0.8864  0.6155
   38POPC  H14Y 5165   1.163   1.801   8.201 -2.0564 -0.2825  1.0935
   38POPC  C315 5166   1.128   1.857   8.404 -0.1857  0.3694  0.1370
   38POPC  H15X 5167   1.131   1.965   8.377 -0.7017 -0.2649 -2.8433
   38POPC  H15Y 5168   1.159   1.834   8.508 -1.1227 -0.6314  0.2074
   38POPC  C316 5169   0.993   1.793   8.405 -0.1856 -0.1716 -0.8984
   38POPC  H16X 5170   1.002   1.684   8.385 -1.7267 -0.6251  0.6452
   38POPC  H16Y 5171   0.934   1.842   8.323 -1.0097 -0.5316 -0.5300
   38POPC  H16Z 5172   0.941   1.820   8.499  0.8946 -1.6950  0.1809
   39POPC     N 5173   4.484   6.578   6.063  1.0953 -0.3438 -0.0550
   39POPC   C12 5174   4.552   6.589   6.199 -0.1021 -0.3798 -0.2138
   39POPC  H12A 5175   4.658   6.571   6.195  0.1456  0.8537  0.3283
   39POPC  H12B 5176   4.511   6.503   6.250 -0.1467  0.3678  1.0572
   39POPC   C13 5177   4.340   6.601   6.081 -0.1395 -0.6756  0.0289
   39POPC  H13A 5178   4.336   6.704   6.113 -0.2054 -0.5764 -0.2883
   39POPC  H13B 5179   4.282   6.608   5.989  1.4375 -2.2241 -1.1527
   39POPC  H13C 5180   4.301   6.535   6.156 -1.4727 -1.3763 -1.2307
   39POPC   C14 5181   4.534   6.680   5.957 -0.4695  0.4251 -0.3872
   39POPC  H14A 5182   4.477   6.673   5.866 -0.5509 -1.4438 -0.2342
   39POPC  H14B 5183   4.508   6.778   5.993  1.6655  1.1197 -0.5914
   39POPC  H14C 5184   4.640   6.672   5.938 -0.3749  0.1876  0.2043
   39POPC   C15 5185   4.494   6.440   6.006  0.1558  0.8346  0.0734
   39POPC  H15A 5186   4.597   6.407   5.996 -0.1573 -0.2659  0.2962
   39POPC  H15B 5187   4.449   6.447   5.908  0.8914  0.6557 -0.2922
   39POPC  H15C 5188   4.449   6.367   6.072  0.0137  0.7772 -0.0874
   39POPC   C11 5189   4.533   6.716   6.274 -0.8523  0.1474 -0.0645
   39POPC  H11A 5190   4.569   6.721   6.379  0.6596  2.5667 -0.6427
   39POPC  H11B 5191   4.424   6.725   6.293 -1.2949  2.2373 -2.9912
   39POPC     P 5192   4.519   6.975   6.224  0.4578 -0.4303 -0.2389
   39POPC   O13 5193   4.397   6.988   6.139 -0.3704 -0.0203 -0.0438
   39POPC   O14 5194   4.624   7.076   6.215  0.0131 -0.1233 -0.0854
   39POPC   O12 5195   4.587   6.833   6.207  0.1753 -0.0651 -0.2331
   39POPC   O11 5196   4.469   6.978   6.372  0.5086 -0.1061  0.0971
   39POPC    C1 5197   4.364   7.059   6.420  0.3432 -0.6458 -0.5676
   39POPC    HA 5198   4.267   7.037   6.370  0.2217 -1.1413 -0.1276
   39POPC    HB 5199   4.381   7.168   6.409  0.0092 -0.5522 -0.1817
   39POPC    C2 5200   4.320   7.018   6.564 -0.2397 -0.7597  0.4415
   39POPC    HS 5201   4.233   7.079   6.597  0.1367  1.1417 -1.8448
   39POPC   O21 5202   4.438   7.026   6.651  0.1411 -0.7694 -0.4507
   39POPC   C21 5203   4.457   7.145   6.694 -0.6075 -0.0569  0.2301
   39POPC   O22 5204   4.392   7.243   6.664  0.6559  0.2515  0.4442
   39POPC   C22 5205   4.567   7.140   6.796 -0.0627 -0.0981  0.0731
   39POPC   H2R 5206   4.659   7.192   6.761 -1.1251  2.0301  0.2913
   39POPC   H2S 5207   4.590   7.036   6.828  0.8043  0.3216  0.8523
   39POPC    C3 5208   4.256   6.884   6.570  0.6208  0.9502 -0.1283
   39POPC    HX 5209   4.334   6.806   6.558 -2.1454 -2.6122  2.6449
   39POPC    HY 5210   4.175   6.877   6.494 -0.0650  0.5113  0.6190
   39POPC   O31 5211   4.200   6.850   6.703  0.7978 -0.6028 -0.1291
   39POPC   C31 5212   4.154   6.724   6.706 -0.6872 -0.5427  0.0927
   39POPC   O32 5213   4.138   6.657   6.608 -0.3266  0.2375  0.0806
   39POPC   C32 5214   4.129   6.688   6.849 -0.3139 -0.0261  0.1472
   39POPC   H2X 5215   4.023   6.688   6.880  0.4459  0.1973  3.0314
   39POPC   H2Y 5216   4.154   6.580   6.865 -0.6244 -0.0866  0.2186
   39POPC   C23 5217   4.528   7.212   6.926  0.2651  0.9343  0.4399
   39POPC   H3R 5218   4.525   7.319   6.898  3.5082  0.5853 -1.7888
   39POPC   H3S 5219   4.614   7.205   6.996  1.2959 -0.4714 -0.8795
   39POPC   C24 5220   4.399   7.170   6.992 -0.1818  0.2085  0.1074
   39POPC   H4R 5221   4.397   7.059   7.001  1.0681  0.0931 -0.7424
   39POPC   H4S 5222   4.318   7.207   6.926  0.2348  1.7114  0.3978
   39POPC   C25 5223   4.385   7.246   7.124 -0.0133  0.7641  0.1680
   39POPC   H5R 5224   4.276   7.234   7.138  0.1554 -1.6886 -0.2129
   39POPC   H5S 5225   4.413   7.352   7.104 -0.5185  1.0587  0.9607
   39POPC   C26 5226   4.468   7.192   7.240 -0.3864  0.3502 -0.1853
   39POPC   H6R 5227   4.572   7.182   7.203 -0.8105  0.3837 -1.4192
   39POPC   H6S 5228   4.437   7.093   7.279 -0.4862 -0.0289 -1.2063
   39POPC   C27 5229   4.461   7.282   7.361  0.4204  0.1203 -0.3544
   39POPC   H7R 5230   4.359   7.271   7.403  1.2253 -0.7185  1.5224
   39POPC   H7S 5231   4.472   7.391   7.344  1.3796 -0.0121 -0.6563
   39POPC   C28 5232   4.559   7.241   7.480  0.6065  0.0773  0.7844
   39POPC   H8R 5233   4.660   7.263   7.439  0.0706 -0.7099 -1.0662
   39POPC   H8S 5234   4.558   7.131   7.499  0.2207  0.3624  2.6123
   39POPC   C29 5235   4.524   7.332   7.598  0.1224  0.0540 -0.4453
   39POPC   H91 5236   4.468   7.420   7.565  1.5870  0.1953 -2.7813
   39POPC  C210 5237   4.552   7.323   7.731  0.6124  0.8455 -0.1635
   39POPC  H101 5238   4.515   7.406   7.792 -2.1116 -0.2705 -0.1537
   39POPC  C211 5239   4.637   7.215   7.800  0.3727 -0.4983  1.1321
   39POPC  H11R 5240   4.740   7.247   7.827  0.4409 -1.3877  2.0006
   39POPC  H11S 5241   4.655   7.135   7.725  0.8819  0.7592 -0.1279
   39POPC  C212 5242   4.585   7.160   7.930 -0.3804  0.3896  0.2194
   39POPC  H12R 5243   4.660   7.083   7.958 -0.0451 -0.1088 -1.8676
   39POPC  H12S 5244   4.492   7.106   7.902  0.1754 -0.6270  0.2934
   39POPC  C213 5245   4.584   7.264   8.044 -0.2022  0.5637 -0.2203
   39POPC  H13R 5246   4.493   7.326   8.033 -0.5327  0.3667  1.1941
   39POPC  H13S 5247   4.671   7.333   8.038  0.5720 -0.3289  0.3353
   39POPC  C214 5248   4.586   7.191   8.184 -0.0864 -0.0875 -0.2601
   39POPC  H14R 5249   4.690   7.158   8.203 -0.0587 -0.8671 -1.5942
   39POPC  H14S 5250   4.528   7.099   8.160  0.1474 -0.1291 -0.6734
   39POPC  C215 5251   4.519   7.262   8.301 -0.7205  0.3000 -0.0908
   39POPC  H15R 5252   4.423   7.305   8.266  0.0593  1.3834 -0.9804
   39POPC  H15S 5253   4.582   7.347   8.333  1.1380 -0.8030 -0.6664
   39POPC  C216 5254   4.500   7.166   8.422 -0.3129  0.1858 -0.1086
   39POPC  H16R 5255   4.600   7.124   8.443  0.2046  2.3748  2.2333
   39POPC  H16S 5256   4.433   7.083   8.390  0.3215 -1.0350  1.6032
   39POPC  C217 5257   4.441   7.227   8.546  0.0180  0.4806 -1.4557
   39POPC  H17R 5258   4.350   7.286   8.521 -1.5370 -1.2695 -0.2194
   39POPC  H17S 5259   4.510   7.303   8.588 -1.9181  0.1877  2.8156
   39POPC  C218 5260   4.415   7.123   8.651  0.3959 -0.0119  0.2216
   39POPC  H18R 5261   4.477   7.032   8.643 -1.3982 -1.5619  2.6420
   39POPC  H18S 5262   4.309   7.088   8.654  0.2195  0.4117 -0.6070
   39POPC  H18T 5263   4.429   7.165   8.753  0.8504 -0.3441  0.2933
   39POPC   C33 5264   4.214   6.763   6.954  0.0144  0.5841  0.5134
   39POPC   H3X 5265   4.208   6.873   6.967 -0.7902  0.3242  3.0072
   39POPC   H3Y 5266   4.316   6.732   6.923 -1.3959 -3.1398 -1.0285
   39POPC   C34 5267   4.190   6.705   7.099  0.2974 -0.2810  0.4775
   39POPC   H4X 5268   4.243   6.608   7.099  1.4129  0.2291 -1.8796
   39POPC   H4Y 5269   4.082   6.700   7.123  0.6806  0.0103  2.3822
   39POPC   C35 5270   4.251   6.785   7.212 -0.0325 -0.6855  0.6566
   39POPC   H5X 5271   4.189   6.877   7.219  0.8832  0.1721 -1.5266
   39POPC   H5Y 5272   4.346   6.825   7.171 -0.6402 -0.2023 -0.3152
   39POPC   C36 5273   4.277   6.720   7.348  0.0237  0.6017  0.6072
   39POPC   H6X 5274   4.334   6.628   7.324  1.5350  2.0891 -1.9189
   39POPC   H6Y 5275   4.175   6.685   7.376 -0.2747  0.0163 -1.0802
   39POPC   C37 5276   4.343   6.804   7.452 -0.2803 -0.1430  0.5922
   39POPC   H7X 5277   4.278   6.893   7.462 -0.7697 -0.4116 -0.1011
   39POPC   H7Y 5278   4.444   6.838   7.424  1.0649 -3.6834  0.6244
   39POPC   C38 5279   4.355   6.725   7.585 -0.2061  0.8808 -0.0407
   39POPC   H8X 5280   4.412   6.630   7.578 -1.0921  0.3076  0.3435
   39POPC   H8Y 5281   4.255   6.693   7.621  1.1139 -1.9251  1.4204
   39POPC   C39 5282   4.407   6.823   7.696  0.2927  0.0329  0.1877
   39POPC   H9X 5283   4.365   6.924   7.680 -0.0137 -0.2288 -0.7307
   39POPC   H9Y 5284   4.517   6.832   7.679  0.3212 -2.2090 -1.1939
   39POPC  C310 5285   4.381   6.773   7.838 -0.2401  0.7238 -0.3877
   39POPC  H10X 5286   4.274   6.763   7.863 -0.1107  0.0357 -0.0836
   39POPC  H10Y 5287   4.410   6.858   7.903 -0.4147  1.6413 -1.4658
   39POPC  C311 5288   4.442   6.632   7.870 -0.4242  0.4585  0.2490
   39POPC  H11X 5289   4.549   6.644   7.844 -0.3113 -1.6575 -0.4681
   39POPC  H11Y 5290   4.399   6.559   7.798 -3.9555 -0.9274  3.4484
   39POPC  C312 5291   4.431   6.587   8.013  0.6799 -0.7691  0.1682
   39POPC  H12X 5292   4.450   6.479   8.032  2.7571 -0.7032 -1.1916
   39POPC  H12Y 5293   4.329   6.609   8.050  0.1823 -2.7278  0.0551
   39POPC  C313 5294   4.521   6.670   8.101  0.1672  0.8350 -0.3773
   39POPC  H13X 5295   4.509   6.780   8.090  0.1638  1.2036  2.4785
   39POPC  H13Y 5296   4.626   6.637   8.090 -0.5388 -1.6702 -0.2925
   39POPC  C314 5297   4.498   6.645   8.253  0.3445 -0.4412  0.1552
   39POPC  H14X 5298   4.538   6.545   8.282  1.1891  0.2683  1.5059
   39POPC  H14Y 5299   4.388   6.637   8.266  0.3072 -1.8704 -0.7160
   39POPC  C315 5300   4.571   6.754   8.339 -0.0428  0.5824 -0.2737
   39POPC  H15X 5301   4.539   6.856   8.308 -1.6507  0.0993 -0.3044
   39POPC  H15Y 5302   4.682   6.749   8.334  0.3483  4.0143  1.6379
   39POPC  C316 5303   4.539   6.740   8.491  0.1995 -0.1074  0.2839
   39POPC  H16X 5304   4.431   6.746   8.514  0.1328 -1.5436  0.4568
   39POPC  H16Y 5305   4.605   6.811   8.546  0.6191 -0.5410  0.3549
   39POPC  H16Z 5306   4.579   6.639   8.517  2.5217  0.7507  0.2929
   40POPC     N 5307   4.540   2.353   6.110 -0.3324 -0.7550 -0.1611
   40POPC   C12 5308   4.656   2.443   6.145  0.1407 -0.0049 -0.0098
   40POPC  H12A 5309   4.618   2.544   6.154 -0.7589 -0.2684 -0.7278
   40POPC  H12B 5310   4.724   2.432   6.062 -0.6482 -2.0672 -0.4347
   40POPC   C13 5311   4.578   2.212   6.076 -1.1176  0.1663  0.0420
   40POPC  H13A 5312   4.487   2.165   6.041 -2.9368  1.8264  2.2119
   40POPC  H13B 5313   4.652   2.203   5.998 -1.8524 -1.3023 -0.5212
   40POPC  H13C 5314   4.624   2.155   6.156  1.4710 -0.2574 -1.6413
   40POPC   C14 5315   4.422   2.339   6.209  0.0750 -0.7238 -0.4279
   40POPC  H14A 5316   4.355   2.422   6.200  0.7596 -0.2728 -1.7121
   40POPC  H14B 5317   4.356   2.253   6.205 -0.1688 -0.5335 -0.4772
   40POPC  H14C 5318   4.459   2.334   6.310  1.5701 -1.1780 -0.9645
   40POPC   C15 5319   4.479   2.423   5.989 -0.2383 -0.1974 -0.5615
   40POPC  H15A 5320   4.455   2.526   6.012  0.1271 -0.3096  0.3584
   40POPC  H15B 5321   4.385   2.374   5.971 -0.8471  0.4952  0.6216
   40POPC  H15C 5322   4.538   2.431   5.899  2.2636  0.0495  0.9898
   40POPC   C11 5323   4.725   2.413   6.278 -0.1086  0.9741 -0.9318
   40POPC  H11A 5324   4.835   2.429   6.286  0.3596 -2.4327  2.0867
   40POPC  H11B 5325   4.717   2.305   6.303  2.3473  0.9384 -0.0188
   40POPC     P 5326   4.685   2.631   6.420 -0.0801  0.3620 -0.2346
   40POPC   O13 5327   4.633   2.720   6.315 -0.3111  0.2295  0.4402
   40POPC   O14 5328   4.828   2.641   6.445 -0.4114  0.1984 -0.6819
   40POPC   O12 5329   4.663   2.480   6.385  0.6117 -0.1189 -0.3484
   40POPC   O11 5330   4.601   2.642   6.548  0.3447  0.0919  0.0761
   40POPC    C1 5331   4.464   2.652   6.528  0.2101  0.2559  0.5257
   40POPC    HA 5332   4.427   2.550   6.504  1.1584 -0.0902  0.4742
   40POPC    HB 5333   4.420   2.717   6.450 -0.2730 -0.3926  0.2429
   40POPC    C2 5334   4.384   2.690   6.657 -0.1494 -0.1771  0.3259
   40POPC    HS 5335   4.424   2.788   6.691 -0.5836  0.7643 -1.6833
   40POPC   O21 5336   4.409   2.585   6.755  0.4189 -0.1300  0.1666
   40POPC   C21 5337   4.369   2.626   6.879  0.1160 -0.0043  0.7860
   40POPC   O22 5338   4.348   2.739   6.920 -0.0390  0.2144  0.4176
   40POPC   C22 5339   4.375   2.498   6.968  0.4135  0.5091  0.4473
   40POPC   H2R 5340   4.472   2.445   6.956  0.1093 -0.2723  1.2840
   40POPC   H2S 5341   4.305   2.431   6.913  1.9714  1.0688 -2.3937
   40POPC    C3 5342   4.234   2.707   6.617 -0.6182 -0.8844 -0.9038
   40POPC    HX 5343   4.205   2.602   6.594  0.8018 -1.5880  0.3178
   40POPC    HY 5344   4.233   2.772   6.527 -2.5026 -0.9038 -0.9186
   40POPC   O31 5345   4.145   2.758   6.724 -0.0949  0.0404 -0.1473
   40POPC   C31 5346   4.015   2.754   6.689 -0.8659  0.8058  0.1390
   40POPC   O32 5347   3.971   2.719   6.583 -0.1401 -0.0344 -0.2610
   40POPC   C32 5348   3.932   2.796   6.808  0.0341 -0.4725 -0.3060
   40POPC   H2X 5349   3.896   2.702   6.855 -0.4238  0.7647  1.9558
   40POPC   H2Y 5350   3.839   2.853   6.790  0.2875  0.4288  1.0607
   40POPC   C23 5351   4.322   2.507   7.116 -0.0043  0.8181  0.2912
   40POPC   H3R 5352   4.398   2.572   7.166  0.3325 -0.5301  1.5805
   40POPC   H3S 5353   4.333   2.404   7.155  0.6429 -0.6047 -3.2358
   40POPC   C24 5354   4.177   2.558   7.122  0.2027 -0.1579  0.4260
   40POPC   H4R 5355   4.123   2.500   7.044 -0.5660 -1.6242  1.9740
   40POPC   H4S 5356   4.175   2.666   7.099  0.0723 -0.4191 -0.8531
   40POPC   C25 5357   4.102   2.527   7.246 -0.1962  0.0135 -0.4246
   40POPC   H5R 5358   4.100   2.419   7.274  0.9496  0.2443  0.6600
   40POPC   H5S 5359   3.994   2.551   7.232 -0.5183 -0.4214  1.0876
   40POPC   C26 5360   4.167   2.587   7.365 -0.1789 -0.0759 -0.4197
   40POPC   H6R 5361   4.188   2.695   7.349 -0.2436 -0.0222 -0.1421
   40POPC   H6S 5362   4.265   2.538   7.380  0.9241  2.5279  1.7679
   40POPC   C27 5363   4.092   2.545   7.492  0.7048  0.3750 -0.4263
   40POPC   H7R 5364   4.087   2.434   7.481  2.2966  0.1065  1.1769
   40POPC   H7S 5365   3.992   2.592   7.480  0.9643  1.0191 -0.0850
   40POPC   C28 5366   4.149   2.594   7.623 -0.4316  0.1602 -0.5894
   40POPC   H8R 5367   4.139   2.704   7.616  0.6665  0.2106 -1.8707
   40POPC   H8S 5368   4.259   2.583   7.633 -0.3792  0.3844 -0.8839
   40POPC   C29 5369   4.071   2.542   7.741  0.2804 -0.4913 -0.1493
   40POPC   H91 5370   3.985   2.604   7.767 -0.8511 -0.3127 -3.8156
   40POPC  C210 5371   4.102   2.430   7.807  0.1632 -0.0726  0.4548
   40POPC  H101 5372   4.043   2.422   7.899  0.7485  0.8413  0.9283
   40POPC  C211 5373   4.209   2.336   7.770 -0.4711 -0.4723 -0.3265
   40POPC  H11R 5374   4.290   2.355   7.844 -1.5619  1.9850  0.3591
   40POPC  H11S 5375   4.262   2.366   7.677  1.3573 -1.1866  0.4399
   40POPC  C212 5376   4.181   2.189   7.748  0.0795 -0.3149 -0.2325
   40POPC  H12R 5377   4.102   2.172   7.671  2.0100 -4.6107 -1.5280
   40POPC  H12S 5378   4.136   2.152   7.843  1.3769  0.3349  0.6660
   40POPC  C213 5379   4.304   2.112   7.711 -0.9792 -0.2028  0.2927
   40POPC  H13R 5380   4.289   2.004   7.728  1.4371 -0.3027  2.4198
   40POPC  H13S 5381   4.395   2.135   7.772 -0.0711  2.9229 -1.9541
   40POPC  C214 5382   4.333   2.137   7.558 -0.1443 -0.5806  0.2739
   40POPC  H14R 5383   4.423   2.079   7.529 -0.4542  0.4841 -3.1856
   40POPC  H14S 5384   4.358   2.243   7.539 -0.2678 -0.7926 -1.1134
   40POPC  C215 5385   4.221   2.107   7.459 -0.1153 -0.2111  0.5210
   40POPC  H15R 5386   4.127   2.166   7.465 -1.2625 -1.6344 -1.8846
   40POPC  H15S 5387   4.196   1.999   7.460  1.6843 -0.6698  0.5424
   40POPC  C216 5388   4.275   2.137   7.314  0.0789 -0.1228  0.8521
   40POPC  H16R 5389   4.373   2.087   7.298 -0.2195 -0.0034 -1.7911
   40POPC  H16S 5390   4.275   2.248   7.300 -1.6832 -0.1669  0.2448
   40POPC  C217 5391   4.177   2.097   7.210  0.5235 -0.4188 -0.3951
   40POPC  H17R 5392   4.082   2.153   7.217 -0.1546 -1.6350  0.5858
   40POPC  H17S 5393   4.143   1.991   7.216 -0.0459 -0.3968 -2.3987
   40POPC  C218 5394   4.227   2.110   7.062  0.5631  0.0748  0.4912
   40POPC  H18R 5395   4.146   2.054   7.010 -0.0321  1.4619 -0.1414
   40POPC  H18S 5396   4.322   2.055   7.045  0.7762  1.3107 -3.0633
   40POPC  H18T 5397   4.242   2.217   7.033 -2.6802  0.8997  1.3950
   40POPC   C33 5398   4.005   2.869   6.920  0.0635 -0.2333  0.1107
   40POPC   H3X 5399   4.042   2.964   6.877 -3.0674  1.4833  0.9504
   40POPC   H3Y 5400   4.092   2.817   6.967  0.0247 -2.3499 -1.9757
   40POPC   C34 5401   3.916   2.890   7.043 -0.8366  0.4776 -0.1405
   40POPC   H4X 5402   3.865   2.794   7.067 -3.6846  1.8719 -0.1497
   40POPC   H4Y 5403   3.834   2.960   7.017 -1.2164  0.7757  1.6919
   40POPC   C35 5404   3.996   2.948   7.164 -0.4461 -1.4278 -0.1217
   40POPC   H5X 5405   4.022   3.056   7.151 -0.4971 -1.2473  1.1698
   40POPC   H5Y 5406   4.089   2.888   7.172  0.4394 -0.2464 -1.0270
   40POPC   C36 5407   3.924   2.943   7.297  0.2799 -0.4267 -0.3209
   40POPC   H6X 5408   3.885   2.840   7.313  0.9811 -0.5356  0.7854
   40POPC   H6Y 5409   3.839   3.015   7.295  0.7563  0.2019 -3.6915
   40POPC   C37 5410   4.018   2.980   7.414 -0.3905  0.5503 -0.5722
   40POPC   H7X 5411   4.046   3.087   7.422 -1.3807  0.7580  0.3968
   40POPC   H7Y 5412   4.114   2.925   7.422 -0.0179  0.9517 -2.0311
   40POPC   C38 5413   3.940   2.960   7.541 -0.0374  0.2858  0.2681
   40POPC   H8X 5414   3.926   2.850   7.536  1.7334  0.0228  0.1085
   40POPC   H8Y 5415   3.848   3.021   7.542  0.4998  1.1162 -0.0164
   40POPC   C39 5416   4.013   2.979   7.680  0.9224  0.5205 -0.3360
   40POPC   H9X 5417   4.025   3.089   7.670  0.5909  0.7023  1.1107
   40POPC   H9Y 5418   4.109   2.924   7.685 -0.8742 -2.8520  0.0133
   40POPC  C310 5419   3.929   2.930   7.799  0.3979 -0.5565 -0.0993
   40POPC  H10X 5420   3.889   2.828   7.784 -0.7481 -0.2625  0.8499
   40POPC  H10Y 5421   3.839   2.995   7.800 -0.6538 -1.9706  0.2977
   40POPC  C311 5422   4.001   2.947   7.929  0.0994  0.4688 -0.3051
   40POPC  H11X 5423   3.937   2.943   8.020 -1.8453 -3.8895 -1.5746
   40POPC  H11Y 5424   4.060   3.041   7.925 -0.3592  0.7649 -0.0395
   40POPC  C312 5425   4.096   2.828   7.943  0.8697 -0.2909 -0.0056
   40POPC  H12X 5426   4.155   2.828   7.849  0.6246 -0.8806 -0.1618
   40POPC  H12Y 5427   4.048   2.729   7.958 -0.8032  0.5298  0.3185
   40POPC  C313 5428   4.197   2.868   8.057 -0.1944  0.4658  0.2680
   40POPC  H13X 5429   4.254   2.961   8.038  1.0293  0.0834  1.9012
   40POPC  H13Y 5430   4.262   2.778   8.061 -0.1826  0.4961  0.7996
   40POPC  C314 5431   4.135   2.887   8.196 -0.5899  0.1103  0.1452
   40POPC  H14X 5432   4.082   2.984   8.209  0.2315  0.7782 -1.2334
   40POPC  H14Y 5433   4.216   2.888   8.272 -1.3022  2.0418  0.9639
   40POPC  C315 5434   4.034   2.773   8.241  0.1641 -0.2894 -0.0730
   40POPC  H15X 5435   4.077   2.679   8.200 -1.9965 -1.4114  0.0859
   40POPC  H15Y 5436   3.935   2.790   8.194 -0.4046  0.7916  1.4458
   40POPC  C316 5437   4.031   2.764   8.393 -0.2636 -0.1344 -0.2079
   40POPC  H16X 5438   4.132   2.779   8.438 -0.4505  2.4314 -0.4961
   40POPC  H16Y 5439   3.974   2.678   8.433 -1.4057  0.3590 -0.7393
   40POPC  H16Z 5440   3.982   2.849   8.445 -4.6822 -2.0549 -0.8618
   41CHL1    C3 5441   2.567   1.295  10.085  0.5421  0.2707  0.2808
   41CHL1    H3 5442   2.646   1.218  10.089  0.6678  0.4248  1.1465
   41CHL1    O3 5443   2.543   1.320  10.221  0.3179  0.6074  0.0360
   41CHL1   H3' 5444   2.470   1.383  10.232 -0.6199 -0.8528  3.0840
   41CHL1    C4 5445   2.625   1.425  10.018  0.4398  0.2561  0.4976
   41CHL1   H4A 5446   2.548   1.502  10.042  0.9077  0.6949  0.5994
   41CHL1   H4B 5447   2.723   1.431  10.069  2.5146 -0.4803 -3.0598
   41CHL1    C5 5448   2.633   1.422   9.863 -0.0393  0.4894  0.4453
   41CHL1    C6 5449   2.749   1.443   9.803  0.5693 -0.1423  0.4588
   41CHL1    H6 5450   2.830   1.471   9.872 -0.7190  0.9813  1.5804
   41CHL1    C7 5451   2.773   1.431   9.658 -0.1797  0.1756 -0.3529
   41CHL1   H7A 5452   2.839   1.512   9.619  1.4666 -1.1244 -0.3270
   41CHL1   H7B 5453   2.829   1.336   9.647 -0.4393  0.1350 -1.3945
   41CHL1    C8 5454   2.642   1.423   9.573  0.5221  0.4752  0.0627
   41CHL1    H8 5455   2.591   1.521   9.574  1.1399  0.8021  1.6354
   41CHL1   C14 5456   2.676   1.379   9.433 -0.2474  0.0441 -0.6312
   41CHL1   H14 5457   2.704   1.272   9.449  0.3570  0.5360  2.1473
   41CHL1   C15 5458   2.793   1.447   9.355 -0.3336  0.4214 -0.0881
   41CHL1  H15A 5459   2.794   1.558   9.362 -0.7904  0.3339  2.3810
   41CHL1  H15B 5460   2.898   1.419   9.377  0.7700  2.7404 -1.9907
   41CHL1   C16 5461   2.770   1.410   9.208 -0.1171  0.0276  0.1956
   41CHL1  H16A 5462   2.757   1.500   9.143 -2.4645 -0.0555  0.4772
   41CHL1  H16B 5463   2.840   1.339   9.157 -0.8679 -0.7087  0.1776
   41CHL1   C17 5464   2.630   1.337   9.209 -0.0300  0.4947 -0.1191
   41CHL1   H17 5465   2.651   1.229   9.218  0.6890  0.5653 -0.8992
   41CHL1   C13 5466   2.556   1.375   9.342 -0.4148  0.5867  0.1579
   41CHL1   C18 5467   2.501   1.518   9.332 -0.0867 -0.2633  0.7517
   41CHL1  H18A 5468   2.571   1.582   9.274 -1.8836  0.6117 -0.5647
   41CHL1  H18B 5469   2.414   1.501   9.264  2.1566  0.3954 -2.5319
   41CHL1  H18C 5470   2.469   1.565   9.427  1.3584  0.0805  1.0868
   41CHL1   C12 5471   2.455   1.274   9.401  0.0767  0.6795  0.4956
   41CHL1  H12A 5472   2.368   1.273   9.333 -0.0216  1.5126  0.6034
   41CHL1  H12B 5473   2.511   1.178   9.397 -1.0968 -0.0181  0.2889
   41CHL1   C11 5474   2.416   1.315   9.541 -0.4516  0.1219  0.0166
   41CHL1  H11A 5475   2.358   1.410   9.536  0.6070  0.7602 -0.4802
   41CHL1  H11B 5476   2.343   1.245   9.587 -1.6637  0.2940 -1.5524
   41CHL1    C9 5477   2.539   1.331   9.634 -0.7936  0.0197  0.4300
   41CHL1    H9 5478   2.591   1.233   9.632 -0.7037  0.0156 -3.2556
   41CHL1   C10 5479   2.509   1.368   9.783 -0.2018  0.9840 -0.4119
   41CHL1   C19 5480   2.403   1.487   9.783 -1.2653  0.6381 -0.0003
   41CHL1  H19A 5481   2.306   1.443   9.752 -0.3487 -1.6199  0.1171
   41CHL1  H19B 5482   2.390   1.519   9.888  1.0294  0.0920  0.5104
   41CHL1  H19C 5483   2.434   1.573   9.719 -0.2991 -0.0403 -0.4746
   41CHL1    C1 5484   2.450   1.248   9.858  0.7167  0.4233  0.1489
   41CHL1   H1A 5485   2.353   1.207   9.822  1.9188 -0.6453 -2.1213
   41CHL1   H1B 5486   2.522   1.166   9.837  1.1117  0.6094  0.7679
   41CHL1    C2 5487   2.437   1.250  10.012 -1.1140  0.8134 -0.4627
   41CHL1   H2A 5488   2.423   1.145  10.047 -1.0644  1.5523  1.9138
   41CHL1   H2B 5489   2.357   1.312  10.056 -0.0972 -0.0812  3.0089
   41CHL1   C20 5490   2.552   1.333   9.072  0.9631  0.2197  0.4196
   41CHL1   H20 5491   2.480   1.417   9.077 -0.0968 -0.7276  2.2778
   41CHL1   C21 5492   2.479   1.196   9.066 -0.7299  0.0523 -0.4118
   41CHL1  H21A 5493   2.399   1.198   8.988 -0.1743  2.3864 -0.9954
   41CHL1  H21B 5494   2.428   1.159   9.157 -1.1389 -0.9385 -1.0234
   41CHL1  H21C 5495   2.544   1.117   9.020  0.5987  0.5713  0.5118
   41CHL1   C22 5496   2.634   1.354   8.940  0.0689  0.1605 -0.3674
   41CHL1  H22A 5497   2.641   1.464   8.926  0.1363  0.5242  2.1299
   41CHL1  H22B 5498   2.732   1.304   8.960  0.7952  1.6635 -0.0101
   41CHL1   C23 5499   2.578   1.307   8.812 -0.8208 -0.7537  1.1807
   41CHL1  H23A 5500   2.585   1.196   8.805  1.7525 -0.6666  1.3861
   41CHL1  H23B 5501   2.472   1.329   8.789 -0.3259 -0.2706 -0.7915
   41CHL1   C24 5502   2.665   1.362   8.698  0.1093  0.2962  0.6683
   41CHL1  H24A 5503   2.659   1.473   8.695 -1.4236  0.2389  0.9146
   41CHL1  H24B 5504   2.774   1.347   8.716  0.5344  2.0312 -0.2121
   41CHL1   C25 5505   2.628   1.307   8.554 -0.1860  0.7139 -0.0198
   41CHL1   H25 5506   2.523   1.331   8.527 -0.4949 -1.5710 -1.0670
   41CHL1   C26 5507   2.719   1.369   8.448 -0.7363  0.0909 -0.2718
   41CHL1  H26A 5508   2.703   1.331   8.345 -1.5006  2.2132 -0.9937
   41CHL1  H26B 5509   2.700   1.479   8.452 -0.0850  0.2148 -0.4708
   41CHL1  H26C 5510   2.826   1.345   8.468 -0.9733 -0.9785 -0.2192
   41CHL1   C27 5511   2.630   1.147   8.536  0.2583  0.4129  1.1535
   41CHL1  H27A 5512   2.558   1.100   8.607  0.0291  2.3809  2.2866
   41CHL1  H27B 5513   2.592   1.125   8.434  0.0421  0.3995  1.2365
   41CHL1  H27C 5514   2.732   1.104   8.534  0.2113  0.2943  1.2635
   42CHL1    C3 5515   0.505   0.396   9.756 -0.1097  0.0151 -0.0407
   42CHL1    H3 5516   0.399   0.387   9.787 -0.6763 -3.9538 -2.4260
   42CHL1    O3 5517   0.578   0.408   9.879 -0.7595 -0.8593  0.2038
   42CHL1   H3' 5518   0.665   0.436   9.848 -0.8955  0.5176  0.9469
   42CHL1    C4 5519   0.558   0.270   9.688  0.4705 -0.6910 -0.9834
   42CHL1   H4A 5520   0.669   0.266   9.696  0.4093 -1.3124 -0.3469
   42CHL1   H4B 5521   0.519   0.190   9.755  0.0355  0.5942  0.3353
   42CHL1    C5 5522   0.522   0.247   9.544 -0.8748  0.7051  0.2246
   42CHL1    C6 5523   0.456   0.139   9.506  0.1787 -0.5794 -0.3700
   42CHL1    H6 5524   0.430   0.054   9.572 -2.7595  1.3260  1.1280
   42CHL1    C7 5525   0.419   0.107   9.370 -0.3187  0.0140 -0.7361
   42CHL1   H7A 5526   0.443   0.003   9.340  0.2386 -0.4959  1.3252
   42CHL1   H7B 5527   0.310   0.125   9.354 -0.6502 -1.6672 -0.6093
   42CHL1    C8 5528   0.487   0.204   9.269 -0.0322  0.0747  0.3082
   42CHL1    H8 5529   0.593   0.173   9.265 -0.1039 -0.4940  1.8676
   42CHL1   C14 5530   0.430   0.190   9.125  0.3086  0.8179  0.9524
   42CHL1   H14 5531   0.325   0.225   9.125 -0.7158 -1.9841 -0.3259
   42CHL1   C15 5532   0.411   0.048   9.062 -0.1520 -0.5372  0.4572
   42CHL1  H15A 5533   0.503  -0.012   9.073 -0.2767 -0.4809  2.2545
   42CHL1  H15B 5534   0.331  -0.009   9.116 -1.3167  0.5824 -0.0270
   42CHL1   C16 5535   0.386   0.087   8.910  0.3510  0.3607  0.0476
   42CHL1  H16A 5536   0.457   0.032   8.844 -1.0883  1.0183 -2.1770
   42CHL1  H16B 5537   0.286   0.043   8.893  0.3165 -0.6761  2.5596
   42CHL1   C17 5538   0.402   0.236   8.894  0.1169  0.0697 -0.3599
   42CHL1   H17 5539   0.304   0.284   8.917 -1.1055 -1.1818 -2.5974
   42CHL1   C13 5540   0.497   0.281   9.018  0.0555  0.0231 -0.5987
   42CHL1   C18 5541   0.638   0.233   8.988 -0.4716  0.1630  0.5041
   42CHL1  H18A 5542   0.704   0.296   8.926  0.6910 -1.2925  0.2078
   42CHL1  H18B 5543   0.707   0.225   9.075  1.7559 -1.1802 -1.2833
   42CHL1  H18C 5544   0.639   0.133   8.940  0.5507 -0.5120  1.8548
   42CHL1   C12 5545   0.508   0.428   9.063  0.7391  1.3827 -0.1185
   42CHL1  H12A 5546   0.574   0.482   8.991  3.0594 -0.5385  0.4536
   42CHL1  H12B 5547   0.410   0.480   9.062 -0.1409 -0.0344 -3.7239
   42CHL1   C11 5548   0.564   0.438   9.208  0.7870  0.0471  0.3214
   42CHL1  H11A 5549   0.671   0.408   9.218  1.3630  1.1095 -1.9406
   42CHL1  H11B 5550   0.551   0.545   9.232  0.8073 -0.0384  0.7229
   42CHL1    C9 5551   0.490   0.347   9.317 -0.3328  0.1312  0.6710
   42CHL1    H9 5552   0.384   0.380   9.328 -0.5872 -1.0006  1.7828
   42CHL1   C10 5553   0.546   0.371   9.461  0.6293 -0.4602  0.2052
   42CHL1   C19 5554   0.700   0.394   9.458  0.0028 -0.8725 -0.7577
   42CHL1  H19A 5555   0.724   0.490   9.407 -2.2835  1.1547  1.6799
   42CHL1  H19B 5556   0.743   0.399   9.560  1.5274 -1.0616 -1.3633
   42CHL1  H19C 5557   0.746   0.306   9.409  0.1847 -1.6698  0.7747
   42CHL1    C1 5558   0.473   0.498   9.520 -0.9931  0.8296 -0.6794
   42CHL1   H1A 5559   0.497   0.580   9.449  0.8832 -0.3852 -1.5357
   42CHL1   H1B 5560   0.364   0.477   9.517 -0.8222 -0.1865 -0.0893
   42CHL1    C2 5561   0.519   0.519   9.667  0.3012  0.2983  0.2144
   42CHL1   H2A 5562   0.481   0.612   9.713  1.9735  1.7619 -1.2157
   42CHL1   H2B 5563   0.629   0.538   9.662  0.2805  0.2230 -0.5558
   42CHL1   C20 5564   0.441   0.281   8.760 -0.1927  0.9985 -0.4473
   42CHL1   H20 5565   0.551   0.268   8.747 -0.5529 -1.0510 -1.9939
   42CHL1   C21 5566   0.401   0.430   8.747  0.7355  0.0106  0.2605
   42CHL1  H21A 5567   0.447   0.498   8.822  0.8988 -1.1459  1.2404
   42CHL1  H21B 5568   0.290   0.436   8.750  0.5568  0.4105 -3.1059
   42CHL1  H21C 5569   0.426   0.466   8.645  0.0651  2.5060  0.9023
   42CHL1   C22 5570   0.384   0.195   8.646  0.0849  0.5261  0.5546
   42CHL1  H22A 5571   0.388   0.085   8.661  0.0323 -0.0129 -2.7931
   42CHL1  H22B 5572   0.277   0.224   8.635 -0.1410 -0.6185 -0.4349
   42CHL1   C23 5573   0.464   0.223   8.513  0.2632 -0.5951 -0.2687
   42CHL1  H23A 5574   0.471   0.332   8.493  1.9902 -0.7172 -0.4670
   42CHL1  H23B 5575   0.572   0.205   8.529  0.3563  0.8624  1.0442
   42CHL1   C24 5576   0.399   0.161   8.386 -0.2607  0.6391 -0.0370
   42CHL1  H24A 5577   0.397   0.051   8.402 -1.4511  0.7375  0.5650
   42CHL1  H24B 5578   0.297   0.202   8.369 -0.2731 -0.1958 -2.3270
   42CHL1   C25 5579   0.478   0.189   8.255 -0.0839  0.1372  0.3363
   42CHL1   H25 5580   0.580   0.150   8.274 -0.9486 -2.9670 -0.7551
   42CHL1   C26 5581   0.416   0.114   8.143  0.5118  0.1772  0.7653
   42CHL1  H26A 5582   0.393   0.010   8.172 -1.2950 -0.7311 -3.2258
   42CHL1  H26B 5583   0.317   0.154   8.113  1.4754  3.5144  1.5519
   42CHL1  H26C 5584   0.488   0.100   8.059 -0.7759 -1.1893 -0.1441
   42CHL1   C27 5585   0.501   0.340   8.226 -0.0958 -0.2635  0.1094
   42CHL1  H27A 5586   0.600   0.370   8.267 -1.1750  2.3714  1.0005
   42CHL1  H27B 5587   0.494   0.344   8.115 -0.9656  1.9234  0.2011
   42CHL1  H27C 5588   0.416   0.394   8.270  0.1379  0.3839 -0.2208
   43CHL1    C3 5589   3.143   6.792   9.973 -0.4244  0.1198 -0.2369
   43CHL1    H3 5590   3.094   6.693   9.974 -0.1867  0.0023  0.5291
   43CHL1    O3 5591   3.148   6.851  10.101  0.1848 -0.2542  0.2226
   43CHL1   H3' 5592   3.196   6.790  10.158  2.1924 -0.8321 -1.9533
   43CHL1    C4 5593   3.284   6.762   9.925  0.3846 -0.0028  0.7993
   43CHL1   H4A 5594   3.328   6.863   9.915 -1.0885  0.5617 -0.5165
   43CHL1   H4B 5595   3.332   6.700  10.004 -0.3349  0.5783  1.7093
   43CHL1    C5 5596   3.281   6.696   9.786 -0.3404  0.3466 -0.1238
   43CHL1    C6 5597   3.340   6.579   9.763  0.0044  0.0498  0.4197
   43CHL1    H6 5598   3.405   6.524   9.832  1.8658 -0.5201 -1.6545
   43CHL1    C7 5599   3.334   6.523   9.622 -0.5036 -0.2137  0.4623
   43CHL1   H7A 5600   3.426   6.466   9.599 -0.8605 -0.7742  0.3935
   43CHL1   H7B 5601   3.260   6.442   9.603  2.8860 -3.4017 -0.1234
   43CHL1    C8 5602   3.302   6.635   9.506  0.2171  0.3206  0.1024
   43CHL1    H8 5603   3.392   6.699   9.497 -0.0123  0.5706 -0.4524
   43CHL1   C14 5604   3.290   6.567   9.365 -0.7340 -0.0742 -0.6492
   43CHL1   H14 5605   3.203   6.498   9.363  0.4677 -1.6389 -0.2515
   43CHL1   C15 5606   3.405   6.483   9.318 -0.4825 -0.6356  0.4938
   43CHL1  H15A 5607   3.505   6.522   9.348 -0.1454  0.6451 -2.0770
   43CHL1  H15B 5608   3.382   6.383   9.360 -2.4417  0.1905  1.5496
   43CHL1   C16 5609   3.389   6.481   9.164 -0.1905 -0.0910  0.5436
   43CHL1  H16A 5610   3.477   6.521   9.107 -1.3876 -2.3693 -3.2884
   43CHL1  H16B 5611   3.378   6.378   9.124 -1.3188  1.5276 -3.9193
   43CHL1   C17 5612   3.258   6.561   9.139  0.3549  0.0406 -0.6181
   43CHL1   H17 5613   3.170   6.494   9.148  0.5903 -0.1281  0.4676
   43CHL1   C13 5614   3.249   6.661   9.254  0.2146  0.8354  0.2277
   43CHL1   C18 5615   3.355   6.773   9.234  0.3310  0.4911 -0.5055
   43CHL1  H18A 5616   3.460   6.738   9.242  0.1762  0.1769  0.2985
   43CHL1  H18B 5617   3.351   6.820   9.134  1.4446  0.6369 -0.4865
   43CHL1  H18C 5618   3.343   6.857   9.306 -0.6323  0.9790 -1.2047
   43CHL1   C12 5619   3.111   6.723   9.293 -0.4915 -0.1756  0.1737
   43CHL1  H12A 5620   3.090   6.792   9.208  0.6881 -1.2669 -1.0503
   43CHL1  H12B 5621   3.042   6.636   9.293  0.1587 -0.7331 -1.5572
   43CHL1   C11 5622   3.119   6.801   9.432  0.2826 -0.1324  0.3574
   43CHL1  H11A 5623   3.183   6.889   9.410 -1.6981  1.5826  1.0633
   43CHL1  H11B 5624   3.021   6.844   9.462 -0.7470 -2.0840 -0.0767
   43CHL1    C9 5625   3.176   6.708   9.546  0.2361 -0.3180 -0.7177
   43CHL1    H9 5626   3.102   6.631   9.577 -0.9167  1.7874  2.2582
   43CHL1   C10 5627   3.205   6.779   9.678  0.3989  0.6954  0.9455
   43CHL1   C19 5628   3.285   6.905   9.641  0.2997 -0.1821  0.2256
   43CHL1  H19A 5629   3.310   6.955   9.738  0.7807  2.6038 -1.2236
   43CHL1  H19B 5630   3.382   6.881   9.593  1.1035 -1.2394  2.2238
   43CHL1  H19C 5631   3.222   6.983   9.592  1.5134 -0.1681 -1.3637
   43CHL1    C1 5632   3.063   6.816   9.741  0.0306  0.3867 -0.1717
   43CHL1   H1A 5633   2.988   6.863   9.673 -0.9772  1.7025  1.7464
   43CHL1   H1B 5634   3.011   6.720   9.763  0.0910  0.3653 -0.1230
   43CHL1    C2 5635   3.067   6.887   9.871  0.0011 -0.1056 -0.2528
   43CHL1   H2A 5636   2.968   6.917   9.912  0.1176  0.7714 -0.5770
   43CHL1   H2B 5637   3.131   6.978   9.867  0.8555 -0.7035 -0.3388
   43CHL1   C20 5638   3.268   6.621   8.988 -0.3093 -0.0805 -0.8377
   43CHL1   H20 5639   3.363   6.674   8.969 -0.6458  1.4950  1.4564
   43CHL1   C21 5640   3.152   6.721   8.963  0.0790 -0.3453 -0.3831
   43CHL1  H21A 5641   3.163   6.815   9.021  0.8390 -0.3837 -0.4442
   43CHL1  H21B 5642   3.050   6.685   8.987  1.0245 -2.5870  0.5688
   43CHL1  H21C 5643   3.149   6.764   8.860 -0.4095 -0.1365 -0.2852
   43CHL1   C22 5644   3.251   6.505   8.886  0.4299  0.1039 -0.1415
   43CHL1  H22A 5645   3.335   6.438   8.913  0.9275  1.0886  0.8905
   43CHL1  H22B 5646   3.155   6.451   8.898  0.8760 -1.3842 -2.5920
   43CHL1   C23 5647   3.267   6.547   8.737  0.5135  0.2265 -0.3647
   43CHL1  H23A 5648   3.170   6.579   8.693  0.0214 -0.2469  0.3618
   43CHL1  H23B 5649   3.338   6.632   8.741  0.9862 -0.2021  0.9864
   43CHL1   C24 5650   3.309   6.425   8.651  0.1116  0.1449 -0.6979
   43CHL1  H24A 5651   3.408   6.383   8.678  0.6223  0.6696 -1.6713
   43CHL1  H24B 5652   3.233   6.345   8.664  0.9797 -0.5605  0.1819
   43CHL1   C25 5653   3.330   6.462   8.502  0.1323 -0.2185  0.4753
   43CHL1   H25 5654   3.231   6.497   8.468  0.9899  1.0023 -0.8721
   43CHL1   C26 5655   3.428   6.586   8.487 -0.5467 -0.2964  0.5254
   43CHL1  H26A 5656   3.380   6.674   8.534 -1.2408 -1.2705  1.7301
   43CHL1  H26B 5657   3.521   6.577   8.546 -1.2308  3.1170  2.3790
   43CHL1  H26C 5658   3.451   6.607   8.381  0.0042 -1.1915  0.4577
   43CHL1   C27 5659   3.391   6.346   8.421 -0.4429  0.7302 -0.0978
   43CHL1  H27A 5660   3.487   6.323   8.472  0.2479  2.9089 -0.3174
   43CHL1  H27B 5661   3.317   6.265   8.438 -1.7983  2.1881  1.3146
   43CHL1  H27C 5662   3.428   6.365   8.318  1.6152 -1.3622  0.1421
   44CHL1    C3 5663   2.375   0.494  10.011  0.4970  0.6566 -1.0129
   44CHL1    H3 5664   2.264   0.504  10.012  0.3230 -0.8248 -1.9017
   44CHL1    O3 5665   2.412   0.469  10.149 -0.0861  0.0581  0.2233
   44CHL1   H3' 5666   2.506   0.452  10.140  0.0737  1.5938 -1.6118
   44CHL1    C4 5667   2.419   0.379   9.926  0.8713 -0.2114  0.0685
   44CHL1   H4A 5668   2.529   0.366   9.936  0.8682  0.9715  2.1281
   44CHL1   H4B 5669   2.370   0.290   9.971  1.3381  0.0294  1.0777
   44CHL1    C5 5670   2.373   0.414   9.778  0.5517 -0.3580 -0.7591
   44CHL1    C6 5671   2.292   0.324   9.718 -0.5581  0.1057  0.5024
   44CHL1    H6 5672   2.270   0.228   9.766  1.2895 -0.5837  0.0413
   44CHL1    C7 5673   2.245   0.336   9.572  0.2151 -0.1399 -0.4595
   44CHL1   H7A 5674   2.267   0.241   9.518 -0.9465  0.0932 -1.3935
   44CHL1   H7B 5675   2.134   0.350   9.571  0.3612  1.2312 -2.2932
   44CHL1    C8 5676   2.317   0.443   9.502 -0.3653 -0.5559  0.0538
   44CHL1    H8 5677   2.420   0.406   9.481  0.0147  0.2427  0.4602
   44CHL1   C14 5678   2.254   0.483   9.364  0.0321  0.9042 -0.1460
   44CHL1   H14 5679   2.150   0.517   9.385 -0.6372 -0.4803 -1.0443
   44CHL1   C15 5680   2.213   0.375   9.260 -0.9337  0.4623 -0.0437
   44CHL1  H15A 5681   2.301   0.306   9.258 -0.5307  0.9666 -2.0764
   44CHL1  H15B 5682   2.121   0.315   9.277 -0.3980 -0.3237  0.1115
   44CHL1   C16 5683   2.204   0.446   9.121 -0.0056  0.3593  0.1638
   44CHL1  H16A 5684   2.283   0.406   9.054 -0.3221  1.9675 -1.2432
   44CHL1  H16B 5685   2.109   0.429   9.065  0.6309  1.8992 -1.4683
   44CHL1   C17 5686   2.232   0.598   9.156  0.0772 -0.4578  0.8740
   44CHL1   H17 5687   2.135   0.640   9.189 -0.7316 -1.5431 -0.0171
   44CHL1   C13 5688   2.321   0.588   9.273  0.2721 -0.1038 -0.4105
   44CHL1   C18 5689   2.458   0.540   9.227  1.2391 -0.0946  0.1250
   44CHL1  H18A 5690   2.524   0.526   9.315  0.1494 -0.3362  0.9230
   44CHL1  H18B 5691   2.450   0.438   9.183  2.4059  0.4147 -1.3776
   44CHL1  H18C 5692   2.512   0.611   9.160 -1.1134  0.1087 -1.6904
   44CHL1   C12 5693   2.328   0.709   9.365  0.5040 -1.1900 -0.4179
   44CHL1  H12A 5694   2.402   0.771   9.310 -1.0227 -0.4910 -1.7857
   44CHL1  H12B 5695   2.231   0.763   9.372  0.6945 -0.9556  0.5612
   44CHL1   C11 5696   2.394   0.685   9.503  0.1701 -0.4284 -0.2306
   44CHL1  H11A 5697   2.502   0.663   9.496  0.3362  0.3902 -0.4016
   44CHL1  H11B 5698   2.391   0.781   9.559  0.7466 -2.0720  2.7853
   44CHL1    C9 5699   2.334   0.572   9.588  0.0257 -0.1922 -0.0516
   44CHL1    H9 5700   2.232   0.605   9.617  0.6532  0.0088  2.0941
   44CHL1   C10 5701   2.414   0.545   9.717 -0.0960  0.1837  0.2353
   44CHL1   C19 5702   2.565   0.541   9.685  1.0317  0.1158  0.2735
   44CHL1  H19A 5703   2.620   0.508   9.776 -0.5615 -1.5300  0.7037
   44CHL1  H19B 5704   2.581   0.460   9.611  0.4738 -0.3490  0.6558
   44CHL1  H19C 5705   2.621   0.632   9.654 -0.1411  0.9591  0.5484
   44CHL1    C1 5706   2.398   0.661   9.822  0.3185 -0.5052 -0.3940
   44CHL1   H1A 5707   2.453   0.754   9.798 -0.7429 -0.2676 -2.0441
   44CHL1   H1B 5708   2.294   0.699   9.828  1.2231  2.2052 -0.7079
   44CHL1    C2 5709   2.447   0.619   9.963 -0.8653 -0.3608  0.0303
   44CHL1   H2A 5710   2.424   0.698  10.038  0.3691 -0.4419  0.5211
   44CHL1   H2B 5711   2.557   0.604   9.957 -1.0292 -1.1228 -1.4047
   44CHL1   C20 5712   2.266   0.677   9.028 -0.3764  0.2135  0.3302
   44CHL1   H20 5713   2.370   0.645   9.002 -0.1402  0.1194  1.3546
   44CHL1   C21 5714   2.292   0.831   9.046  0.3035  0.0292 -0.5530
   44CHL1  H21A 5715   2.378   0.855   9.113 -0.7764 -0.0020  0.8917
   44CHL1  H21B 5716   2.203   0.875   9.096  0.3201 -0.4355 -0.1013
   44CHL1  H21C 5717   2.314   0.893   8.956  1.7184  2.8199  1.5473
   44CHL1   C22 5718   2.179   0.647   8.901 -0.1723 -1.1973  0.2333
   44CHL1  H22A 5719   2.230   0.687   8.811  0.4986 -2.7625 -0.1047
   44CHL1  H22B 5720   2.183   0.537   8.887  0.1712 -1.0248 -1.1084
   44CHL1   C23 5721   2.031   0.691   8.912 -0.3196 -0.3101 -0.7431
   44CHL1  H23A 5722   1.992   0.642   9.004 -0.0770 -0.3700 -0.6704
   44CHL1  H23B 5723   2.026   0.802   8.910 -0.2391 -0.1375  2.5851
   44CHL1   C24 5724   1.955   0.644   8.788  0.2994  0.2195  0.6337
   44CHL1  H24A 5725   2.005   0.669   8.691  1.3423  0.3606  1.1912
   44CHL1  H24B 5726   1.943   0.534   8.794 -3.1197  0.5849  2.1567
   44CHL1   C25 5727   1.806   0.685   8.792 -0.0056  0.6992  0.5952
   44CHL1   H25 5728   1.755   0.659   8.886 -1.2936 -2.3161 -0.8280
   44CHL1   C26 5729   1.789   0.840   8.772 -0.2748 -0.2089 -0.3262
   44CHL1  H26A 5730   1.680   0.859   8.757  0.0569  1.2724 -1.0695
   44CHL1  H26B 5731   1.821   0.899   8.861 -0.7998 -0.5679  0.1094
   44CHL1  H26C 5732   1.840   0.878   8.681  1.2348 -1.0799  0.1294
   44CHL1   C27 5733   1.732   0.613   8.679  0.4518 -0.4444 -0.7815
   44CHL1  H27A 5734   1.777   0.629   8.579  0.2837  2.8316 -0.4477
   44CHL1  H27B 5735   1.715   0.507   8.706 -0.2693  0.6278  3.8163
   44CHL1  H27C 5736   1.630   0.659   8.676  0.8420  0.5719  0.5986
   45CHL1    C3 5737   0.787   5.450  10.342 -0.0424  0.2721  0.1547
   45CHL1    H3 5738   0.836   5.379  10.413  0.1018 -0.7862 -0.9693
   45CHL1    O3 5739   0.731   5.555  10.419  0.2865  0.4094 -0.1415
   45CHL1   H3' 5740   0.769   5.639  10.391  0.3502  0.1342 -0.8920
   45CHL1    C4 5741   0.903   5.515  10.261  0.4249 -1.3096 -0.3908
   45CHL1   H4A 5742   0.880   5.611  10.212 -0.8750  0.3790  3.2014
   45CHL1   H4B 5743   0.977   5.547  10.337  2.6155 -1.3387 -2.3897
   45CHL1    C5 5744   0.966   5.411  10.171 -0.3841 -0.1331 -0.2277
   45CHL1    C6 5745   1.100   5.406  10.173 -0.1653  0.3579  0.1479
   45CHL1    H6 5746   1.152   5.481  10.235  0.0345 -0.7934  1.4158
   45CHL1    C7 5747   1.175   5.308  10.086 -0.7219 -0.6930 -0.3293
   45CHL1   H7A 5748   1.256   5.365  10.036  1.0323 -1.2139  1.7679
   45CHL1   H7B 5749   1.243   5.254  10.156  1.6458  2.8363  0.3727
   45CHL1    C8 5750   1.094   5.213   9.997  0.6955 -0.3224  0.1223
   45CHL1    H8 5751   1.135   5.111  10.005  0.4067 -0.3889  0.8164
   45CHL1   C14 5752   1.097   5.246   9.845  0.7518  0.0758  0.2565
   45CHL1   H14 5753   1.065   5.352   9.844 -1.7049 -0.5962  0.0298
   45CHL1   C15 5754   1.240   5.235   9.795  0.7415  0.4361 -0.7991
   45CHL1  H15A 5755   1.251   5.325   9.732 -1.3725  0.4181 -1.2703
   45CHL1  H15B 5756   1.310   5.236   9.881  2.2386 -1.8830 -1.8747
   45CHL1   C16 5757   1.245   5.099   9.719  0.1772 -0.2156  0.0939
   45CHL1  H16A 5758   1.277   5.133   9.618  1.6422  1.5195  1.0837
   45CHL1  H16B 5759   1.313   5.021   9.759  1.9320  1.6762  0.9359
   45CHL1   C17 5760   1.101   5.041   9.726  1.2480 -0.2905  0.1474
   45CHL1   H17 5761   1.097   4.990   9.824  2.4574  0.0242  0.3774
   45CHL1   C13 5762   1.012   5.161   9.749  0.3401  0.7336 -0.2927
   45CHL1   C18 5763   0.985   5.244   9.620  0.2035  0.1801 -0.2783
   45CHL1  H18A 5764   1.081   5.262   9.567  1.4536 -0.0392  1.8117
   45CHL1  H18B 5765   0.907   5.200   9.554 -0.1473 -1.6756  1.2872
   45CHL1  H18C 5766   0.945   5.340   9.660  1.2843  0.3536  0.4108
   45CHL1   C12 5767   0.867   5.135   9.807  0.1459  0.3902 -0.2848
   45CHL1  H12A 5768   0.803   5.223   9.784  1.3860  1.6425  0.8463
   45CHL1  H12B 5769   0.825   5.053   9.746  1.0083  0.5553 -1.1199
   45CHL1   C11 5770   0.867   5.103   9.957 -0.3231  0.7299 -0.2607
   45CHL1  H11A 5771   0.761   5.083   9.982 -0.3769  0.5137 -0.6502
   45CHL1  H11B 5772   0.925   5.009   9.969 -1.1641  0.2630  0.2275
   45CHL1    C9 5773   0.948   5.198  10.051 -0.0621 -0.4066  0.4105
   45CHL1    H9 5774   0.968   5.145  10.147  1.6574 -0.6313 -0.0523
   45CHL1   C10 5775   0.868   5.324  10.096 -0.7285  0.1485  0.3865
   45CHL1   C19 5776   0.817   5.414   9.979 -0.8844  0.6062  0.1021
   45CHL1  H19A 5777   0.894   5.434   9.901 -0.4564  2.9612  1.0374
   45CHL1  H19B 5778   0.729   5.366   9.932  0.8092 -0.3786 -2.2721
   45CHL1  H19C 5779   0.792   5.514  10.020 -0.9054  0.8289 -0.4482
   45CHL1    C1 5780   0.751   5.277  10.178 -0.5491 -0.0436  0.1284
   45CHL1   H1A 5781   0.678   5.235  10.105  1.7716 -0.4587 -2.1012
   45CHL1   H1B 5782   0.778   5.196  10.248 -0.1143 -0.4507 -0.5011
   45CHL1    C2 5783   0.677   5.383  10.261  0.1857  0.2201 -0.3251
   45CHL1   H2A 5784   0.617   5.330  10.338  1.4916 -1.0132 -0.1173
   45CHL1   H2B 5785   0.607   5.448  10.204 -0.4432 -0.4042 -0.2852
   45CHL1   C20 5786   1.061   4.940   9.619 -0.1380 -0.2526  0.3231
   45CHL1   H20 5787   0.951   4.924   9.616 -0.2831  0.8008 -0.2261
   45CHL1   C21 5788   1.116   4.814   9.676 -0.5081  0.3382 -0.0670
   45CHL1  H21A 5789   1.225   4.825   9.697 -0.0337 -0.2784 -2.0181
   45CHL1  H21B 5790   1.104   4.725   9.610 -0.4521  0.1100  0.2289
   45CHL1  H21C 5791   1.061   4.789   9.770 -0.6782  1.0685  0.0313
   45CHL1   C22 5792   1.118   4.972   9.471  0.3261 -0.2649  0.3725
   45CHL1  H22A 5793   1.103   5.078   9.445 -0.1371 -0.8353 -1.8527
   45CHL1  H22B 5794   1.228   4.958   9.479  0.5194  0.6693 -0.5710
   45CHL1   C23 5795   1.069   4.866   9.376 -0.4319 -0.1050  0.2893
   45CHL1  H23A 5796   1.124   4.769   9.379  0.4619  0.3587 -0.4776
   45CHL1  H23B 5797   0.962   4.842   9.394 -0.4499 -0.0148  0.2988
   45CHL1   C24 5798   1.093   4.907   9.227 -0.4490 -0.2519 -0.1210
   45CHL1  H24A 5799   1.047   5.007   9.212  0.1736  0.2367  1.0854
   45CHL1  H24B 5800   1.201   4.924   9.213 -0.3726  1.9247  2.2802
   45CHL1   C25 5801   1.023   4.799   9.128 -0.5143  0.0896 -0.6777
   45CHL1   H25 5802   0.931   4.763   9.178 -0.4237 -0.3110 -0.7951
   45CHL1   C26 5803   0.970   4.868   8.995  0.1348  0.2357  0.0507
   45CHL1  H26A 5804   1.055   4.917   8.943  2.1909 -0.3087  2.6722
   45CHL1  H26B 5805   0.932   4.782   8.937  1.2266 -0.5346  0.4320
   45CHL1  H26C 5806   0.887   4.938   9.018  0.2114  0.8530 -1.4999
   45CHL1   C27 5807   1.117   4.684   9.097  0.7356 -0.7575 -0.3512
   45CHL1  H27A 5808   1.161   4.642   9.190 -2.1090 -1.1481  0.9320
   45CHL1  H27B 5809   1.058   4.604   9.048  0.7160 -0.2663 -1.1429
   45CHL1  H27C 5810   1.195   4.722   9.028  1.1685 -1.2728 -0.1537
   46CHL1    C3 5811   3.694   1.744  10.150  0.0385  0.6033  0.0369
   46CHL1    H3 5812   3.593   1.734  10.104  1.6026 -0.0571 -3.6407
   46CHL1    O3 5813   3.708   1.708  10.286 -0.2495  0.4031 -0.0197
   46CHL1   H3' 5814   3.797   1.733  10.312 -0.4597  3.6515 -1.9089
   46CHL1    C4 5815   3.796   1.668  10.056  0.1060  0.1476  0.4155
   46CHL1   H4A 5816   3.897   1.678  10.102 -0.7318 -0.9165  2.6921
   46CHL1   H4B 5817   3.766   1.561  10.065  0.0580  0.1575  0.3689
   46CHL1    C5 5818   3.772   1.736   9.917 -0.0357  0.2395 -0.1953
   46CHL1    C6 5819   3.727   1.661   9.815 -0.5828 -1.2999  1.2317
   46CHL1    H6 5820   3.708   1.553   9.826 -3.7306 -1.0484 -0.5765
   46CHL1    C7 5821   3.704   1.723   9.682 -0.3842 -0.0072 -0.5153
   46CHL1   H7A 5822   3.726   1.641   9.611 -0.3000 -2.2950  1.9935
   46CHL1   H7B 5823   3.594   1.738   9.675 -0.1081  2.8027 -0.2288
   46CHL1    C8 5824   3.786   1.850   9.658  0.9821  0.2165  0.2192
   46CHL1    H8 5825   3.890   1.818   9.641  0.4433 -0.5757 -1.9008
   46CHL1   C14 5826   3.748   1.921   9.531 -0.1950 -0.0901 -0.0559
   46CHL1   H14 5827   3.643   1.956   9.542 -0.8060 -1.7941 -0.1139
   46CHL1   C15 5828   3.732   1.840   9.400  0.1435 -0.1670 -0.0495
   46CHL1  H15A 5829   3.811   1.763   9.390 -0.0429 -0.1295 -2.5539
   46CHL1  H15B 5830   3.630   1.797   9.384 -0.1992  1.5757 -3.4972
   46CHL1   C16 5831   3.758   1.944   9.285 -0.6440  0.0436  0.2059
   46CHL1  H16A 5832   3.849   1.909   9.231 -1.3013 -0.6535 -0.4762
   46CHL1  H16B 5833   3.676   1.933   9.211 -0.5368  0.2346  0.0563
   46CHL1   C17 5834   3.770   2.078   9.355  0.0487 -0.4312 -0.2997
   46CHL1   H17 5835   3.661   2.095   9.371 -0.1465 -2.8721  1.5726
   46CHL1   C13 5836   3.828   2.041   9.488 -0.2117  0.4072 -0.5824
   46CHL1   C18 5837   3.980   2.011   9.462 -0.1412 -0.0182  0.0018
   46CHL1  H18A 5838   4.036   2.103   9.434 -1.4119  0.3059 -1.6048
   46CHL1  H18B 5839   4.034   1.967   9.549  0.7653  0.3137 -0.3761
   46CHL1  H18C 5840   3.989   1.924   9.393 -0.6698  0.6575 -0.9276
   46CHL1   C12 5841   3.805   2.144   9.609 -0.4902 -0.0082 -0.6040
   46CHL1  H12A 5842   3.880   2.226   9.603 -0.9251  0.4871  0.5183
   46CHL1  H12B 5843   3.701   2.179   9.624 -0.3949 -0.9110  3.1417
   46CHL1   C11 5844   3.838   2.084   9.743 -0.1031  0.2661  0.4348
   46CHL1  H11A 5845   3.949   2.075   9.744  0.1487  2.4804 -0.5938
   46CHL1  H11B 5846   3.811   2.149   9.829 -1.0765 -1.4905  1.5176
   46CHL1    C9 5847   3.765   1.948   9.768 -0.0876 -0.4620 -0.4133
   46CHL1    H9 5848   3.655   1.961   9.765 -0.1103 -0.7695 -1.1373
   46CHL1   C10 5849   3.800   1.886   9.906 -0.5823 -0.2620  0.7785
   46CHL1   C19 5850   3.954   1.897   9.934 -0.1911 -0.6998  0.3074
   46CHL1  H19A 5851   4.010   1.844   9.855 -0.4398 -1.7414  0.8052
   46CHL1  H19B 5852   3.995   2.000   9.937  0.5776 -1.0184  1.3538
   46CHL1  H19C 5853   3.986   1.843  10.026  3.0099  0.3221 -0.0946
   46CHL1    C1 5854   3.707   1.955  10.008  0.9474  0.0379  0.0843
   46CHL1   H1A 5855   3.727   2.064  10.001 -1.7221  0.5605 -0.6420
   46CHL1   H1B 5856   3.599   1.951   9.983  0.9112 -1.0747  0.3562
   46CHL1    C2 5857   3.734   1.902  10.149  0.2443  0.1463  0.1624
   46CHL1   H2A 5858   3.668   1.957  10.220 -0.9090 -0.2726 -0.5406
   46CHL1   H2B 5859   3.837   1.923  10.183 -0.7534  1.6044  2.5332
   46CHL1   C20 5860   3.830   2.201   9.285  0.3950 -0.5720 -0.7066
   46CHL1   H20 5861   3.883   2.256   9.365 -1.6688  0.0939  0.2740
   46CHL1   C21 5862   3.722   2.303   9.238  0.1687 -0.1031  0.0321
   46CHL1  H21A 5863   3.671   2.268   9.146  0.9328 -0.0363 -0.4295
   46CHL1  H21B 5864   3.758   2.406   9.218 -2.2806  0.7340 -0.4314
   46CHL1  H21C 5865   3.651   2.317   9.322  0.6089  3.6273 -0.0491
   46CHL1   C22 5866   3.925   2.179   9.169 -0.6685 -0.3635 -0.5633
   46CHL1  H22A 5867   3.979   2.274   9.149 -0.7473  0.4312  2.4977
   46CHL1  H22B 5868   3.990   2.099   9.209 -2.9084 -0.9805  2.1739
   46CHL1   C23 5869   3.883   2.127   9.039  0.5578 -0.1021  0.4086
   46CHL1  H23A 5870   3.823   2.035   9.052 -1.4684  1.4350  3.0032
   46CHL1  H23B 5871   3.798   2.179   8.991  1.4494 -0.4901 -1.7112
   46CHL1   C24 5872   4.005   2.110   8.945 -0.1873 -0.4522 -0.4361
   46CHL1  H24A 5873   4.062   2.204   8.930 -0.6448 -0.2367 -0.8295
   46CHL1  H24B 5874   4.075   2.045   9.002 -0.1395 -0.0906 -0.0803
   46CHL1   C25 5875   3.980   2.054   8.801  0.1450  0.0861  0.3450
   46CHL1   H25 5876   3.919   1.961   8.808  1.2844 -0.8531 -1.4992
   46CHL1   C26 5877   3.895   2.154   8.709 -0.7332  0.0406  0.1687
   46CHL1  H26A 5878   3.810   2.195   8.768 -0.5471  1.1737 -0.3276
   46CHL1  H26B 5879   3.961   2.237   8.676  1.5515 -2.0499 -0.8777
   46CHL1  H26C 5880   3.864   2.105   8.614  0.0646 -0.1764  0.0132
   46CHL1   C27 5881   4.111   2.019   8.736 -0.0295 -0.2110 -0.2633
   46CHL1  H27A 5882   4.094   1.948   8.652 -2.2984 -1.2320  0.9777
   46CHL1  H27B 5883   4.174   2.105   8.702  0.3223 -1.4217 -2.8693
   46CHL1  H27C 5884   4.179   1.962   8.803  3.0987  1.6488 -1.5711
   47CHL1    C3 5885   2.508   6.785   9.930  0.2369 -0.2127 -0.4637
   47CHL1    H3 5886   2.414   6.844   9.921 -0.2611 -0.6254  1.4183
   47CHL1    O3 5887   2.525   6.748  10.065  0.5308 -0.2204 -0.0477
   47CHL1   H3' 5888   2.503   6.834  10.102  2.0533  1.3295 -2.4496
   47CHL1    C4 5889   2.488   6.664   9.835 -0.1795 -0.0813 -1.1206
   47CHL1   H4A 5890   2.573   6.597   9.863 -2.2098 -1.3005  2.7265
   47CHL1   H4B 5891   2.393   6.620   9.870 -0.2627  0.8367 -0.1406
   47CHL1    C5 5892   2.477   6.712   9.692  0.1862 -0.3852 -0.1301
   47CHL1    C6 5893   2.379   6.666   9.606  0.1975  0.0421 -1.0034
   47CHL1    H6 5894   2.309   6.594   9.650  0.6547 -1.8171 -3.1455
   47CHL1    C7 5895   2.355   6.713   9.464 -0.3567 -0.0369 -0.0189
   47CHL1   H7A 5896   2.324   6.631   9.395  1.0284  1.5578 -2.6826
   47CHL1   H7B 5897   2.272   6.785   9.446 -0.3565  0.0604  0.3657
   47CHL1    C8 5898   2.484   6.781   9.413 -0.0752 -0.5307  0.4867
   47CHL1    H8 5899   2.561   6.701   9.412 -0.8966 -1.3413  0.9121
   47CHL1   C14 5900   2.456   6.862   9.277 -0.2404 -0.1154 -0.4747
   47CHL1   H14 5901   2.389   6.947   9.302  1.2087  0.2828  2.4540
   47CHL1   C15 5902   2.391   6.778   9.162  0.0396  0.5420 -0.6419
   47CHL1  H15A 5903   2.439   6.678   9.155  0.3234  0.5904  0.4058
   47CHL1  H15B 5904   2.284   6.756   9.180  0.4175 -0.4073  0.6102
   47CHL1   C16 5905   2.409   6.862   9.041  0.5006 -0.0535  0.4030
   47CHL1  H16A 5906   2.458   6.800   8.963 -0.0193  0.6340 -0.5053
   47CHL1  H16B 5907   2.319   6.906   8.992  0.4160 -0.3119  0.3251
   47CHL1   C17 5908   2.509   6.972   9.077 -0.5159  0.7637 -0.5086
   47CHL1   H17 5909   2.456   7.066   9.105 -0.7401  0.4689  0.0784
   47CHL1   C13 5910   2.573   6.923   9.213 -0.3052  0.7023 -0.3325
   47CHL1   C18 5911   2.682   6.819   9.180  0.6789  0.3233 -0.4015
   47CHL1  H18A 5912   2.641   6.748   9.106 -0.4768  0.3738  0.1811
   47CHL1  H18B 5913   2.766   6.876   9.133  0.1857  1.3363 -0.0925
   47CHL1  H18C 5914   2.723   6.766   9.269 -1.6570 -2.1639 -0.6914
   47CHL1   C12 5915   2.634   7.028   9.311 -0.4597 -0.3204  0.0055
   47CHL1  H12A 5916   2.735   7.058   9.276 -0.2024 -0.5828  0.5168
   47CHL1  H12B 5917   2.567   7.117   9.316  1.4138  1.2460 -1.3080
   47CHL1   C11 5918   2.645   6.977   9.453 -0.3795 -0.1673  0.4322
   47CHL1  H11A 5919   2.745   6.929   9.455 -0.3296 -0.2343 -1.8412
   47CHL1  H11B 5920   2.646   7.061   9.526 -0.2846 -0.1803  0.4456
   47CHL1    C9 5921   2.538   6.880   9.515 -0.3228 -0.0882 -0.2469
   47CHL1    H9 5922   2.451   6.942   9.548 -0.8167 -1.1652  0.5183
   47CHL1   C10 5923   2.585   6.811   9.650  0.1313 -0.5290 -1.0601
   47CHL1   C19 5924   2.707   6.727   9.628 -0.1009  0.2934  0.4855
   47CHL1  H19A 5925   2.691   6.641   9.559 -0.5592 -0.0935  1.0565
   47CHL1  H19B 5926   2.786   6.790   9.584 -1.6980  1.9033 -0.1924
   47CHL1  H19C 5927   2.749   6.684   9.722  0.1971 -1.4704 -0.4122
   47CHL1    C1 5928   2.610   6.923   9.753 -0.3874 -0.2340  0.2943
   47CHL1   H1A 5929   2.704   6.976   9.727  0.8768 -2.3151  0.3822
   47CHL1   H1B 5930   2.532   7.001   9.768 -0.6198 -0.5997  1.0557
   47CHL1    C2 5931   2.635   6.863   9.892  0.6004  0.0569  0.3950
   47CHL1   H2A 5932   2.644   6.940   9.972 -0.3638  0.2783  0.2975
   47CHL1   H2B 5933   2.720   6.793   9.911 -0.9362 -2.0064  0.0350
   47CHL1   C20 5934   2.606   7.010   8.962 -0.1341 -0.6790 -0.1008
   47CHL1   H20 5935   2.677   6.927   8.943 -1.7750 -2.4254  0.9750
   47CHL1   C21 5936   2.679   7.141   9.006 -0.2129  0.7550 -0.2066
   47CHL1  H21A 5937   2.754   7.171   8.930  0.5239 -0.7136 -0.1025
   47CHL1  H21B 5938   2.740   7.117   9.096 -0.1962 -1.2903 -0.7059
   47CHL1  H21C 5939   2.618   7.233   9.017 -1.3266  0.0864 -0.5781
   47CHL1   C22 5940   2.531   7.034   8.825  0.6633  0.3348 -0.0437
   47CHL1  H22A 5941   2.476   6.940   8.801 -0.8890  0.6988  1.7881
   47CHL1  H22B 5942   2.457   7.113   8.847 -0.1589 -0.3083 -0.4085
   47CHL1   C23 5943   2.613   7.077   8.701 -0.3553  0.2814  0.2257
   47CHL1  H23A 5944   2.535   7.094   8.624 -0.8380 -1.6411  0.2516
   47CHL1  H23B 5945   2.673   7.168   8.722  1.2760 -1.3098  3.1956
   47CHL1   C24 5946   2.707   6.970   8.647 -0.5493 -0.6926 -0.0355
   47CHL1  H24A 5947   2.783   6.936   8.721  0.7851 -0.0449 -1.0675
   47CHL1  H24B 5948   2.657   6.875   8.617  1.6110 -1.6937 -0.6781
   47CHL1   C25 5949   2.795   7.006   8.522  0.4655  0.0420 -0.3383
   47CHL1   H25 5950   2.824   6.910   8.473  1.1934 -0.1930  0.5166
   47CHL1   C26 5951   2.725   7.096   8.420 -0.2963 -0.5331 -0.1099
   47CHL1  H26A 5952   2.713   7.202   8.450  1.3489  0.7596 -3.4471
   47CHL1  H26B 5953   2.627   7.050   8.398 -0.6524 -0.8265  1.9266
   47CHL1  H26C 5954   2.784   7.103   8.326 -0.4464 -1.4253 -0.2847
   47CHL1   C27 5955   2.927   7.076   8.562  0.8219  0.9532  0.1070
   47CHL1  H27A 5956   2.910   7.142   8.649 -0.6762  0.8181 -0.0600
   47CHL1  H27B 5957   2.999   7.001   8.603  0.9210  1.5435  1.0462
   47CHL1  H27C 5958   2.976   7.134   8.481 -0.5192  1.8891 -0.0615
   48CHL1    C3 5959   5.625   0.642  10.205 -0.5515 -0.2113  0.4647
   48CHL1    H3 5960   5.668   0.735  10.161 -1.8952  0.6287  0.8387
   48CHL1    O3 5961   5.677   0.633  10.336  0.8951 -0.0992 -0.1378
   48CHL1   H3' 5962   5.608   0.671  10.391  1.5604  0.6866  0.1652
   48CHL1    C4 5963   5.474   0.661  10.220 -0.0854 -0.7873 -0.8239
   48CHL1   H4A 5964   5.444   0.584  10.294 -1.7500 -0.8159 -1.4896
   48CHL1   H4B 5965   5.458   0.761  10.267 -0.3096 -2.1031  2.0899
   48CHL1    C5 5966   5.388   0.645  10.093  0.1851  0.7218 -0.0986
   48CHL1    C6 5967   5.300   0.730  10.051  0.6026  0.4798 -0.0171
   48CHL1    H6 5968   5.281   0.828  10.098  2.6507  2.0346 -2.2189
   48CHL1    C7 5969   5.209   0.694   9.931 -0.0191 -0.0698  0.3476
   48CHL1   H7A 5970   5.104   0.706   9.965 -0.2005 -0.0161 -0.2233
   48CHL1   H7B 5971   5.222   0.774   9.856  0.6933  0.6715  1.2379
   48CHL1    C8 5972   5.219   0.555   9.872  0.2404 -0.4366  0.2208
   48CHL1    H8 5973   5.171   0.479   9.938  0.6665 -0.6180  0.3270
   48CHL1   C14 5974   5.153   0.547   9.734 -0.1534  0.2122 -0.1614
   48CHL1   H14 5975   5.202   0.629   9.678 -0.0343 -0.1543 -0.6079
   48CHL1   C15 5976   5.007   0.589   9.716 -0.1397  0.0066  0.6923
   48CHL1  H15A 5977   4.947   0.538   9.794 -1.5155  1.4496  0.6251
   48CHL1  H15B 5978   4.987   0.697   9.728 -2.3863 -0.3672  0.6957
   48CHL1   C16 5979   4.974   0.546   9.573 -0.5622  0.3400 -0.6555
   48CHL1  H16A 5980   4.881   0.487   9.586  0.2252 -0.3209  3.4080
   48CHL1  H16B 5981   4.954   0.634   9.508 -0.7563  0.9021  0.1461
   48CHL1   C17 5982   5.098   0.454   9.529  0.0313 -0.2793  0.3370
   48CHL1   H17 5983   5.156   0.538   9.485 -2.5720  1.9975  0.9514
   48CHL1   C13 5984   5.174   0.420   9.662 -0.4578  0.1838 -0.2542
   48CHL1   C18 5985   5.101   0.300   9.731  0.9126  0.5683 -0.1876
   48CHL1  H18A 5986   4.993   0.327   9.727  1.2895  2.3189  0.3161
   48CHL1  H18B 5987   5.114   0.208   9.671  0.0228  0.0121  0.4347
   48CHL1  H18C 5988   5.136   0.281   9.835  2.1596 -1.3143 -0.9030
   48CHL1   C12 5989   5.333   0.389   9.639 -0.0357  0.0826 -0.1610
   48CHL1  H12A 5990   5.336   0.279   9.621  3.2692  0.1889 -0.8142
   48CHL1  H12B 5991   5.360   0.445   9.547  0.6395  0.2444  0.1297
   48CHL1   C11 5992   5.404   0.398   9.776  0.2949  0.1546  1.2517
   48CHL1  H11A 5993   5.376   0.311   9.840 -0.5571 -0.4338  0.1036
   48CHL1  H11B 5994   5.512   0.394   9.750 -0.4262  0.0324 -2.1871
   48CHL1    C9 5995   5.373   0.528   9.857 -0.2243 -0.5523 -0.1434
   48CHL1    H9 5996   5.412   0.611   9.795 -0.1972 -1.4605 -1.4028
   48CHL1   C10 5997   5.435   0.523  10.000  0.4802 -0.8747 -0.5585
   48CHL1   C19 5998   5.398   0.393  10.070 -0.1505 -0.5111  0.6096
   48CHL1  H19A 5999   5.295   0.354  10.054 -0.2519 -0.1740  0.4380
   48CHL1  H19B 6000   5.459   0.313  10.022 -0.5053 -0.4706  0.0760
   48CHL1  H19C 6001   5.426   0.386  10.177  0.5628 -1.3646  0.3800
   48CHL1    C1 6002   5.593   0.521   9.999 -0.2857  0.5777 -0.6682
   48CHL1   H1A 6003   5.625   0.429   9.944  0.4390 -0.4452  1.3485
   48CHL1   H1B 6004   5.633   0.607   9.941  0.7638  1.6002  1.4760
   48CHL1    C2 6005   5.658   0.512  10.134 -0.2983  0.4768  0.9523
   48CHL1   H2A 6006   5.769   0.505  10.137 -0.1953  1.4741  0.0835
   48CHL1   H2B 6007   5.626   0.416  10.180 -0.1737 -0.0955 -0.1210
   48CHL1   C20 6008   5.056   0.349   9.433  1.3694 -0.4957 -1.0858
   48CHL1   H20 6009   4.970   0.300   9.482  1.2015  1.8626  1.1942
   48CHL1   C21 6010   5.155   0.229   9.407  0.0344  0.4412  0.8666
   48CHL1  H21A 6011   5.178   0.161   9.491  1.3250 -0.0084  0.1865
   48CHL1  H21B 6012   5.254   0.267   9.371 -0.1024  0.7890  0.8616
   48CHL1  H21C 6013   5.120   0.153   9.333  1.3711 -1.2148  1.8319
   48CHL1   C22 6014   5.015   0.412   9.295  0.2531  0.0770 -0.1652
   48CHL1  H22A 6015   4.943   0.494   9.318 -2.0507 -2.8326  4.4878
   48CHL1  H22B 6016   5.106   0.451   9.245  1.4143 -0.2145  1.6615
   48CHL1   C23 6017   4.935   0.322   9.208  0.5970 -0.0747 -0.4964
   48CHL1  H23A 6018   4.999   0.241   9.166 -0.9168 -1.1483 -0.8431
   48CHL1  H23B 6019   4.857   0.279   9.274 -0.9469 -0.6850 -2.5859
   48CHL1   C24 6020   4.873   0.389   9.087  0.5654 -0.2498 -0.1468
   48CHL1  H24A 6021   4.807   0.472   9.120  2.4462 -0.2300  4.1753
   48CHL1  H24B 6022   4.948   0.430   9.015 -2.0433 -0.8491 -3.4588
   48CHL1   C25 6023   4.794   0.288   9.001  0.6359  0.0003 -0.4883
   48CHL1   H25 6024   4.721   0.228   9.059 -0.2751 -0.1249 -1.7262
   48CHL1   C26 6025   4.710   0.369   8.896  0.2744 -0.1250 -0.2310
   48CHL1  H26A 6026   4.667   0.455   8.952  0.1832  0.9984 -1.9680
   48CHL1  H26B 6027   4.767   0.406   8.809  3.4969  0.5765  1.9961
   48CHL1  H26C 6028   4.630   0.301   8.860 -1.6083  1.8333 -0.0060
   48CHL1   C27 6029   4.884   0.202   8.912  0.6013 -0.2244  0.2348
   48CHL1  H27A 6030   4.819   0.134   8.853  0.2913  1.3393 -1.3176
   48CHL1  H27B 6031   4.935   0.262   8.834  2.6267 -2.6933 -0.4709
   48CHL1  H27C 6032   4.958   0.138   8.965  0.5030  1.4222  2.5211
   49CHL1    C3 6033   2.114   0.956  10.108 -0.1932 -0.2468  0.6298
   49CHL1    H3 6034   2.220   0.977  10.084 -0.1739 -0.3645  0.6110
   49CHL1    O3 6035   2.101   0.928  10.243  0.1973  0.7809 -0.1659
   49CHL1   H3' 6036   2.029   0.865  10.248  0.4189  0.6431  2.3667
   49CHL1    C4 6037   2.019   1.072  10.079 -0.1071 -0.9435  0.6065
   49CHL1   H4A 6038   1.915   1.058  10.116 -0.6940  0.9804 -0.2168
   49CHL1   H4B 6039   2.053   1.159  10.138  0.6813 -1.3033  0.6927
   49CHL1    C5 6040   2.024   1.113   9.932 -0.3842  0.1489 -0.6871
   49CHL1    C6 6041   2.063   1.236   9.898 -0.2998 -0.0281 -0.2048
   49CHL1    H6 6042   2.092   1.315   9.970  2.2164 -0.7026 -0.4003
   49CHL1    C7 6043   2.053   1.272   9.758 -0.1323 -0.5600  0.3542
   49CHL1   H7A 6044   2.033   1.381   9.761  1.6082 -0.2170  2.3834
   49CHL1   H7B 6045   2.156   1.260   9.718 -0.0298 -1.2204  0.7943
   49CHL1    C8 6046   1.964   1.190   9.662  0.1488  0.1084 -0.3330
   49CHL1    H8 6047   1.859   1.216   9.687  0.7839  2.5387 -0.0034
   49CHL1   C14 6048   1.983   1.227   9.518 -0.3142 -0.2780  0.6813
   49CHL1   H14 6049   2.090   1.203   9.500 -0.5879 -2.4491  1.7166
   49CHL1   C15 6050   1.991   1.379   9.490  0.1036  0.0430  0.6133
   49CHL1  H15A 6051   1.917   1.446   9.539 -0.7649  1.3475 -2.2670
   49CHL1  H15B 6052   2.086   1.426   9.525  1.5499 -3.6617  2.1522
   49CHL1   C16 6053   1.978   1.375   9.333  0.3213 -0.7497 -0.6641
   49CHL1  H16A 6054   1.890   1.435   9.304  0.5963  0.4314  0.8271
   49CHL1  H16B 6055   2.069   1.429   9.299 -0.4644  1.5931  0.6982
   49CHL1   C17 6056   1.973   1.227   9.284 -0.5008 -0.2024  0.1161
   49CHL1   H17 6057   2.073   1.183   9.267 -0.5402 -1.3866  2.5368
   49CHL1   C13 6058   1.912   1.149   9.408 -0.4919  0.3330  0.3831
   49CHL1   C18 6059   1.759   1.183   9.418 -0.4827  0.0012  0.1200
   49CHL1  H18A 6060   1.707   1.165   9.321  2.3043 -0.2078 -1.4369
   49CHL1  H18B 6061   1.712   1.135   9.506 -0.8726  0.1321 -0.0153
   49CHL1  H18C 6062   1.745   1.289   9.449 -2.4798  0.2146 -1.3066
   49CHL1   C12 6063   1.948   1.002   9.427  0.1630  0.2493  0.0507
   49CHL1  H12A 6064   1.898   0.943   9.347  1.7648  0.2037 -0.9719
   49CHL1  H12B 6065   2.056   0.988   9.406 -0.1456 -3.6620  0.2953
   49CHL1   C11 6066   1.928   0.957   9.569 -0.3716  0.7769 -0.0601
   49CHL1  H11A 6067   1.819   0.958   9.590 -0.5678  1.4961 -1.0240
   49CHL1  H11B 6068   1.960   0.851   9.579 -0.5223  0.8279  1.0594
   49CHL1    C9 6069   2.002   1.040   9.682  0.0496 -0.0241 -0.1040
   49CHL1    H9 6070   2.110   1.039   9.658  0.1487 -0.9269  0.3101
   49CHL1   C10 6071   1.977   1.002   9.834 -0.1380 -0.6791 -0.0545
   49CHL1   C19 6072   1.822   0.966   9.861 -1.3926 -0.3715 -0.6339
   49CHL1  H19A 6073   1.761   1.054   9.831 -1.3494  0.7762  2.3263
   49CHL1  H19B 6074   1.791   0.879   9.799  0.3353 -1.6236  0.1832
   49CHL1  H19C 6075   1.803   0.950   9.969  1.1388 -2.6187 -0.3980
   49CHL1    C1 6076   2.066   0.882   9.871 -0.5253  0.5117  0.0408
   49CHL1   H1A 6077   2.044   0.787   9.819  2.1673 -0.1040 -0.1549
   49CHL1   H1B 6078   2.171   0.908   9.845  0.5656 -2.4140  1.0280
   49CHL1    C2 6079   2.079   0.841  10.024  0.8851  0.2991  0.0744
   49CHL1   H2A 6080   2.139   0.753  10.053 -1.2429 -0.8292  1.2812
   49CHL1   H2B 6081   1.973   0.823  10.050  0.7999 -0.5682 -0.8222
   49CHL1   C20 6082   1.905   1.220   9.148  0.4471 -0.4780  0.3989
   49CHL1   H20 6083   1.805   1.267   9.155  1.7132  2.5630 -0.1989
   49CHL1   C21 6084   1.880   1.081   9.092 -0.2056  0.1966 -0.0422
   49CHL1  H21A 6085   1.798   1.034   9.150  0.2293 -0.9717 -0.3585
   49CHL1  H21B 6086   1.969   1.014   9.086 -0.4717 -0.1849  0.2484
   49CHL1  H21C 6087   1.842   1.088   8.988  0.1207  0.4500 -0.1493
   49CHL1   C22 6088   1.966   1.307   9.035 -0.1605 -0.5097  0.2634
   49CHL1  H22A 6089   1.911   1.285   8.941 -0.1689  1.4145 -0.2148
   49CHL1  H22B 6090   1.933   1.408   9.067  0.3062 -0.1419 -0.4047
   49CHL1   C23 6091   2.117   1.300   9.011 -0.0469  1.0121 -0.4031
   49CHL1  H23A 6092   2.165   1.346   9.100 -0.7838  0.7724  0.1233
   49CHL1  H23B 6093   2.154   1.195   9.017  0.9807  1.4431  2.8973
   49CHL1   C24 6094   2.176   1.372   8.893  0.1159  0.0091  0.4375
   49CHL1  H24A 6095   2.157   1.480   8.916 -4.1553 -0.6605  0.9535
   49CHL1  H24B 6096   2.278   1.330   8.888 -0.1213 -0.7372  1.6458
   49CHL1   C25 6097   2.117   1.338   8.755  0.9791 -0.1921  0.1081
   49CHL1   H25 6098   2.007   1.339   8.769  1.1775 -1.3989  2.2437
   49CHL1   C26 6099   2.166   1.435   8.651  0.2082 -0.2698  0.4688
   49CHL1  H26A 6100   2.276   1.447   8.663  0.4210 -0.0355 -1.3809
   49CHL1  H26B 6101   2.143   1.401   8.548 -0.3028 -1.4163  0.9434
   49CHL1  H26C 6102   2.112   1.529   8.674  3.4478  1.6218  0.9009
   49CHL1   C27 6103   2.150   1.193   8.705 -0.8272 -0.8607  0.1786
   49CHL1  H27A 6104   2.260   1.177   8.712 -1.0410 -2.9665 -0.5416
   49CHL1  H27B 6105   2.105   1.123   8.778  0.2300 -1.3612  0.3728
   49CHL1  H27C 6106   2.119   1.180   8.599 -0.0299 -1.6908  0.0421
   50CHL1    C3 6107   6.618   3.611  10.319 -0.3196 -0.2739 -0.5988
   50CHL1    H3 6108   6.684   3.695  10.288 -1.0104  0.4827 -0.0598
   50CHL1    O3 6109   6.617   3.585  10.456 -0.5073  0.2241  0.0615
   50CHL1   H3' 6110   6.522   3.573  10.468 -0.2446 -2.0584  0.2648
   50CHL1    C4 6111   6.485   3.624  10.255 -0.2283  0.3864 -0.2431
   50CHL1   H4A 6112   6.421   3.534  10.267 -0.1355  0.3801  0.2432
   50CHL1   H4B 6113   6.435   3.712  10.302 -1.1977  0.2860 -1.0407
   50CHL1    C5 6114   6.495   3.643  10.104  0.0287  0.9482  0.3340
   50CHL1    C6 6115   6.446   3.752  10.048 -0.2644  0.4867  0.4655
   50CHL1    H6 6116   6.389   3.823  10.110 -1.1317  1.4829 -1.4044
   50CHL1    C7 6117   6.456   3.775   9.901  0.1807 -0.5500 -0.1586
   50CHL1   H7A 6118   6.360   3.816   9.864  1.2477  2.7756  0.3961
   50CHL1   H7B 6119   6.535   3.852   9.889  0.1624 -0.2440  1.4541
   50CHL1    C8 6120   6.495   3.655   9.820  0.2308  0.3300  0.2559
   50CHL1    H8 6121   6.401   3.596   9.814 -0.1895  0.9347  0.7526
   50CHL1   C14 6122   6.528   3.694   9.680  0.2333  0.3429 -0.4090
   50CHL1   H14 6123   6.622   3.750   9.700 -0.0525  0.4739  0.6291
   50CHL1   C15 6124   6.434   3.792   9.611 -0.2545 -0.8467 -0.0625
   50CHL1  H15A 6125   6.326   3.769   9.619  0.1738 -2.7160  0.9550
   50CHL1  H15B 6126   6.457   3.889   9.660 -1.8566 -1.7248  2.6073
   50CHL1   C16 6127   6.478   3.778   9.465 -0.4100 -0.8723 -0.5990
   50CHL1  H16A 6128   6.389   3.736   9.414  0.4194 -2.1884 -1.0041
   50CHL1  H16B 6129   6.491   3.882   9.428  0.1362  0.7095  3.4675
   50CHL1   C17 6130   6.594   3.674   9.460 -0.5000 -0.1115 -0.1219
   50CHL1   H17 6131   6.684   3.738   9.474 -0.3891 -0.5559  1.3388
   50CHL1   C13 6132   6.570   3.584   9.585 -0.5137 -0.9499 -0.4486
   50CHL1   C18 6133   6.447   3.492   9.549  0.0620 -0.2912  0.2121
   50CHL1  H18A 6134   6.405   3.450   9.643 -1.3897 -0.6158 -0.5611
   50CHL1  H18B 6135   6.359   3.544   9.505  0.2188  0.0245  0.2688
   50CHL1  H18C 6136   6.484   3.415   9.478 -2.4061 -3.0123  1.6329
   50CHL1   C12 6137   6.679   3.507   9.646 -0.4839  0.2520 -0.0359
   50CHL1  H12A 6138   6.683   3.414   9.585  0.2564 -1.1861  2.0660
   50CHL1  H12B 6139   6.778   3.551   9.668 -1.5807  2.5810  0.6024
   50CHL1   C11 6140   6.634   3.449   9.788  0.0795 -0.3016 -0.4231
   50CHL1  H11A 6141   6.557   3.370   9.773 -0.1098 -0.8413  2.6825
   50CHL1  H11B 6142   6.727   3.402   9.826  1.7221  1.7758 -1.6166
   50CHL1    C9 6143   6.598   3.564   9.880 -0.0591 -0.0708  1.0191
   50CHL1    H9 6144   6.692   3.623   9.883  0.5862 -1.1172  1.9466
   50CHL1   C10 6145   6.560   3.524  10.026  0.1998 -0.5065 -0.1082
   50CHL1   C19 6146   6.466   3.401  10.018  0.0164 -0.3721  0.2569
   50CHL1  H19A 6147   6.444   3.355  10.117 -1.9737 -1.1436 -0.4836
   50CHL1  H19B 6148   6.379   3.423   9.953  1.6905  0.6891 -1.7531
   50CHL1  H19C 6149   6.529   3.322   9.971  1.9894  0.6797  1.0024
   50CHL1    C1 6150   6.690   3.488  10.101 -0.5787  0.0892  0.4039
   50CHL1   H1A 6151   6.725   3.388  10.068 -0.2364  0.3393 -0.0046
   50CHL1   H1B 6152   6.771   3.559  10.072 -1.1589 -0.1643 -2.0105
   50CHL1    C2 6153   6.683   3.490  10.257 -0.2422 -0.0555  0.2493
   50CHL1   H2A 6154   6.774   3.453  10.309 -1.2506 -1.0971  1.3128
   50CHL1   H2B 6155   6.625   3.401  10.287 -1.7724  0.5788 -0.7179
   50CHL1   C20 6156   6.616   3.598   9.320  0.2612 -0.7999 -0.2083
   50CHL1   H20 6157   6.535   3.523   9.309  0.2769 -0.7214 -0.9501
   50CHL1   C21 6158   6.758   3.547   9.321  0.2052  0.3489 -0.6652
   50CHL1  H21A 6159   6.784   3.488   9.412  1.2963  0.1641 -1.0848
   50CHL1  H21B 6160   6.831   3.630   9.315 -0.4517  1.0026  0.1217
   50CHL1  H21C 6161   6.780   3.477   9.238  0.0613 -0.9355  0.3416
   50CHL1   C22 6162   6.593   3.696   9.202  0.1553 -0.2724  0.6786
   50CHL1  H22A 6163   6.486   3.723   9.190  0.2578 -0.5677 -1.2536
   50CHL1  H22B 6164   6.656   3.786   9.213 -0.8532  0.3139  1.8813
   50CHL1   C23 6165   6.638   3.637   9.063  0.3744  0.2702 -0.1464
   50CHL1  H23A 6166   6.748   3.618   9.066  0.3577 -0.0847 -1.2136
   50CHL1  H23B 6167   6.591   3.539   9.041 -0.0778  0.8528 -1.9609
   50CHL1   C24 6168   6.605   3.732   8.947  0.2065 -0.5168  0.2029
   50CHL1  H24A 6169   6.498   3.753   8.968  0.1603 -1.5866  1.1658
   50CHL1  H24B 6170   6.656   3.830   8.936 -0.4205 -0.2629 -0.4895
   50CHL1   C25 6171   6.613   3.653   8.812  0.0289  0.4617 -0.4633
   50CHL1   H25 6172   6.539   3.571   8.810  2.3675 -1.7877 -1.6184
   50CHL1   C26 6173   6.580   3.757   8.702  0.0665  0.2120 -0.6935
   50CHL1  H26A 6174   6.476   3.795   8.708  0.6828  2.3017 -2.2772
   50CHL1  H26B 6175   6.645   3.846   8.719  1.0904 -0.7321  0.5396
   50CHL1  H26C 6176   6.591   3.709   8.602 -0.5717 -1.9165  0.1985
   50CHL1   C27 6177   6.761   3.590   8.795 -0.3813  0.0687  0.2313
   50CHL1  H27A 6178   6.770   3.527   8.704  2.6419 -2.6193  2.1921
   50CHL1  H27B 6179   6.837   3.671   8.803 -0.7900  0.3958  0.9473
   50CHL1  H27C 6180   6.761   3.514   8.875 -0.4566  1.2531  1.3938
   51CHL1    C3 6181   0.133   0.947  10.299  0.5280  0.9815  0.6631
   51CHL1    H3 6182   0.060   1.030  10.312  1.3110  1.6606  0.8418
   51CHL1    O3 6183   0.230   0.942  10.397  0.1568  0.0013  0.4174
   51CHL1   H3' 6184   0.312   0.923  10.350  0.8598 -0.1715  1.6862
   51CHL1    C4 6185   0.054   0.810  10.284 -1.0398 -0.2436  0.5180
   51CHL1   H4A 6186   0.130   0.729  10.281 -0.0251  0.7012 -0.9337
   51CHL1   H4B 6187  -0.000   0.799  10.380 -1.0448  1.3547  0.7214
   51CHL1    C5 6188  -0.034   0.777  10.164  0.2035 -0.6566 -0.2330
   51CHL1    C6 6189  -0.149   0.716  10.168  0.5990 -0.6769  0.2600
   51CHL1    H6 6190  -0.183   0.673  10.264  0.5033  1.4397  1.2266
   51CHL1    C7 6191  -0.231   0.686  10.048 -0.1965  0.0216  0.7685
   51CHL1   H7A 6192  -0.282   0.587  10.056  0.5712 -0.4305  0.2683
   51CHL1   H7B 6193  -0.315   0.758  10.043  0.5612  0.8281 -1.2109
   51CHL1    C8 6194  -0.167   0.707   9.906 -0.0158 -0.2634  0.8063
   51CHL1    H8 6195  -0.097   0.623   9.885  0.6107  1.0101 -2.9523
   51CHL1   C14 6196  -0.268   0.698   9.796 -0.7687 -0.3995  0.1616
   51CHL1   H14 6197  -0.341   0.779   9.816 -0.8651 -0.0601 -1.4518
   51CHL1   C15 6198  -0.355   0.569   9.782 -0.3060  0.4218 -0.1034
   51CHL1  H15A 6199  -0.293   0.478   9.764 -1.9027 -0.6677 -0.2927
   51CHL1  H15B 6200  -0.431   0.549   9.860  0.0014 -0.5585 -0.0396
   51CHL1   C16 6201  -0.421   0.583   9.641 -0.3250 -0.1497  0.5842
   51CHL1  H16A 6202  -0.403   0.490   9.584  2.8962  2.2417 -2.8225
   51CHL1  H16B 6203  -0.531   0.591   9.641 -0.3049  1.6862 -2.5024
   51CHL1   C17 6204  -0.353   0.706   9.575 -0.3975 -0.4752  0.0026
   51CHL1   H17 6205  -0.415   0.790   9.611 -0.8010 -2.0852  3.4678
   51CHL1   C13 6206  -0.216   0.734   9.654  0.1325 -0.2159 -0.4370
   51CHL1   C18 6207  -0.103   0.632   9.616 -0.7493  0.0355  0.3057
   51CHL1  H18A 6208  -0.144   0.536   9.578  1.0760 -0.4259 -0.6360
   51CHL1  H18B 6209  -0.041   0.672   9.532 -0.3709  0.2541  0.6840
   51CHL1  H18C 6210  -0.034   0.613   9.701 -0.8746  0.8765  0.6045
   51CHL1   C12 6211  -0.163   0.879   9.665  0.1250  0.8250  0.5652
   51CHL1  H12A 6212  -0.128   0.906   9.562  2.7118 -2.7943  0.2937
   51CHL1  H12B 6213  -0.253   0.942   9.683 -0.9198 -0.8177  1.2561
   51CHL1   C11 6214  -0.055   0.898   9.771  0.2770 -1.1426 -0.4808
   51CHL1  H11A 6215   0.035   0.841   9.739  1.3468  0.5546 -0.6384
   51CHL1  H11B 6216  -0.034   1.007   9.778 -0.5994 -1.0162  0.5029
   51CHL1    C9 6217  -0.089   0.839   9.917  0.0540  0.0441  1.0649
   51CHL1    H9 6218  -0.157   0.913   9.964  0.4086  1.4785 -0.5565
   51CHL1   C10 6219   0.024   0.834  10.032  0.8250  0.3502  0.5354
   51CHL1   C19 6220   0.141   0.738   9.983  0.2801  0.0750 -0.2853
   51CHL1  H19A 6221   0.212   0.790   9.916  0.0804 -1.6038 -1.8837
   51CHL1  H19B 6222   0.208   0.713  10.068  1.1119  0.7051 -0.7484
   51CHL1  H19C 6223   0.106   0.646   9.931  1.5425 -0.5644 -0.0494
   51CHL1    C1 6224   0.086   0.971  10.059 -0.4586 -0.5512  0.7704
   51CHL1   H1A 6225   0.131   1.008   9.964 -1.9287  1.0171  0.6187
   51CHL1   H1B 6226   0.007   1.042  10.093  0.4815  0.3385  1.1522
   51CHL1    C2 6227   0.196   0.980  10.170  0.0051  0.2435  0.2516
   51CHL1   H2A 6228   0.221   1.088  10.177  1.2133 -0.1084  2.5989
   51CHL1   H2B 6229   0.277   0.911  10.137  0.6168  1.7924 -1.6963
   51CHL1   C20 6230  -0.344   0.716   9.426  0.0086 -0.9552  0.3541
   51CHL1   H20 6231  -0.246   0.682   9.387 -0.5827 -1.5382 -0.6687
   51CHL1   C21 6232  -0.361   0.866   9.391 -0.5991 -0.1480  0.1514
   51CHL1  H21A 6233  -0.370   0.889   9.282 -0.8273 -0.5964  0.0753
   51CHL1  H21B 6234  -0.273   0.921   9.430  0.3352 -0.6839 -1.0994
   51CHL1  H21C 6235  -0.441   0.915   9.450  1.4335  1.1607  1.9565
   51CHL1   C22 6236  -0.459   0.642   9.350  0.1615 -0.6515 -0.8840
   51CHL1  H22A 6237  -0.467   0.538   9.390  1.9582 -0.8034 -0.8016
   51CHL1  H22B 6238  -0.549   0.698   9.383  1.8693  0.8384  1.5878
   51CHL1   C23 6239  -0.444   0.635   9.194  0.0472  0.3470  0.9376
   51CHL1  H23A 6240  -0.428   0.721   9.125  1.2663 -1.1129 -0.7054
   51CHL1  H23B 6241  -0.347   0.582   9.187  0.0169  0.2664  1.1238
   51CHL1   C24 6242  -0.555   0.550   9.121 -0.0519  0.0875  0.7695
   51CHL1  H24A 6243  -0.536   0.450   9.165 -2.1902 -0.2758  0.9920
   51CHL1  H24B 6244  -0.654   0.565   9.170 -0.7494 -0.2796 -0.4766
   51CHL1   C25 6245  -0.558   0.564   8.972  0.6620 -0.2629 -0.5720
   51CHL1   H25 6246  -0.581   0.671   8.956 -0.4412 -0.3477  0.3671
   51CHL1   C26 6247  -0.430   0.523   8.901  0.0756 -0.2482  0.4311
   51CHL1  H26A 6248  -0.455   0.509   8.794 -2.8052 -0.5639  1.0478
   51CHL1  H26B 6249  -0.346   0.594   8.914  1.4646 -1.2145 -2.4855
   51CHL1  H26C 6250  -0.394   0.427   8.943 -2.6119 -1.2905  0.5736
   51CHL1   C27 6251  -0.682   0.489   8.905 -0.2870 -0.5689 -0.2148
   51CHL1  H27A 6252  -0.693   0.528   8.801  0.7105 -2.3958 -1.0490
   51CHL1  H27B 6253  -0.683   0.378   8.913 -0.9754 -0.4485  1.9358
   51CHL1  H27C 6254  -0.770   0.515   8.967  0.3062 -1.7596  1.2038
   52CHL1    C3 6255   4.688   5.769  10.088 -0.2526 -0.3891  0.1754
   52CHL1    H3 6256   4.617   5.854  10.074 -0.5972 -0.7333 -0.1985
   52CHL1    O3 6257   4.766   5.781  10.212 -0.8906  0.7152  0.2713
   52CHL1   H3' 6258   4.801   5.870  10.224  0.4256 -0.0889  3.3205
   52CHL1    C4 6259   4.602   5.646  10.094  0.1158  0.0053  0.8027
   52CHL1   H4A 6260   4.656   5.558  10.136 -0.3839  0.0896  1.6387
   52CHL1   H4B 6261   4.526   5.660  10.174  1.7937 -0.8473  2.6177
   52CHL1    C5 6262   4.543   5.600   9.964  0.3725  0.1392  0.0911
   52CHL1    C6 6263   4.414   5.582   9.940  0.2222 -0.1542  0.4212
   52CHL1    H6 6264   4.343   5.602  10.022 -1.3556  0.0472 -0.9564
   52CHL1    C7 6265   4.342   5.534   9.813  0.6617 -0.9995  0.1358
   52CHL1   H7A 6266   4.259   5.464   9.838  1.3860 -1.1650  2.2649
   52CHL1   H7B 6267   4.276   5.615   9.775 -0.7710 -1.6776  1.0736
   52CHL1    C8 6268   4.441   5.487   9.711  0.1570 -0.2122  0.2655
   52CHL1    H8 6269   4.453   5.383   9.747 -2.2892 -1.1304 -1.3357
   52CHL1   C14 6270   4.374   5.481   9.571 -0.1334  0.1750  0.4730
   52CHL1   H14 6271   4.373   5.589   9.545 -1.0588 -0.0359 -0.4100
   52CHL1   C15 6272   4.228   5.433   9.550 -0.9922  0.2302 -0.1650
   52CHL1  H15A 6273   4.205   5.335   9.599  1.6445 -1.6673 -2.3915
   52CHL1  H15B 6274   4.159   5.512   9.585  1.1822  1.6606  1.1036
   52CHL1   C16 6275   4.220   5.417   9.398 -0.6703  0.5358  0.7177
   52CHL1  H16A 6276   4.199   5.308   9.389  0.8202  0.3728 -1.6035
   52CHL1  H16B 6277   4.125   5.460   9.359 -0.9084 -1.6248 -1.3296
   52CHL1   C17 6278   4.365   5.439   9.335  0.4438 -0.1380 -0.5443
   52CHL1   H17 6279   4.376   5.545   9.301 -0.4865 -0.3131 -1.4452
   52CHL1   C13 6280   4.459   5.419   9.462  0.2067 -0.2022  0.0643
   52CHL1   C18 6281   4.463   5.269   9.488 -0.7014 -0.0784 -0.4407
   52CHL1  H18A 6282   4.523   5.254   9.580 -0.8701  1.7034  0.0072
   52CHL1  H18B 6283   4.362   5.223   9.494 -1.2283  0.9337 -1.0688
   52CHL1  H18C 6284   4.523   5.211   9.415  0.2888 -1.2152  1.2042
   52CHL1   C12 6285   4.602   5.483   9.468  0.0550  0.1458 -0.2306
   52CHL1  H12A 6286   4.667   5.416   9.407 -2.3470 -1.0881 -1.5909
   52CHL1  H12B 6287   4.600   5.581   9.414  1.0364  0.2292 -0.1369
   52CHL1   C11 6288   4.670   5.496   9.602  0.1658 -0.1433  0.6423
   52CHL1  H11A 6289   4.697   5.391   9.623  0.5540 -0.2790 -0.4752
   52CHL1  H11B 6290   4.765   5.551   9.581  0.0643 -0.2903 -0.2620
   52CHL1    C9 6291   4.577   5.556   9.709 -0.1385  0.2308  0.2861
   52CHL1    H9 6292   4.552   5.658   9.673  2.0182  1.3756  1.8163
   52CHL1   C10 6293   4.649   5.581   9.849  0.8067  0.3368 -0.4583
   52CHL1   C19 6294   4.721   5.454   9.884  0.1598 -0.0970  0.0335
   52CHL1  H19A 6295   4.656   5.364   9.877 -1.0053  0.7210  0.0187
   52CHL1  H19B 6296   4.805   5.443   9.812  0.1637  1.1482 -0.1639
   52CHL1  H19C 6297   4.768   5.452   9.984 -1.4904 -2.3944  0.8693
   52CHL1    C1 6298   4.723   5.718   9.852 -0.3222  0.4698 -0.0665
   52CHL1   H1A 6299   4.794   5.716   9.766 -1.1300 -1.5887 -0.7478
   52CHL1   H1B 6300   4.657   5.804   9.826 -0.3964 -0.1509 -2.0779
   52CHL1    C2 6301   4.792   5.757   9.982 -0.1671 -0.9124 -0.1883
   52CHL1   H2A 6302   4.845   5.854   9.969  1.7574 -1.7179  1.0914
   52CHL1   H2B 6303   4.869   5.679  10.001 -0.7074 -1.9128 -1.8320
   52CHL1   C20 6304   4.382   5.353   9.213  0.1575  0.1613  0.3573
   52CHL1   H20 6305   4.372   5.245   9.238  0.6838  0.2021  0.7529
   52CHL1   C21 6306   4.525   5.369   9.150 -0.5445 -0.3557 -0.5294
   52CHL1  H21A 6307   4.551   5.301   9.066  1.9863 -0.6153  0.3723
   52CHL1  H21B 6308   4.607   5.354   9.224 -2.2165 -1.7742  1.1396
   52CHL1  H21C 6309   4.531   5.474   9.115 -2.1310  0.1248  0.5024
   52CHL1   C22 6310   4.279   5.382   9.102 -0.3288  0.4151  0.4547
   52CHL1  H22A 6311   4.188   5.339   9.148  0.4578 -0.9607  0.8164
   52CHL1  H22B 6312   4.262   5.489   9.081 -1.1760  0.0833 -0.6573
   52CHL1   C23 6313   4.301   5.304   8.965  0.4029  0.0229  0.1941
   52CHL1  H23A 6314   4.407   5.317   8.933  0.4369  0.6542  0.5450
   52CHL1  H23B 6315   4.299   5.193   8.975 -0.2476  0.1281  1.3468
   52CHL1   C24 6316   4.204   5.331   8.845  0.7530  0.2856  0.6572
   52CHL1  H24A 6317   4.109   5.280   8.872 -0.7567  3.1358  1.0966
   52CHL1  H24B 6318   4.194   5.442   8.847  1.8710  0.4256 -0.3589
   52CHL1   C25 6319   4.254   5.278   8.708  0.4322  0.4729 -0.0806
   52CHL1   H25 6320   4.348   5.332   8.681  0.7016  0.2504  0.4018
   52CHL1   C26 6321   4.284   5.128   8.726  0.4295  0.1974  0.5074
   52CHL1  H26A 6322   4.359   5.107   8.806  0.6149 -1.0849  0.0196
   52CHL1  H26B 6323   4.187   5.077   8.741  0.0484  0.9040  0.4823
   52CHL1  H26C 6324   4.329   5.082   8.635  0.0470 -0.0553  0.4470
   52CHL1   C27 6325   4.162   5.304   8.593  0.5639  0.0177  0.2812
   52CHL1  H27A 6326   4.165   5.409   8.557  0.7047 -0.5028 -1.2706
   52CHL1  H27B 6327   4.206   5.252   8.505  1.5731  2.9749 -1.0770
   52CHL1  H27C 6328   4.057   5.281   8.622  0.0513  0.3104 -1.2706
   53CHL1    C3 6329   4.256   6.654  10.200  0.3173  0.0183  0.0054
   53CHL1    H3 6330   4.153   6.680  10.234  1.0848  1.6252  1.2485
   53CHL1    O3 6331   4.337   6.662  10.316  0.5356 -0.2034 -0.1712
   53CHL1   H3' 6332   4.389   6.742  10.315 -0.7107  0.7975  2.7166
   53CHL1    C4 6333   4.257   6.505  10.148 -0.1157 -0.3342  0.0652
   53CHL1   H4A 6334   4.362   6.469  10.149 -0.7359 -2.2106  0.2598
   53CHL1   H4B 6335   4.210   6.435  10.220  0.6214  1.5805  2.5662
   53CHL1    C5 6336   4.189   6.485  10.016 -0.3422  0.5494  0.7111
   53CHL1    C6 6337   4.087   6.399   9.991  0.0797  0.1384 -0.4000
   53CHL1    H6 6338   4.038   6.343  10.072 -0.0042  0.7798 -0.0052
   53CHL1    C7 6339   4.029   6.375   9.851 -0.1235  0.2815  0.3612
   53CHL1   H7A 6340   4.012   6.266   9.837  0.0519  0.1144  1.4079
   53CHL1   H7B 6341   3.934   6.429   9.831  0.6641  1.8264  0.5892
   53CHL1    C8 6342   4.133   6.423   9.750 -0.1224 -0.2371  0.0406
   53CHL1    H8 6343   4.218   6.351   9.757 -0.2346 -0.2420  1.9705
   53CHL1   C14 6344   4.076   6.413   9.603  0.4539 -0.4930 -1.2898
   53CHL1   H14 6345   3.995   6.488   9.599  1.3331  0.5835  0.1974
   53CHL1   C15 6346   4.018   6.279   9.557  0.1217 -0.4283  0.9690
   53CHL1  H15A 6347   4.074   6.193   9.598 -0.5598 -2.2416 -1.6438
   53CHL1  H15B 6348   3.913   6.274   9.594 -0.3763  1.2911 -0.0482
   53CHL1   C16 6349   4.028   6.287   9.403 -0.1752 -0.4863  0.5032
   53CHL1  H16A 6350   4.105   6.215   9.367 -0.4623 -0.9982  0.8844
   53CHL1  H16B 6351   3.933   6.268   9.348  0.2272  1.5034 -0.9910
   53CHL1   C17 6352   4.078   6.430   9.368 -0.1339 -0.2769  0.0899
   53CHL1   H17 6353   3.983   6.487   9.371 -1.1495 -1.9602  0.6857
   53CHL1   C13 6354   4.162   6.466   9.491  0.5124  0.0686  0.1865
   53CHL1   C18 6355   4.300   6.391   9.478  0.7073  0.0330 -0.2061
   53CHL1  H18A 6356   4.374   6.457   9.428  0.8822  1.8975  2.3358
   53CHL1  H18B 6357   4.346   6.374   9.577  1.2426  2.3945  0.0105
   53CHL1  H18C 6358   4.282   6.294   9.427 -2.9408 -1.6030  3.5817
   53CHL1   C12 6359   4.188   6.618   9.516  0.0645 -0.5316  0.1718
   53CHL1  H12A 6360   4.264   6.651   9.442  0.0170  0.5707  0.5815
   53CHL1  H12B 6361   4.090   6.671   9.521 -0.9500 -2.3690  3.8717
   53CHL1   C11 6362   4.251   6.638   9.654 -0.0047 -0.7413 -0.6353
   53CHL1  H11A 6363   4.358   6.609   9.652 -0.2793 -1.7712 -2.3710
   53CHL1  H11B 6364   4.257   6.748   9.669  0.6792 -0.7409 -0.9056
   53CHL1    C9 6365   4.176   6.568   9.774 -0.0016  0.4629 -0.3376
   53CHL1    H9 6366   4.085   6.631   9.784 -0.6328 -0.2801 -1.2637
   53CHL1   C10 6367   4.247   6.579   9.912  0.7386 -0.6680  0.7242
   53CHL1   C19 6368   4.389   6.555   9.891 -0.2686  0.2930  0.0813
   53CHL1  H19A 6369   4.446   6.531   9.983  0.0417  0.2360 -0.1196
   53CHL1  H19B 6370   4.401   6.461   9.833 -0.2065  0.0277  0.5263
   53CHL1  H19C 6371   4.436   6.646   9.847 -2.7471  1.6812  0.1255
   53CHL1    C1 6372   4.236   6.724   9.959  0.0355  0.2087  0.2421
   53CHL1   H1A 6373   4.276   6.805   9.893 -0.0211 -0.1925 -0.2963
   53CHL1   H1B 6374   4.127   6.743   9.968 -0.3449 -0.1063 -2.5839
   53CHL1    C2 6375   4.301   6.753  10.095 -0.1559  0.0060 -0.2040
   53CHL1   H2A 6376   4.290   6.858  10.130  3.7139  0.2731  0.6855
   53CHL1   H2B 6377   4.410   6.736  10.080 -0.0136  0.5003  0.2019
   53CHL1   C20 6378   4.141   6.446   9.225  0.0054 -0.2697  0.1890
   53CHL1   H20 6379   4.247   6.413   9.231  0.6400  1.8116  1.1007
   53CHL1   C21 6380   4.143   6.595   9.174  0.3301  0.3275 -0.6719
   53CHL1  H21A 6381   4.184   6.662   9.253 -3.0816  1.5098  0.2486
   53CHL1  H21B 6382   4.056   6.633   9.117  0.7953 -1.3491 -2.6055
   53CHL1  H21C 6383   4.223   6.596   9.097  0.7781  1.0287 -0.2113
   53CHL1   C22 6384   4.065   6.364   9.119  0.9230  0.4389  0.2257
   53CHL1  H22A 6385   4.069   6.254   9.138  1.8862  0.3773 -0.2602
   53CHL1  H22B 6386   3.961   6.404   9.121  0.9982  0.6213  0.5624
   53CHL1   C23 6387   4.108   6.382   8.972 -0.0565  0.2340 -0.1069
   53CHL1  H23A 6388   4.043   6.312   8.915 -1.1209  1.8070 -0.9129
   53CHL1  H23B 6389   4.084   6.485   8.939 -0.8289 -0.1566 -0.7981
   53CHL1   C24 6390   4.255   6.326   8.942 -0.2048  0.0184  0.6439
   53CHL1  H24A 6391   4.335   6.386   8.988 -0.8742  0.7288  0.9000
   53CHL1  H24B 6392   4.253   6.225   8.988 -1.2639  0.6137  1.9748
   53CHL1   C25 6393   4.284   6.317   8.788 -0.5745  0.8481 -0.2703
   53CHL1   H25 6394   4.210   6.242   8.754  1.6195 -1.6889  0.2191
   53CHL1   C26 6395   4.258   6.443   8.700  0.1493 -0.2039 -0.8068
   53CHL1  H26A 6396   4.290   6.416   8.597  0.8598  0.7980 -0.8555
   53CHL1  H26B 6397   4.148   6.462   8.702  0.1758 -0.0844  0.5561
   53CHL1  H26C 6398   4.308   6.536   8.733 -1.2104  0.1387  0.3831
   53CHL1   C27 6399   4.429   6.269   8.761 -0.0409 -0.2637  0.0169
   53CHL1  H27A 6400   4.454   6.281   8.654 -2.2554  1.4124 -0.3611
   53CHL1  H27B 6401   4.502   6.337   8.811 -0.8176 -1.1351  2.5106
   53CHL1  H27C 6402   4.443   6.161   8.786 -1.6881 -0.3347  0.7574
   54CHL1    C3 6403   3.930   0.846  10.176 -0.5461 -0.2997 -0.7769
   54CHL1    H3 6404   4.022   0.906  10.164 -1.4480  1.3934  0.2784
   54CHL1    O3 6405   3.900   0.851  10.311  0.0661 -0.0918 -0.0634
   54CHL1   H3' 6406   3.815   0.811  10.328 -0.2504  0.8059  0.5523
   54CHL1    C4 6407   3.824   0.911  10.095  0.2658 -0.1395  0.1821
   54CHL1   H4A 6408   3.726   0.860  10.109 -0.9502  2.2980  1.2095
   54CHL1   H4B 6409   3.790   1.008  10.139 -1.1454  0.0067 -1.1581
   54CHL1    C5 6410   3.865   0.913   9.950  0.7958 -0.1174  0.1868
   54CHL1    C6 6411   3.868   1.029   9.879 -0.3917 -0.4738  0.1434
   54CHL1    H6 6412   3.838   1.127   9.919  2.7043  0.1471  1.1919
   54CHL1    C7 6413   3.903   1.036   9.736 -0.7726  0.5626 -0.3873
   54CHL1   H7A 6414   3.836   1.110   9.689  0.3188  2.6957  1.2157
   54CHL1   H7B 6415   4.004   1.075   9.713  0.8197 -2.1818  1.2934
   54CHL1    C8 6416   3.907   0.900   9.662  0.1893  0.2541 -0.2894
   54CHL1    H8 6417   3.801   0.871   9.646  0.2545 -0.1427 -0.0182
   54CHL1   C14 6418   3.964   0.913   9.525  0.3451 -0.2449 -0.5667
   54CHL1   H14 6419   4.069   0.947   9.538  0.6173 -0.9251 -0.9232
   54CHL1   C15 6420   3.906   1.012   9.420 -0.7872  0.2445 -0.0040
   54CHL1  H15A 6421   3.796   0.997   9.417 -0.6525 -0.7953 -0.3024
   54CHL1  H15B 6422   3.941   1.113   9.451  0.7354  0.3702 -1.9329
   54CHL1   C16 6423   3.976   0.976   9.297 -0.1750  0.4370  1.5189
   54CHL1  H16A 6424   3.900   0.974   9.216 -0.4612 -1.0873  1.7775
   54CHL1  H16B 6425   4.058   1.036   9.254 -0.3226 -0.7165 -0.5065
   54CHL1   C17 6426   4.046   0.833   9.320  0.3971  0.7655 -0.9132
   54CHL1   H17 6427   4.156   0.841   9.332  0.4018 -0.5660  0.1701
   54CHL1   C13 6428   3.982   0.777   9.454 -0.3369 -0.1334  0.1383
   54CHL1   C18 6429   3.844   0.713   9.429 -0.0129  0.3622  0.1867
   54CHL1  H18A 6430   3.780   0.788   9.377 -1.1618 -0.2158  0.7329
   54CHL1  H18B 6431   3.866   0.623   9.367  1.2399  1.2985 -0.7558
   54CHL1  H18C 6432   3.799   0.692   9.528 -0.6058  2.2685  0.3660
   54CHL1   C12 6433   4.072   0.683   9.539  0.4808  0.0073 -0.3853
   54CHL1  H12A 6434   4.084   0.589   9.481 -0.8589 -0.5135  0.1292
   54CHL1  H12B 6435   4.164   0.739   9.566 -0.6746  0.7801  2.3534
   54CHL1   C11 6436   4.005   0.665   9.677  0.0881  0.0971 -0.3103
   54CHL1  H11A 6437   3.917   0.599   9.662  1.3713 -1.2686 -2.2898
   54CHL1  H11B 6438   4.076   0.604   9.737  1.2197  2.6594  1.1357
   54CHL1    C9 6439   3.985   0.797   9.753  0.5746 -0.2590  0.8568
   54CHL1    H9 6440   4.083   0.845   9.772  0.8590 -1.0826  1.5104
   54CHL1   C10 6441   3.905   0.782   9.887 -0.2144 -0.3754 -0.1577
   54CHL1   C19 6442   3.784   0.696   9.869  0.3730  0.0226 -0.0948
   54CHL1  H19A 6443   3.714   0.746   9.799 -3.0409 -0.2628  2.8362
   54CHL1  H19B 6444   3.799   0.591   9.834 -0.5072 -0.7952  1.8502
   54CHL1  H19C 6445   3.725   0.666   9.957  1.1058 -0.9530  0.0863
   54CHL1    C1 6446   4.001   0.704   9.987 -0.6803 -0.2075  0.3043
   54CHL1   H1A 6447   4.019   0.601   9.950  1.3644 -0.1217  0.9325
   54CHL1   H1B 6448   4.099   0.755   9.977 -1.0218  0.6847  1.2815
   54CHL1    C2 6449   3.954   0.701  10.130  0.6431  0.2388 -0.3979
   54CHL1   H2A 6450   4.027   0.661  10.204 -1.1191  1.1603  1.9718
   54CHL1   H2B 6451   3.859   0.646  10.143  0.6307  0.0970 -1.0590
   54CHL1   C20 6452   4.022   0.742   9.196  0.1709 -0.5199  0.2086
   54CHL1   H20 6453   3.913   0.747   9.174  0.4152 -0.4054 -1.0388
   54CHL1   C21 6454   4.073   0.592   9.220 -0.0577 -0.5241  0.2820
   54CHL1  H21A 6455   4.016   0.532   9.294  0.5680 -2.3675 -0.6691
   54CHL1  H21B 6456   4.177   0.584   9.258  0.3529 -1.0415 -0.9199
   54CHL1  H21C 6457   4.071   0.539   9.123 -2.7917  1.6253 -0.9517
   54CHL1   C22 6458   4.084   0.785   9.061  0.1093 -0.5039  0.0918
   54CHL1  H22A 6459   4.035   0.732   8.977  1.0038  0.6062 -1.1867
   54CHL1  H22B 6460   4.073   0.893   9.036 -1.0215 -1.0177 -1.8750
   54CHL1   C23 6461   4.238   0.767   9.054  0.4977  0.7041  0.1862
   54CHL1  H23A 6462   4.264   0.800   9.157 -1.1523  2.7611  0.0213
   54CHL1  H23B 6463   4.255   0.658   9.040 -1.5474  0.3059  0.5551
   54CHL1   C24 6464   4.308   0.834   8.936 -0.1837 -0.2960 -0.5534
   54CHL1  H24A 6465   4.256   0.814   8.840  0.1716  1.2926 -1.1035
   54CHL1  H24B 6466   4.300   0.944   8.946 -0.5283 -0.4902  1.9123
   54CHL1   C25 6467   4.461   0.792   8.913 -0.2604  0.3795  0.5425
   54CHL1   H25 6468   4.514   0.826   9.004  0.5483 -0.9693  0.6095
   54CHL1   C26 6469   4.486   0.641   8.878  0.6027 -0.6409 -0.6422
   54CHL1  H26A 6470   4.594   0.639   8.852  0.6134 -0.2420 -0.6319
   54CHL1  H26B 6471   4.476   0.563   8.957  0.0107  0.6954  0.6596
   54CHL1  H26C 6472   4.436   0.618   8.782 -1.6390  0.2843  0.2326
   54CHL1   C27 6473   4.514   0.864   8.789  0.1486  0.2658  0.2237
   54CHL1  H27A 6474   4.446   0.832   8.707 -0.2027 -0.8563  0.9399
   54CHL1  H27B 6475   4.512   0.974   8.806 -2.8097  0.4310 -0.6267
   54CHL1  H27C 6476   4.618   0.831   8.768  0.3165  1.4223 -0.8915
   55CHL1    C3 6477   6.119   4.228  10.293 -0.4121  0.5527 -0.0827
   55CHL1    H3 6478   6.139   4.331  10.259  1.3689 -0.6933 -3.1269
   55CHL1    O3 6479   6.103   4.217  10.434 -0.3208  0.6337 -0.6582
   55CHL1   H3' 6480   6.188   4.242  10.469 -0.8180  2.3187 -0.5648
   55CHL1    C4 6481   5.988   4.172  10.226  1.0986  0.1558 -0.4528
   55CHL1   H4A 6482   5.970   4.066  10.253 -1.1802  0.5519 -0.2125
   55CHL1   H4B 6483   5.895   4.210  10.273  1.4409 -0.3400  0.6568
   55CHL1    C5 6484   5.992   4.176  10.075 -0.4787  0.1783  0.3618
   55CHL1    C6 6485   5.900   4.243  10.006  0.7466 -0.1950  0.0002
   55CHL1    H6 6486   5.815   4.287  10.061 -0.3753 -1.5958 -0.5704
   55CHL1    C7 6487   5.899   4.256   9.854 -0.5363  0.0363 -0.2185
   55CHL1   H7A 6488   5.797   4.242   9.814 -0.7226  1.8985 -0.4753
   55CHL1   H7B 6489   5.945   4.354   9.827 -0.3412  0.1949  0.6465
   55CHL1    C8 6490   5.999   4.155   9.787  0.1836  0.0538 -0.3004
   55CHL1    H8 6491   5.957   4.053   9.780 -1.6675  0.6712  0.9035
   55CHL1   C14 6492   6.026   4.208   9.650  0.1271 -0.1755  0.6678
   55CHL1   H14 6493   6.069   4.310   9.661  0.8506 -0.6179  2.2267
   55CHL1   C15 6494   5.899   4.232   9.555 -0.3792 -0.4413  0.4056
   55CHL1  H15A 6495   5.832   4.146   9.577 -0.1335 -1.8506 -3.4888
   55CHL1  H15B 6496   5.861   4.335   9.571  2.4932  1.0371 -1.5053
   55CHL1   C16 6497   5.969   4.226   9.416 -0.0460  0.5390  0.0507
   55CHL1  H16A 6498   5.919   4.143   9.361  1.2773 -0.9109  0.9191
   55CHL1  H16B 6499   5.963   4.321   9.359  0.1845  0.0444 -0.8167
   55CHL1   C17 6500   6.123   4.188   9.439  0.1220 -0.2216  0.3040
   55CHL1   H17 6501   6.172   4.287   9.436 -0.4996  0.0728 -1.1773
   55CHL1   C13 6502   6.130   4.123   9.578 -0.1410  0.0082  0.3289
   55CHL1   C18 6503   6.085   3.973   9.551 -0.2262 -0.0485 -0.0645
   55CHL1  H18A 6504   6.165   3.910   9.506  1.3268 -1.3264  4.0159
   55CHL1  H18B 6505   6.078   3.923   9.650  0.5991  0.1077  0.0821
   55CHL1  H18C 6506   5.980   3.964   9.518 -0.3836  0.0396  0.4106
   55CHL1   C12 6507   6.266   4.125   9.652 -0.0260 -0.3005  0.2205
   55CHL1  H12A 6508   6.339   4.067   9.593  1.0878 -0.8610  2.0500
   55CHL1  H12B 6509   6.307   4.228   9.661  1.0929 -0.7896  0.9604
   55CHL1   C11 6510   6.242   4.069   9.795 -0.0094 -0.6253  0.1475
   55CHL1  H11A 6511   6.215   3.962   9.783 -1.5932 -0.2262 -0.0377
   55CHL1  H11B 6512   6.337   4.083   9.851 -0.4076  0.0293  0.6878
   55CHL1    C9 6513   6.136   4.146   9.870  0.7024 -0.5025  0.0249
   55CHL1    H9 6514   6.172   4.251   9.872 -1.4835  0.2960 -0.0437
   55CHL1   C10 6515   6.112   4.102  10.024 -0.0653  0.5234  0.6739
   55CHL1   C19 6516   6.095   3.945  10.027  0.7208 -0.8438  0.3679
   55CHL1  H19A 6517   6.187   3.889   9.998  2.3196 -0.5197  4.2226
   55CHL1  H19B 6518   6.084   3.927  10.136  2.3290  1.5939  1.0215
   55CHL1  H19C 6519   6.009   3.903   9.971  0.2314  0.8884 -0.2504
   55CHL1    C1 6520   6.242   4.147  10.101  0.8015 -0.2763 -0.0841
   55CHL1   H1A 6521   6.319   4.076  10.066 -0.7556 -3.5892  2.6476
   55CHL1   H1B 6522   6.273   4.254  10.095 -3.2436  1.1461  0.7783
   55CHL1    C2 6523   6.225   4.133  10.254  0.0269  0.1740  0.7091
   55CHL1   H2A 6524   6.319   4.163  10.305  0.5496 -1.1140  0.5215
   55CHL1   H2B 6525   6.204   4.029  10.284 -0.7003  0.5123  1.4233
   55CHL1   C20 6526   6.185   4.128   9.307 -0.1750 -0.2524 -0.8836
   55CHL1   H20 6527   6.140   4.027   9.295 -0.2302 -0.0636 -2.3881
   55CHL1   C21 6528   6.334   4.093   9.320  0.4392 -0.2944  0.1387
   55CHL1  H21A 6529   6.370   4.060   9.221 -0.3139 -0.3609 -0.1208
   55CHL1  H21B 6530   6.350   4.022   9.404  3.6070 -1.0549 -0.9938
   55CHL1  H21C 6531   6.392   4.186   9.340 -0.6260  0.7058 -1.1958
   55CHL1   C22 6532   6.151   4.214   9.177  0.4331  0.9852 -0.4249
   55CHL1  H22A 6533   6.050   4.259   9.169 -0.3561 -0.9047 -1.9332
   55CHL1  H22B 6534   6.226   4.296   9.186  0.5963  0.6219  2.9724
   55CHL1   C23 6535   6.173   4.137   9.046 -0.3035 -0.1565  0.0833
   55CHL1  H23A 6536   6.163   4.204   8.958 -1.4456 -0.9413 -0.4060
   55CHL1  H23B 6537   6.272   4.086   9.045 -1.2498 -2.1869  1.6107
   55CHL1   C24 6538   6.069   4.023   9.020 -0.2770  0.2598  0.4321
   55CHL1  H24A 6539   6.105   3.943   9.088  0.3873  2.1196  2.3988
   55CHL1  H24B 6540   5.970   4.052   9.061 -0.4928 -1.4943  1.2281
   55CHL1   C25 6541   6.055   3.976   8.871  0.6149 -0.3170 -0.3591
   55CHL1   H25 6542   6.027   4.071   8.820 -1.1301  0.5411  2.0188
   55CHL1   C26 6543   6.186   3.926   8.814  0.6241 -0.6805  0.2772
   55CHL1  H26A 6544   6.264   4.003   8.833 -0.7162  0.4972  1.1521
   55CHL1  H26B 6545   6.209   3.832   8.869 -1.5136 -1.0802  0.5587
   55CHL1  H26C 6546   6.190   3.907   8.704 -1.8177  0.3994 -0.0525
   55CHL1   C27 6547   5.951   3.873   8.850  0.3550  0.2684 -0.6280
   55CHL1  H27A 6548   5.850   3.903   8.886  1.0063 -0.4612  2.0566
   55CHL1  H27B 6549   5.949   3.850   8.741  1.3509 -2.4703 -0.1495
   55CHL1  H27C 6550   5.976   3.783   8.911  3.3865  1.5711  0.2611
   56CHL1    C3 6551   2.105   3.826  10.216 -0.0316  0.9053 -0.4588
   56CHL1    H3 6552   2.089   3.935  10.211  0.3726  0.9238 -2.2648
   56CHL1    O3 6553   2.064   3.769  10.337  0.5134  0.1166  0.0407
   56CHL1   H3' 6554   2.084   3.675  10.334 -1.0165 -0.2337 -1.6902
   56CHL1    C4 6555   2.013   3.767  10.105 -0.3895  0.2806  0.2151
   56CHL1   H4A 6556   2.004   3.657  10.107 -2.5378  0.4201  0.5336
   56CHL1   H4B 6557   1.912   3.807  10.132 -0.3624 -0.1425  0.9609
   56CHL1    C5 6558   2.056   3.808   9.964 -0.3676  0.1524  0.5711
   56CHL1    C6 6559   1.966   3.872   9.890 -0.0861  0.2199  0.0680
   56CHL1    H6 6560   1.865   3.895   9.927  0.0698  1.5748 -0.2938
   56CHL1    C7 6561   1.993   3.921   9.749  0.1914 -0.1691  0.1676
   56CHL1   H7A 6562   1.907   3.906   9.680  0.3864  2.7951 -0.8534
   56CHL1   H7B 6563   2.008   4.030   9.753 -5.4595  0.9954 -0.8854
   56CHL1    C8 6564   2.120   3.857   9.688 -0.7753  0.3507  0.1585
   56CHL1    H8 6565   2.097   3.752   9.661 -0.6399 -0.3597  2.5689
   56CHL1   C14 6566   2.162   3.931   9.564  0.0288  0.8250 -0.2745
   56CHL1   H14 6567   2.186   4.031   9.606  0.8847 -0.4183  2.4254
   56CHL1   C15 6568   2.052   3.962   9.465  0.8727  0.4589 -0.2768
   56CHL1  H15A 6569   1.983   3.879   9.439 -1.1051  1.3863  1.7175
   56CHL1  H15B 6570   1.984   4.045   9.493 -1.6069 -0.9977 -1.6767
   56CHL1   C16 6571   2.143   4.008   9.344  0.4250 -0.1102  0.5180
   56CHL1  H16A 6572   2.117   3.944   9.257  2.6251  1.2842 -1.2704
   56CHL1  H16B 6573   2.133   4.113   9.310  1.1788 -1.1443 -3.3525
   56CHL1   C17 6574   2.291   3.984   9.378 -0.0751 -0.2214  0.0948
   56CHL1   H17 6575   2.336   4.075   9.423  1.2569  0.1999 -1.9229
   56CHL1   C13 6576   2.287   3.881   9.490  0.0450 -0.1720  0.7687
   56CHL1   C18 6577   2.247   3.744   9.436  0.4886  0.4103 -0.2582
   56CHL1  H18A 6578   2.177   3.742   9.350  1.6185  1.2254 -1.2398
   56CHL1  H18B 6579   2.339   3.699   9.392 -0.6974 -3.0500  0.4613
   56CHL1  H18C 6580   2.213   3.662   9.504 -2.4386 -1.9615 -4.1607
   56CHL1   C12 6581   2.405   3.876   9.581  0.2058  0.1746  0.7878
   56CHL1  H12A 6582   2.490   3.813   9.544  0.4269  1.0086 -0.1841
   56CHL1  H12B 6583   2.445   3.977   9.604 -2.1033  1.2759  0.1828
   56CHL1   C11 6584   2.366   3.808   9.716  0.1652  0.1729 -0.4073
   56CHL1  H11A 6585   2.344   3.702   9.691 -1.0961  0.2047  0.4802
   56CHL1  H11B 6586   2.453   3.804   9.785  0.2608 -1.5992 -0.5934
   56CHL1    C9 6587   2.239   3.858   9.787  0.6039  0.7399  0.0399
   56CHL1    H9 6588   2.250   3.964   9.821 -1.5657  0.8056  0.6715
   56CHL1   C10 6589   2.202   3.780   9.924 -0.1652  0.9690  0.7530
   56CHL1   C19 6590   2.226   3.628   9.910  0.0061  0.4845  0.1462
   56CHL1  H19A 6591   2.226   3.573  10.006  0.3162 -3.7470 -2.0382
   56CHL1  H19B 6592   2.165   3.580   9.831  0.8587 -0.8280  0.2668
   56CHL1  H19C 6593   2.331   3.623   9.875  0.1978 -3.4611  0.8507
   56CHL1    C1 6594   2.291   3.836  10.037 -0.5141  0.8088  0.7357
   56CHL1   H1A 6595   2.394   3.799  10.017 -0.3369  0.6208  1.9170
   56CHL1   H1B 6596   2.299   3.947  10.036  1.5816  0.6960 -0.0640
   56CHL1    C2 6597   2.256   3.793  10.179 -0.1818  0.6263 -0.4245
   56CHL1   H2A 6598   2.317   3.862  10.241 -0.6768  0.6919 -0.0005
   56CHL1   H2B 6599   2.286   3.690  10.207  0.3761  0.9290  0.1222
   56CHL1   C20 6600   2.377   3.958   9.253 -0.7170 -0.9803  0.0761
   56CHL1   H20 6601   2.336   3.873   9.194 -0.0410 -1.5475  0.4057
   56CHL1   C21 6602   2.522   3.921   9.292 -0.3639  0.7081  0.9831
   56CHL1  H21A 6603   2.580   3.885   9.204 -1.8378  1.2268 -0.2398
   56CHL1  H21B 6604   2.526   3.828   9.352  0.8608  0.7257  0.9577
   56CHL1  H21C 6605   2.577   3.996   9.352  3.2874 -1.6405  0.8694
   56CHL1   C22 6606   2.376   4.083   9.164  0.8422 -0.6092  0.1059
   56CHL1  H22A 6607   2.269   4.101   9.139  0.7040 -1.8459 -0.2630
   56CHL1  H22B 6608   2.413   4.170   9.222  0.8674 -0.4811 -0.1007
   56CHL1   C23 6609   2.432   4.080   9.023 -0.5888  0.0311  0.0441
   56CHL1  H23A 6610   2.395   4.178   8.985  0.4548  0.6797  0.6368
   56CHL1  H23B 6611   2.541   4.100   9.032 -0.7895  2.1095 -1.3595
   56CHL1   C24 6612   2.398   3.974   8.926  0.3216  0.1269  0.1063
   56CHL1  H24A 6613   2.430   3.872   8.955 -0.2706 -0.6753 -1.8716
   56CHL1  H24B 6614   2.291   3.969   8.896  0.1685  1.2551  0.4140
   56CHL1   C25 6615   2.465   3.993   8.786 -0.2296 -0.9481 -0.7420
   56CHL1   H25 6616   2.575   4.008   8.797 -0.4070 -1.1659  2.5939
   56CHL1   C26 6617   2.460   3.871   8.697  0.1580 -0.2802  0.7626
   56CHL1  H26A 6618   2.476   3.901   8.591  2.5100 -0.6420  0.9576
   56CHL1  H26B 6619   2.543   3.803   8.724  0.6993 -0.2189 -0.6621
   56CHL1  H26C 6620   2.368   3.810   8.714  0.4918 -0.9946  0.0961
   56CHL1   C27 6621   2.405   4.115   8.713  0.5356  0.1314  0.0916
   56CHL1  H27A 6622   2.459   4.124   8.616  1.1717  1.0404  0.5228
   56CHL1  H27B 6623   2.295   4.103   8.702  0.2701  2.0092  0.2974
   56CHL1  H27C 6624   2.429   4.208   8.769  2.1314 -0.1002 -0.1776
   57CHL1    C3 6625   6.722   3.948  10.479  0.0579 -0.3317 -0.2944
   57CHL1    H3 6626   6.681   3.846  10.465 -0.3329 -0.0056 -1.5847
   57CHL1    O3 6627   6.741   3.962  10.621  0.2568 -1.2880  0.4870
   57CHL1   H3' 6628   6.832   3.935  10.635  0.9991  0.5415 -0.5036
   57CHL1    C4 6629   6.861   3.956  10.411 -0.0659 -0.8271  0.2893
   57CHL1   H4A 6630   6.903   4.052  10.447 -2.6221  0.3112  0.4674
   57CHL1   H4B 6631   6.920   3.866  10.441 -2.6178 -4.1687 -3.6026
   57CHL1    C5 6632   6.851   3.952  10.264  0.0338  0.3362  0.3294
   57CHL1    C6 6633   6.910   3.858  10.181 -0.2804  0.5267 -0.2085
   57CHL1    H6 6634   6.958   3.771  10.229 -0.5528 -0.3464 -1.4580
   57CHL1    C7 6635   6.899   3.852  10.041 -0.3682  0.1207 -0.0506
   57CHL1   H7A 6636   6.996   3.836   9.990  0.6527 -0.3502  1.9435
   57CHL1   H7B 6637   6.828   3.769  10.023 -1.2356  1.0649 -1.1569
   57CHL1    C8 6638   6.856   3.982   9.975  0.6540 -0.3679  0.2013
   57CHL1    H8 6639   6.936   4.059   9.984 -0.0239  0.3308  0.3591
   57CHL1   C14 6640   6.838   3.955   9.826  0.4670 -0.6346 -0.3352
   57CHL1   H14 6641   6.751   3.887   9.817  0.7238 -0.7957 -1.7765
   57CHL1   C15 6642   6.950   3.890   9.740 -0.7382  0.4042 -0.2542
   57CHL1  H15A 6643   7.052   3.927   9.764  0.4363 -0.9452 -2.8188
   57CHL1  H15B 6644   6.963   3.782   9.762 -0.7952  0.6569  1.1184
   57CHL1   C16 6645   6.919   3.931   9.597  0.6880 -0.6572  0.5218
   57CHL1  H16A 6646   6.994   4.002   9.554 -0.3114 -0.4328 -0.9219
   57CHL1  H16B 6647   6.904   3.854   9.519 -1.2134 -2.4120  2.4886
   57CHL1   C17 6648   6.788   4.021   9.603 -0.0483  0.4499  0.6059
   57CHL1   H17 6649   6.708   3.945   9.596 -0.9049  1.4272 -0.6132
   57CHL1   C13 6650   6.790   4.075   9.747 -0.0163 -0.0320  0.4743
   57CHL1   C18 6651   6.889   4.190   9.749 -0.5180  0.5401 -0.0192
   57CHL1  H18A 6652   6.922   4.212   9.853 -0.5603  1.5508 -0.2064
   57CHL1  H18B 6653   6.984   4.168   9.695 -0.6761 -0.6424  0.1517
   57CHL1  H18C 6654   6.849   4.281   9.700 -1.8689 -0.4602 -0.8361
   57CHL1   C12 6655   6.657   4.130   9.808 -0.1350  0.0168 -0.3705
   57CHL1  H12A 6656   6.619   4.226   9.767  1.7875  1.2021  0.4852
   57CHL1  H12B 6657   6.577   4.054   9.793 -0.2097  0.1809 -0.8151
   57CHL1   C11 6658   6.657   4.153   9.968  0.5443 -0.0476  0.9022
   57CHL1  H11A 6659   6.717   4.244   9.983  0.5821  0.0333  0.2731
   57CHL1  H11B 6660   6.553   4.174  10.002 -0.0807 -1.8170  0.2177
   57CHL1    C9 6661   6.727   4.038  10.048  0.0925  0.2553  0.6771
   57CHL1    H9 6662   6.656   3.954  10.037  1.1756 -0.4559 -1.3528
   57CHL1   C10 6663   6.756   4.061  10.201 -0.6704  0.1097 -0.4221
   57CHL1   C19 6664   6.842   4.187  10.226  0.0002  0.0963  0.5641
   57CHL1  H19A 6665   6.933   4.187  10.162 -2.3252 -1.0274 -3.0318
   57CHL1  H19B 6666   6.779   4.274  10.198  0.0252  0.4493  1.5744
   57CHL1  H19C 6667   6.865   4.214  10.331 -2.3081 -1.3793  1.5000
   57CHL1    C1 6668   6.620   4.067  10.276  0.7098  0.3661  0.3550
   57CHL1   H1A 6669   6.566   4.158  10.241  0.4374 -0.5208 -1.6817
   57CHL1   H1B 6670   6.565   3.977  10.244  1.0090  0.7273 -1.2864
   57CHL1    C2 6671   6.632   4.062  10.428 -0.1023 -0.3147 -0.2651
   57CHL1   H2A 6672   6.535   4.046  10.479 -0.2464 -0.0884 -0.4635
   57CHL1   H2B 6673   6.668   4.163  10.458 -0.0120 -0.1375 -0.9528
   57CHL1   C20 6674   6.771   4.114   9.481  0.7528 -0.0837 -0.1651
   57CHL1   H20 6675   6.865   4.172   9.466  1.3266 -0.7584  0.7395
   57CHL1   C21 6676   6.647   4.208   9.483  0.2950 -0.0723 -1.2140
   57CHL1  H21A 6677   6.637   4.233   9.375  0.7012 -0.3053 -1.3068
   57CHL1  H21B 6678   6.660   4.292   9.555  1.1411 -0.6394 -0.6910
   57CHL1  H21C 6679   6.563   4.154   9.530  1.7310 -0.2229  1.3322
   57CHL1   C22 6680   6.756   4.027   9.353 -0.6692 -0.1865 -0.5174
   57CHL1  H22A 6681   6.796   3.924   9.370  0.1279  0.1277 -0.4340
   57CHL1  H22B 6682   6.653   4.011   9.314  0.2128  0.0842 -3.1521
   57CHL1   C23 6683   6.845   4.080   9.235 -0.5573  0.7568  0.2335
   57CHL1  H23A 6684   6.799   4.180   9.217  1.3186  1.2455 -2.4338
   57CHL1  H23B 6685   6.950   4.101   9.264 -0.4645  0.3731  0.1713
   57CHL1   C24 6686   6.835   3.990   9.110  0.1061 -0.4555 -0.1569
   57CHL1  H24A 6687   6.848   3.883   9.134 -0.8329 -0.3847  0.7655
   57CHL1  H24B 6688   6.738   4.009   9.059 -0.2334  1.5290  1.1214
   57CHL1   C25 6689   6.949   4.027   9.005  0.3622  0.1762 -0.0837
   57CHL1   H25 6690   7.038   4.028   9.072  0.2279  0.4829  0.0893
   57CHL1   C26 6691   6.967   3.918   8.901 -0.3483 -0.3780 -0.3282
   57CHL1  H26A 6692   6.866   3.896   8.863 -0.8930  1.0796  0.2163
   57CHL1  H26B 6693   7.026   3.945   8.811  2.3560 -0.9185  1.1370
   57CHL1  H26C 6694   7.007   3.822   8.941  1.5371 -0.2980 -1.8923
   57CHL1   C27 6695   6.919   4.167   8.939  0.1723  0.2649 -0.3388
   57CHL1  H27A 6696   6.808   4.168   8.933  0.0483  2.3852  1.3313
   57CHL1  H27B 6697   6.943   4.247   9.013 -0.0294  1.8186 -1.8832
   57CHL1  H27C 6698   6.967   4.175   8.839  0.0608  1.4521 -0.3103
   58CHL1    C3 6699   1.432   3.662  10.072  0.0895  0.2117 -0.0355
   58CHL1    H3 6700   1.539   3.633  10.061  0.2000  0.1218  1.1214
   58CHL1    O3 6701   1.392   3.605  10.199  0.4681  0.1265 -0.1279
   58CHL1   H3' 6702   1.455   3.639  10.263  0.8232 -2.4075  0.9995
   58CHL1    C4 6703   1.429   3.809  10.071 -0.3259 -0.2518 -0.1716
   58CHL1   H4A 6704   1.328   3.847  10.094  0.5779  2.5308 -0.4548
   58CHL1   H4B 6705   1.494   3.848  10.152 -0.5821 -2.6401  1.2827
   58CHL1    C5 6706   1.469   3.865   9.938 -0.2937  0.1462  0.5965
   58CHL1    C6 6707   1.578   3.944   9.922  0.5081 -0.1115 -0.6863
   58CHL1    H6 6708   1.629   3.982  10.012 -0.3412  1.1938 -0.7221
   58CHL1    C7 6709   1.621   4.007   9.791  0.9006  0.1945 -0.0170
   58CHL1   H7A 6710   1.642   4.115   9.805 -2.8537  1.0966 -0.5188
   58CHL1   H7B 6711   1.706   3.954   9.743 -0.8378 -1.8845 -0.9704
   58CHL1    C8 6712   1.519   3.991   9.678 -0.8725  0.1084  0.2499
   58CHL1    H8 6713   1.445   4.073   9.686 -2.3863 -1.1554 -0.2525
   58CHL1   C14 6714   1.587   4.009   9.546  0.0588 -0.2634 -0.0233
   58CHL1   H14 6715   1.654   3.920   9.540  1.2899  0.7251 -3.1166
   58CHL1   C15 6716   1.680   4.128   9.520 -0.1267 -0.9247  0.1524
   58CHL1  H15A 6717   1.629   4.220   9.557 -1.1640 -1.1002 -0.7857
   58CHL1  H15B 6718   1.781   4.120   9.566  0.3583  2.5646 -0.0236
   58CHL1   C16 6719   1.695   4.132   9.364  0.2995 -0.5409 -0.1940
   58CHL1  H16A 6720   1.661   4.232   9.329 -0.3912 -1.2448 -1.6341
   58CHL1  H16B 6721   1.798   4.118   9.324  0.3182 -2.9455  0.5478
   58CHL1   C17 6722   1.604   4.018   9.306  0.8621 -0.1121  0.6178
   58CHL1   H17 6723   1.668   3.927   9.319 -0.6512 -1.1909  0.8455
   58CHL1   C13 6724   1.492   3.999   9.421  0.1440 -0.7706  0.1686
   58CHL1   C18 6725   1.391   4.119   9.422  0.5846  0.2877  0.3368
   58CHL1  H18A 6726   1.308   4.096   9.351  0.0025 -0.5144  1.2482
   58CHL1  H18B 6727   1.330   4.124   9.515  0.3989 -1.6712  0.3597
   58CHL1  H18C 6728   1.441   4.214   9.392  2.3636  0.7488  4.1337
   58CHL1   C12 6729   1.418   3.866   9.420 -0.5908  0.3567  0.1809
   58CHL1  H12A 6730   1.341   3.861   9.339  0.3891  2.1523 -0.9450
   58CHL1  H12B 6731   1.499   3.790   9.410 -0.3316  0.7602 -0.9426
   58CHL1   C11 6732   1.358   3.836   9.557  0.3959 -0.4675  0.0871
   58CHL1  H11A 6733   1.274   3.908   9.569 -0.4402 -1.5211  0.7130
   58CHL1  H11B 6734   1.319   3.733   9.543 -0.6684 -0.0303 -0.2625
   58CHL1    C9 6735   1.450   3.854   9.680 -0.2342 -0.2537 -0.3914
   58CHL1    H9 6736   1.534   3.783   9.666 -0.5505 -0.5580 -0.7891
   58CHL1   C10 6737   1.387   3.812   9.815 -0.4037 -0.7919  0.5463
   58CHL1   C19 6738   1.250   3.877   9.825 -0.2076  0.4790  0.5208
   58CHL1  H19A 6739   1.175   3.846   9.749 -1.1145  4.2691 -0.3195
   58CHL1  H19B 6740   1.211   3.882   9.929 -1.2241  2.1802  0.0967
   58CHL1  H19C 6741   1.268   3.986   9.810  0.6136  0.0263 -2.2532
   58CHL1    C1 6742   1.371   3.656   9.817 -0.5251 -0.2116  0.2025
   58CHL1   H1A 6743   1.300   3.616   9.742  1.1717 -0.5006 -1.3361
   58CHL1   H1B 6744   1.471   3.615   9.792 -1.9681 -1.8365 -3.6607
   58CHL1    C2 6745   1.345   3.600   9.960 -0.0775 -0.0793  0.8918
   58CHL1   H2A 6746   1.338   3.489   9.962 -2.8301  0.0177  0.4875
   58CHL1   H2B 6747   1.237   3.619   9.975 -0.1707 -1.1392  1.6692
   58CHL1   C20 6748   1.552   4.032   9.161 -0.2989 -0.0021 -0.6097
   58CHL1   H20 6749   1.455   4.086   9.169 -1.0675 -0.9949 -2.4366
   58CHL1   C21 6750   1.520   3.889   9.101 -0.2399 -0.4708  0.4951
   58CHL1  H21A 6751   1.430   3.840   9.144 -0.9158  1.1417  0.9940
   58CHL1  H21B 6752   1.609   3.824   9.103  0.8386  0.7999 -1.7382
   58CHL1  H21C 6753   1.502   3.906   8.992  1.5663  0.2491  0.2832
   58CHL1   C22 6754   1.649   4.112   9.064  0.8127  0.1377 -0.1876
   58CHL1  H22A 6755   1.673   4.207   9.116 -1.3975  0.1747  0.8910
   58CHL1  H22B 6756   1.739   4.048   9.047  0.1818 -1.0226  0.6580
   58CHL1   C23 6757   1.582   4.142   8.936  0.4630  0.8286 -0.8293
   58CHL1  H23A 6758   1.580   4.045   8.882  1.8552  0.6478 -0.5931
   58CHL1  H23B 6759   1.480   4.177   8.958  1.0638  1.2972  1.4599
   58CHL1   C24 6760   1.660   4.249   8.861  0.2732 -0.2140 -0.1607
   58CHL1  H24A 6761   1.613   4.346   8.888 -0.4841 -0.5768 -0.1416
   58CHL1  H24B 6762   1.765   4.252   8.897  1.4215  2.0794 -3.2552
   58CHL1   C25 6763   1.647   4.255   8.702 -0.0673  0.0414  0.7140
   58CHL1   H25 6764   1.674   4.157   8.658 -0.2357  1.4273 -2.7869
   58CHL1   C26 6765   1.495   4.281   8.658 -0.0258 -0.5204  0.0503
   58CHL1  H26A 6766   1.473   4.306   8.552 -3.1861 -0.4979  0.6139
   58CHL1  H26B 6767   1.439   4.188   8.683 -0.6556  0.1359  1.1769
   58CHL1  H26C 6768   1.455   4.364   8.721 -1.3866 -0.1400 -1.2634
   58CHL1   C27 6769   1.737   4.364   8.645 -0.0102  0.8538 -0.4452
   58CHL1  H27A 6770   1.710   4.411   8.548  0.7513  0.7966 -0.6911
   58CHL1  H27B 6771   1.721   4.445   8.720 -1.4775 -0.1794  0.3990
   58CHL1  H27C 6772   1.845   4.341   8.648  0.3312  1.9234 -2.5298
   59CHL1    C3 6773   0.382   3.635  10.446 -1.1003  0.8092  0.6334
   59CHL1    H3 6774   0.282   3.684  10.437 -0.6468  1.7140  0.4491
   59CHL1    O3 6775   0.427   3.633  10.580 -0.5643 -0.4229 -0.2958
   59CHL1   H3' 6776   0.451   3.725  10.594  1.1645 -0.7092 -1.1173
   59CHL1    C4 6777   0.376   3.493  10.390  0.1316 -0.7011 -0.1534
   59CHL1   H4A 6778   0.472   3.442  10.413  0.5285  0.8230  1.9053
   59CHL1   H4B 6779   0.300   3.440  10.452 -0.6684 -0.8179 -1.2162
   59CHL1    C5 6780   0.346   3.500  10.240 -0.3252 -0.3035 -0.3330
   59CHL1    C6 6781   0.231   3.447  10.190  0.6123  0.5122 -0.3835
   59CHL1    H6 6782   0.177   3.387  10.264 -0.2700 -0.2016 -1.5596
   59CHL1    C7 6783   0.201   3.438  10.043 -0.3568  0.4168 -0.5994
   59CHL1   H7A 6784   0.180   3.333  10.013  2.5695 -1.8518  4.1029
   59CHL1   H7B 6785   0.119   3.506  10.012 -1.2600  0.1056  0.9657
   59CHL1    C8 6786   0.329   3.463   9.951 -0.0907 -0.2452 -0.0122
   59CHL1    H8 6787   0.395   3.374   9.958  0.3124 -0.1075 -1.6484
   59CHL1   C14 6788   0.282   3.485   9.803 -0.0753 -0.0813  0.1803
   59CHL1   H14 6789   0.214   3.572   9.806  0.0103  0.0047 -0.2473
   59CHL1   C15 6790   0.204   3.371   9.738 -0.5005 -0.1931  0.0120
   59CHL1  H15A 6791   0.261   3.275   9.744 -2.8621 -1.6296  1.0315
   59CHL1  H15B 6792   0.099   3.366   9.773 -1.1664  0.2156 -1.8063
   59CHL1   C16 6793   0.219   3.403   9.587 -0.2288 -1.0363 -0.0375
   59CHL1  H16A 6794   0.278   3.323   9.536  0.7221  0.4896 -1.4281
   59CHL1  H16B 6795   0.118   3.422   9.544  0.2117  0.3542 -0.5049
   59CHL1   C17 6796   0.291   3.545   9.587  0.4555  0.5371  0.4047
   59CHL1   H17 6797   0.212   3.621   9.606  0.2017  0.3681  0.0330
   59CHL1   C13 6798   0.386   3.532   9.708  0.7401 -0.1362 -0.0227
   59CHL1   C18 6799   0.496   3.432   9.680  0.3935  0.1588  0.1499
   59CHL1  H18A 6800   0.551   3.416   9.775 -1.0870 -1.1171  0.8434
   59CHL1  H18B 6801   0.456   3.332   9.653 -0.8391  1.0117 -1.3721
   59CHL1  H18C 6802   0.569   3.461   9.602  0.0352 -0.9969 -0.6356
   59CHL1   C12 6803   0.445   3.660   9.753 -0.3881 -0.8610  0.5513
   59CHL1  H12A 6804   0.537   3.691   9.699 -1.3352 -0.2693 -0.7721
   59CHL1  H12B 6805   0.369   3.740   9.742  2.1379  1.5718 -0.4579
   59CHL1   C11 6806   0.495   3.653   9.904 -1.2847  0.1011 -0.1516
   59CHL1  H11A 6807   0.583   3.586   9.895  0.0991  1.8286  0.0484
   59CHL1  H11B 6808   0.541   3.750   9.931  0.5084 -0.6163 -0.4838
   59CHL1    C9 6809   0.392   3.589  10.004  0.2248 -0.3693 -0.4969
   59CHL1    H9 6810   0.312   3.666  10.001  0.0381 -0.5967 -2.3615
   59CHL1   C10 6811   0.443   3.581  10.151  0.7139  0.0876 -0.0271
   59CHL1   C19 6812   0.575   3.499  10.156  0.0354 -0.1060  0.2482
   59CHL1  H19A 6813   0.659   3.551  10.106 -0.1102  1.8984  1.9444
   59CHL1  H19B 6814   0.608   3.459  10.254 -1.7972 -0.2113  0.8607
   59CHL1  H19C 6815   0.566   3.406  10.096  0.9298  0.2333 -0.4453
   59CHL1    C1 6816   0.452   3.722  10.215 -0.5783 -0.1310 -0.1059
   59CHL1   H1A 6817   0.538   3.763  10.158  0.0115  0.1418  0.9539
   59CHL1   H1B 6818   0.363   3.788  10.202  0.8222  2.3886  2.0776
   59CHL1    C2 6819   0.482   3.729  10.368  0.2605 -0.0896  0.6757
   59CHL1   H2A 6820   0.454   3.833  10.397 -2.0455  0.3686 -2.5932
   59CHL1   H2B 6821   0.589   3.703  10.382  0.1772 -0.7424  0.1297
   59CHL1   C20 6822   0.353   3.573   9.448  0.5182  0.6033 -0.0387
   59CHL1   H20 6823   0.461   3.592   9.466  1.0075  0.1557 -2.2162
   59CHL1   C21 6824   0.296   3.705   9.406  0.2549  0.5448 -0.2894
   59CHL1  H21A 6825   0.352   3.737   9.315  0.9010 -0.1636 -0.1507
   59CHL1  H21B 6826   0.309   3.788   9.480  0.4557 -0.1869  0.5110
   59CHL1  H21C 6827   0.187   3.703   9.390 -0.1906  0.3108  2.3256
   59CHL1   C22 6828   0.348   3.470   9.327 -0.3365  0.2330  0.6441
   59CHL1  H22A 6829   0.395   3.379   9.369  0.0837 -0.0872 -0.4825
   59CHL1  H22B 6830   0.244   3.454   9.292  0.7858 -0.7711 -2.6338
   59CHL1   C23 6831   0.442   3.494   9.202  0.4647 -0.1541  0.6020
   59CHL1  H23A 6832   0.410   3.591   9.160 -3.1629 -1.8097 -0.8289
   59CHL1  H23B 6833   0.547   3.506   9.238  0.9673 -0.5444 -0.6599
   59CHL1   C24 6834   0.422   3.388   9.093 -0.1082 -0.5810 -0.2800
   59CHL1  H24A 6835   0.442   3.294   9.149 -1.5398 -0.0510  1.2071
   59CHL1  H24B 6836   0.312   3.385   9.073 -0.1264 -0.0432 -0.2568
   59CHL1   C25 6837   0.508   3.401   8.959  0.1210 -0.0967  0.3538
   59CHL1   H25 6838   0.465   3.328   8.886  0.4609  0.8382 -0.8067
   59CHL1   C26 6839   0.491   3.541   8.891 -0.1379 -0.3433  0.5114
   59CHL1  H26A 6840   0.546   3.609   8.961  2.3335 -0.4305 -1.2172
   59CHL1  H26B 6841   0.542   3.546   8.793 -1.6550  0.2319 -0.2687
   59CHL1  H26C 6842   0.390   3.587   8.881  0.6932  1.9703  1.7046
   59CHL1   C27 6843   0.651   3.367   8.981 -0.2996 -0.2466 -0.3025
   59CHL1  H27A 6844   0.695   3.439   9.054 -0.2674  1.6753 -2.1013
   59CHL1  H27B 6845   0.673   3.274   9.036  1.5498  1.0789  1.3357
   59CHL1  H27C 6846   0.706   3.351   8.886 -1.7086 -0.6253 -1.0771
   60CHL1    C3 6847   4.658   2.950  10.210  0.6246 -0.3682 -0.3470
   60CHL1    H3 6848   4.727   2.864  10.226  0.7218 -0.0626  0.9672
   60CHL1    O3 6849   4.596   2.969  10.340 -0.4410 -0.2565 -0.4341
   60CHL1   H3' 6850   4.561   2.883  10.361 -2.9222  0.0368 -2.7570
   60CHL1    C4 6851   4.740   3.073  10.181 -0.4539 -0.3846  0.8617
   60CHL1   H4A 6852   4.668   3.156  10.195  0.1882 -0.0207  2.1966
   60CHL1   H4B 6853   4.816   3.090  10.260 -2.0602  2.6342  1.9190
   60CHL1    C5 6854   4.797   3.084  10.039 -0.1935  0.7322  0.0038
   60CHL1    C6 6855   4.929   3.124  10.007  0.2565 -0.1475  0.1664
   60CHL1    H6 6856   4.994   3.141  10.095 -1.4906  0.0047  1.4920
   60CHL1    C7 6857   4.976   3.152   9.868 -0.4972  0.0733 -0.0107
   60CHL1   H7A 6858   5.037   3.245   9.860 -1.1239  0.5334  0.4711
   60CHL1   H7B 6859   5.031   3.071   9.816  1.4622  2.8693 -2.6397
   60CHL1    C8 6860   4.861   3.164   9.767  0.7369 -0.6094 -0.3753
   60CHL1    H8 6861   4.818   3.264   9.789  0.3183 -1.0993  1.1701
   60CHL1   C14 6862   4.916   3.170   9.624 -0.2129  0.6225 -0.6588
   60CHL1   H14 6863   4.966   3.072   9.606 -0.3953  0.2408  0.7939
   60CHL1   C15 6864   5.028   3.275   9.587 -0.0483  0.3151 -0.5829
   60CHL1  H15A 6865   4.998   3.372   9.632 -3.2881  0.8269 -3.4427
   60CHL1  H15B 6866   5.127   3.247   9.630 -1.2502 -1.5561  1.1284
   60CHL1   C16 6867   5.030   3.271   9.435  0.0658 -0.0829 -0.1233
   60CHL1  H16A 6868   5.003   3.375   9.405  1.4076  1.1209  2.4559
   60CHL1  H16B 6869   5.133   3.244   9.404  0.0777 -0.1466 -0.0287
   60CHL1   C17 6870   4.914   3.176   9.390  0.3017 -1.0355 -0.8519
   60CHL1   H17 6871   4.959   3.075   9.379  0.3283 -1.0658 -0.4581
   60CHL1   C13 6872   4.820   3.172   9.507  0.8893 -0.6643 -0.0184
   60CHL1   C18 6873   4.729   3.303   9.518  0.0422  1.1589  0.5987
   60CHL1  H18A 6874   4.688   3.319   9.620 -0.1974 -1.0479  0.8864
   60CHL1  H18B 6875   4.778   3.397   9.485  0.7219  1.8156  3.2486
   60CHL1  H18C 6876   4.637   3.291   9.457  1.2111  0.3748 -1.1019
   60CHL1   C12 6877   4.741   3.038   9.522  0.1150 -0.0769  0.2356
   60CHL1  H12A 6878   4.665   3.020   9.442  1.1469  0.5235 -0.9151
   60CHL1  H12B 6879   4.811   2.955   9.500  0.0037  0.4447 -2.4738
   60CHL1   C11 6880   4.675   3.014   9.665 -0.4042 -0.0558  1.0892
   60CHL1  H11A 6881   4.581   3.071   9.651 -1.4047 -1.3242  2.2778
   60CHL1  H11B 6882   4.658   2.904   9.671 -1.0803 -0.1238 -1.2880
   60CHL1    C9 6883   4.758   3.043   9.790 -0.5130 -0.1359 -0.5640
   60CHL1    H9 6884   4.826   2.956   9.798 -0.5245 -0.1443 -0.5578
   60CHL1   C10 6885   4.692   3.051   9.928 -0.4441 -0.3096 -1.0144
   60CHL1   C19 6886   4.589   3.160   9.919 -1.0104  0.0933  0.0466
   60CHL1  H19A 6887   4.531   3.135   9.828 -0.5549  0.6105 -0.3896
   60CHL1  H19B 6888   4.521   3.173  10.006 -0.5462  3.3228  0.0792
   60CHL1  H19C 6889   4.612   3.269   9.913 -2.3567  0.5835  2.4531
   60CHL1    C1 6890   4.626   2.909   9.963  0.0341 -0.5854 -0.0917
   60CHL1   H1A 6891   4.540   2.892   9.895 -1.0080 -1.2259  1.3231
   60CHL1   H1B 6892   4.689   2.818   9.956 -0.9079 -1.1747 -1.2161
   60CHL1    C2 6893   4.561   2.910  10.101 -0.6759  0.8031 -0.5053
   60CHL1   H2A 6894   4.527   2.805  10.114  4.8038 -1.2298  0.1164
   60CHL1   H2B 6895   4.473   2.977  10.111  0.3735  2.1766 -0.1341
   60CHL1   C20 6896   4.860   3.226   9.255  0.6684 -0.6291  0.4890
   60CHL1   H20 6897   4.805   3.322   9.262 -0.6329 -1.2206 -1.0555
   60CHL1   C21 6898   4.763   3.120   9.183  0.1373 -0.0219 -0.3903
   60CHL1  H21A 6899   4.821   3.026   9.169  0.8586  0.0838  1.6208
   60CHL1  H21B 6900   4.724   3.171   9.092 -1.9737  0.8643  0.9411
   60CHL1  H21C 6901   4.679   3.090   9.249 -0.9489 -0.0377 -1.7302
   60CHL1   C22 6902   4.975   3.256   9.149  0.4386  0.0522  0.9054
   60CHL1  H22A 6903   4.927   3.267   9.049 -0.6967  1.4727  1.5532
   60CHL1  H22B 6904   5.010   3.357   9.179 -2.3339  1.1460  0.8336
   60CHL1   C23 6905   5.097   3.158   9.132  0.7552 -0.8362 -0.0425
   60CHL1  H23A 6906   5.127   3.122   9.233 -0.9869 -0.9725  0.4668
   60CHL1  H23B 6907   5.056   3.069   9.081 -0.8133  0.5358 -1.2729
   60CHL1   C24 6908   5.211   3.203   9.046  0.1626  0.3993  0.6909
   60CHL1  H24A 6909   5.239   3.299   9.094 -1.5625  0.0665  2.4774
   60CHL1  H24B 6910   5.299   3.136   9.048  0.7919  1.2236  1.3556
   60CHL1   C25 6911   5.172   3.236   8.899  0.2975  0.1909  0.2830
   60CHL1   H25 6912   5.075   3.289   8.901 -0.6299 -1.3613 -1.1379
   60CHL1   C26 6913   5.275   3.328   8.822 -0.4429  0.6417 -0.7032
   60CHL1  H26A 6914   5.377   3.283   8.822  0.5505  2.7704 -1.3538
   60CHL1  H26B 6915   5.240   3.339   8.717  0.7612  1.0267 -1.0820
   60CHL1  H26C 6916   5.282   3.430   8.863  1.6080  0.9531 -1.6960
   60CHL1   C27 6917   5.168   3.099   8.822 -0.3611 -0.1152  0.1833
   60CHL1  H27A 6918   5.268   3.061   8.795 -0.7667 -0.3191 -1.1080
   60CHL1  H27B 6919   5.115   3.020   8.880  0.5013 -0.8655 -0.0258
   60CHL1  H27C 6920   5.116   3.116   8.725 -0.3513  0.7590  0.3229
   61CHL1    C3 6921   4.795   1.927  10.437  0.4888  0.7325  0.2607
   61CHL1    H3 6922   4.685   1.922  10.417  0.6928 -0.2919 -0.6498
   61CHL1    O3 6923   4.811   1.898  10.574 -0.1023  0.5176 -0.3876
   61CHL1   H3' 6924   4.900   1.911  10.608  0.4638 -1.8819 -0.7246
   61CHL1    C4 6925   4.869   1.817  10.354  0.4747  0.6052 -0.3882
   61CHL1   H4A 6926   4.976   1.818  10.383  1.0806  1.3507 -2.4501
   61CHL1   H4B 6927   4.816   1.723  10.381  2.3728 -0.2623  0.4275
   61CHL1    C5 6928   4.858   1.847  10.204  0.1917 -0.0326 -0.2558
   61CHL1    C6 6929   4.811   1.751  10.114  0.1731 -0.2534  0.0545
   61CHL1    H6 6930   4.779   1.654  10.155 -1.9312  1.0140  1.6687
   61CHL1    C7 6931   4.814   1.773   9.966  0.6818 -0.1824  0.2023
   61CHL1   H7A 6932   4.854   1.679   9.922 -0.6485  0.1119 -1.7738
   61CHL1   H7B 6933   4.712   1.791   9.925  0.8833 -0.4178 -0.4167
   61CHL1    C8 6934   4.895   1.905   9.919 -0.4699 -0.4140  0.5808
   61CHL1    H8 6935   5.004   1.887   9.926 -0.1624  1.2620  0.4885
   61CHL1   C14 6936   4.853   1.947   9.780  0.2853 -0.7751 -0.7848
   61CHL1   H14 6937   4.752   1.987   9.800  1.0010  0.4132  0.7167
   61CHL1   C15 6938   4.843   1.836   9.673 -0.3818  0.5551  0.4134
   61CHL1  H15A 6939   4.930   1.770   9.693 -1.3825 -1.0052 -0.2066
   61CHL1  H15B 6940   4.746   1.783   9.675  0.6197 -1.3862 -0.3214
   61CHL1   C16 6941   4.856   1.923   9.546 -0.5834  0.4165  0.4498
   61CHL1  H16A 6942   4.945   1.883   9.493 -1.1464 -0.6649  0.3047
   61CHL1  H16B 6943   4.760   1.922   9.489 -1.2166  0.8448  1.4825
   61CHL1   C17 6944   4.881   2.072   9.585 -0.0184  0.2195 -0.2394
   61CHL1   H17 6945   4.780   2.117   9.598  0.7156  1.2319  3.0029
   61CHL1   C13 6946   4.937   2.065   9.728 -0.3621 -0.6874  1.1950
   61CHL1   C18 6947   5.092   2.037   9.716  0.2184  0.0110  0.1073
   61CHL1  H18A 6948   5.094   1.937   9.667  2.3630  0.4496 -0.7928
   61CHL1  H18B 6949   5.156   2.101   9.652  1.5480 -1.6129 -0.2654
   61CHL1  H18C 6950   5.125   2.021   9.821 -1.2248 -1.0453  0.4376
   61CHL1   C12 6951   4.910   2.186   9.817  0.0678 -0.2055  0.2868
   61CHL1  H12A 6952   4.969   2.278   9.800 -1.3639  0.5640 -0.7013
   61CHL1  H12B 6953   4.803   2.215   9.805  1.2420  4.0550 -1.9823
   61CHL1   C11 6954   4.946   2.151   9.965  0.1361  0.1996  0.3709
   61CHL1  H11A 6955   5.057   2.148   9.962  0.1883  2.0262 -0.2544
   61CHL1  H11B 6956   4.910   2.231  10.034 -2.8019 -0.9078  0.2445
   61CHL1    C9 6957   4.875   2.024  10.013  0.1549 -0.0470  0.2161
   61CHL1    H9 6958   4.767   2.049  10.019  0.0676 -0.3428 -0.0810
   61CHL1   C10 6959   4.910   1.985  10.158 -0.1905  0.5075  0.1194
   61CHL1   C19 6960   5.070   1.987  10.171  0.8315 -0.5070 -0.0210
   61CHL1  H19A 6961   5.095   1.956  10.274 -0.2849 -1.2609  0.0324
   61CHL1  H19B 6962   5.111   1.906  10.107  0.8088 -1.9584  1.7227
   61CHL1  H19C 6963   5.103   2.092  10.155 -2.4249  0.8580  1.3134
   61CHL1    C1 6964   4.844   2.092  10.260 -0.2404 -0.7367 -0.0252
   61CHL1   H1A 6965   4.910   2.181  10.248  0.2357 -1.1359 -0.4105
   61CHL1   H1B 6966   4.746   2.133  10.226  0.2422 -0.5741 -1.2771
   61CHL1    C2 6967   4.841   2.064  10.411  0.0929 -0.2160 -0.1406
   61CHL1   H2A 6968   4.775   2.140  10.457 -0.0843 -0.2804 -0.2886
   61CHL1   H2B 6969   4.942   2.074  10.455 -0.1089  0.2255  0.2349
   61CHL1   C20 6970   4.953   2.163   9.482  0.6893 -0.3483 -0.3815
   61CHL1   H20 6971   5.038   2.106   9.439 -1.8527 -0.8967 -5.5535
   61CHL1   C21 6972   4.991   2.300   9.544  0.1601 -0.2697  0.0120
   61CHL1  H21A 6973   4.898   2.345   9.586  0.7251  1.8207 -0.8589
   61CHL1  H21B 6974   5.021   2.367   9.460 -1.9570  1.1171  0.2767
   61CHL1  H21C 6975   5.076   2.290   9.615  1.1006 -0.0535 -1.0517
   61CHL1   C22 6976   4.858   2.178   9.364 -0.4457  0.1433  0.4690
   61CHL1  H22A 6977   4.780   2.099   9.372  1.4379 -1.9028 -0.3196
   61CHL1  H22B 6978   4.809   2.277   9.374  1.4288  0.9259  2.9329
   61CHL1   C23 6979   4.948   2.169   9.238  0.4062 -0.2985  0.2565
   61CHL1  H23A 6980   5.041   2.229   9.251  0.5348 -0.1470 -1.1933
   61CHL1  H23B 6981   4.984   2.066   9.213  1.6981  0.5587 -1.6761
   61CHL1   C24 6982   4.874   2.229   9.120  0.0543 -0.3248  0.4533
   61CHL1  H24A 6983   4.792   2.158   9.099  0.1256 -0.9837  2.2135
   61CHL1  H24B 6984   4.839   2.333   9.141 -1.4380 -1.1663  2.3947
   61CHL1   C25 6985   4.968   2.232   8.995  0.2754 -0.3308 -0.2835
   61CHL1   H25 6986   5.054   2.302   9.002  0.7486 -0.8570 -0.7336
   61CHL1   C26 6987   5.030   2.102   8.949  0.5679 -0.4439  0.2466
   61CHL1  H26A 6988   4.957   2.020   8.939 -0.9375  0.7737  0.8986
   61CHL1  H26B 6989   5.090   2.121   8.857 -0.8563  1.8819 -0.2893
   61CHL1  H26C 6990   5.103   2.069   9.026  0.7082 -1.3358 -0.2601
   61CHL1   C27 6991   4.885   2.280   8.874 -0.3124  0.9838  0.0796
   61CHL1  H27A 6992   4.841   2.377   8.907 -3.3636  0.5153 -2.1399
   61CHL1  H27B 6993   4.948   2.298   8.784 -1.0648 -0.7635 -0.8432
   61CHL1  H27C 6994   4.800   2.214   8.846 -0.6585  0.9549  1.1767
   62CHL1    C3 6995   5.373   4.901  10.055 -0.1377  0.4676  0.2771
   62CHL1    H3 6996   5.268   4.936  10.067  0.3613  1.5258  1.9102
   62CHL1    O3 6997   5.429   4.876  10.182 -0.0330  0.3578  0.4645
   62CHL1   H3' 6998   5.512   4.832  10.162 -1.0861 -0.3593 -2.8333
   62CHL1    C4 6999   5.381   4.772   9.971 -0.0012 -0.5532 -0.8858
   62CHL1   H4A 7000   5.479   4.720   9.984  1.8352  2.6894 -0.5320
   62CHL1   H4B 7001   5.304   4.707  10.018  1.5923  0.6962  4.1256
   62CHL1    C5 7002   5.358   4.789   9.824 -0.0042  0.4201 -0.2113
   62CHL1    C6 7003   5.290   4.690   9.751  0.1841  0.0249 -0.0522
   62CHL1    H6 7004   5.241   4.599   9.788  0.6828 -0.2182  0.0236
   62CHL1    C7 7005   5.264   4.714   9.600 -0.9770  0.0951  0.1327
   62CHL1   H7A 7006   5.275   4.620   9.541 -0.5893  0.5679 -0.5668
   62CHL1   H7B 7007   5.158   4.737   9.579 -1.1030  0.1952  0.8830
   62CHL1    C8 7008   5.359   4.815   9.536 -0.0767  0.5854  0.3541
   62CHL1    H8 7009   5.457   4.765   9.520 -0.1739  1.0472 -2.1425
   62CHL1   C14 7010   5.305   4.846   9.397 -0.5534 -0.3240  0.2164
   62CHL1   H14 7011   5.204   4.889   9.412 -0.0566  0.8492  0.2624
   62CHL1   C15 7012   5.288   4.725   9.298 -0.8800  0.3157  0.3961
   62CHL1  H15A 7013   5.373   4.654   9.308  0.4907  1.8867  0.3356
   62CHL1  H15B 7014   5.192   4.676   9.322 -0.4191  0.5344  3.0620
   62CHL1   C16 7015   5.309   4.774   9.158  0.7828  0.1495 -0.1579
   62CHL1  H16A 7016   5.392   4.728   9.101  0.8137  0.1469 -0.1112
   62CHL1  H16B 7017   5.215   4.760   9.099 -0.9825  1.7462  2.0859
   62CHL1   C17 7018   5.319   4.927   9.175 -0.3738 -0.6454 -0.4135
   62CHL1   H17 7019   5.213   4.958   9.167 -0.6209 -1.5984 -1.0497
   62CHL1   C13 7020   5.387   4.948   9.313  0.6178  0.1759  0.4850
   62CHL1   C18 7021   5.533   4.901   9.301  0.0592 -0.0608 -0.0345
   62CHL1  H18A 7022   5.552   4.797   9.266  0.4126 -0.1232  0.3345
   62CHL1  H18B 7023   5.598   4.979   9.256 -1.5998  0.6036 -1.3750
   62CHL1  H18C 7024   5.576   4.893   9.403  0.6581 -0.3064 -0.2982
   62CHL1   C12 7025   5.370   5.082   9.384 -0.1092  0.2716 -0.4322
   62CHL1  H12A 7026   5.446   5.151   9.342  1.5453 -0.2193  1.5893
   62CHL1  H12B 7027   5.267   5.124   9.382 -0.9447 -1.3907  2.1822
   62CHL1   C11 7028   5.419   5.059   9.536  0.6040  0.7641  0.1225
   62CHL1  H11A 7029   5.529   5.046   9.525  0.3463 -1.9421  0.0132
   62CHL1  H11B 7030   5.393   5.146   9.600 -0.3854 -0.3417  1.2731
   62CHL1    C9 7031   5.365   4.936   9.613  0.6830  0.4752 -0.9067
   62CHL1    H9 7032   5.261   4.972   9.628  1.4052  3.0729 -1.7116
   62CHL1   C10 7033   5.431   4.911   9.761  0.3875 -0.0266  0.0053
   62CHL1   C19 7034   5.573   4.872   9.740 -0.5725 -0.7397  0.0895
   62CHL1  H19A 7035   5.598   4.792   9.668  0.5240 -0.9172  0.6578
   62CHL1  H19B 7036   5.637   4.956   9.706 -0.3296 -1.1872 -0.5728
   62CHL1  H19C 7037   5.614   4.853   9.841 -2.8475  0.1422  1.2754
   62CHL1    C1 7038   5.415   5.037   9.848 -0.3108 -0.2926  0.0308
   62CHL1   H1A 7039   5.476   5.118   9.802 -2.0200 -0.5807 -3.0333
   62CHL1   H1B 7040   5.314   5.080   9.829 -0.3181 -0.1300  0.4279
   62CHL1    C2 7041   5.453   5.011   9.996 -0.4136 -0.1068  0.1546
   62CHL1   H2A 7042   5.441   5.107  10.050  2.4951 -0.0994  0.9806
   62CHL1   H2B 7043   5.563   4.996  10.001 -0.3038  0.7342  0.2656
   62CHL1   C20 7044   5.378   5.004   9.058 -0.0475 -2.4734 -0.2684
   62CHL1   H20 7045   5.489   4.996   9.063  0.1083 -0.6868 -0.5401
   62CHL1   C21 7046   5.340   5.162   9.068  0.2292 -0.1662 -0.3886
   62CHL1  H21A 7047   5.295   5.198   8.974  1.0089  1.6858 -0.1024
   62CHL1  H21B 7048   5.429   5.222   9.098  0.6507 -1.6138  1.4692
   62CHL1  H21C 7049   5.260   5.178   9.144 -0.4640  0.7358 -1.2913
   62CHL1   C22 7050   5.335   4.950   8.917  0.4405 -0.3009  0.0177
   62CHL1  H22A 7051   5.319   4.840   8.909  1.2886 -0.3967 -0.6461
   62CHL1  H22B 7052   5.233   4.992   8.914  0.0334 -1.2523  0.2256
   62CHL1   C23 7053   5.430   4.989   8.808 -1.1179 -0.0968  0.3079
   62CHL1  H23A 7054   5.375   5.002   8.713 -1.7368 -0.0009  0.6722
   62CHL1  H23B 7055   5.472   5.088   8.836  1.5551 -0.5792 -1.6678
   62CHL1   C24 7056   5.547   4.886   8.800 -0.0976  0.0675  0.8462
   62CHL1  H24A 7057   5.620   4.906   8.881 -0.1342  1.9842  0.4524
   62CHL1  H24B 7058   5.506   4.784   8.818  0.6394 -0.0868  1.6851
   62CHL1   C25 7059   5.609   4.896   8.656  0.0509  0.3412 -0.8830
   62CHL1   H25 7060   5.609   4.998   8.613 -3.6820  0.6509 -0.4495
   62CHL1   C26 7061   5.746   4.834   8.652 -0.3549  0.3199  0.1915
   62CHL1  H26A 7062   5.744   4.724   8.646  3.4842 -0.0061  1.7218
   62CHL1  H26B 7063   5.785   4.873   8.556 -1.6762 -1.3368 -1.0736
   62CHL1  H26C 7064   5.804   4.874   8.739  0.4226 -2.6797  1.1511
   62CHL1   C27 7065   5.525   4.810   8.559 -0.3872 -0.9521  0.1930
   62CHL1  H27A 7066   5.560   4.812   8.454 -0.4991 -2.9369  0.0772
   62CHL1  H27B 7067   5.525   4.701   8.582 -0.2143 -1.2415 -1.1007
   62CHL1  H27C 7068   5.417   4.836   8.566 -0.4342  1.1164 -4.4773
   63CHL1    C3 7069   6.304   0.738  10.384  0.6485 -0.5970 -0.1076
   63CHL1    H3 7070   6.394   0.708  10.326  1.0013 -0.5906  0.4297
   63CHL1    O3 7071   6.322   0.749  10.525 -0.3460  0.3447 -0.0775
   63CHL1   H3' 7072   6.249   0.806  10.549 -1.4950 -1.4188  0.9042
   63CHL1    C4 7073   6.256   0.869  10.328 -0.4332  0.1423  0.3613
   63CHL1   H4A 7074   6.166   0.906  10.382 -1.8621 -1.0767 -1.0919
   63CHL1   H4B 7075   6.339   0.940  10.350 -0.8280  0.8010 -0.2219
   63CHL1    C5 7076   6.233   0.867  10.179  0.0220 -0.2353 -0.2268
   63CHL1    C6 7077   6.286   0.950  10.088 -0.0357  0.2301 -0.5252
   63CHL1    H6 7078   6.358   1.028  10.116 -0.7769  0.4189  0.9549
   63CHL1    C7 7079   6.252   0.955   9.943  1.2342  0.6476 -0.1830
   63CHL1   H7A 7080   6.244   1.061   9.909 -0.5336  0.5653 -0.1330
   63CHL1   H7B 7081   6.341   0.907   9.898  1.0406  0.0445  0.0669
   63CHL1    C8 7082   6.111   0.885   9.917  0.7161  0.3135  0.2308
   63CHL1    H8 7083   6.035   0.961   9.946 -0.6019 -0.7280 -0.3678
   63CHL1   C14 7084   6.097   0.861   9.766 -0.3770 -0.5325  0.3967
   63CHL1   H14 7085   6.175   0.782   9.753 -0.0175 -0.1204  0.0215
   63CHL1   C15 7086   6.138   0.969   9.661 -0.4831  0.0974 -0.5831
   63CHL1  H15A 7087   6.101   1.066   9.701 -0.0989  0.4837 -1.1536
   63CHL1  H15B 7088   6.247   0.965   9.644 -0.7753 -2.4496 -2.2369
   63CHL1   C16 7089   6.058   0.940   9.532  0.3646 -0.2713 -0.2208
   63CHL1  H16A 7090   5.988   1.025   9.520  2.6796  1.5661 -1.4941
   63CHL1  H16B 7091   6.125   0.928   9.444  2.0566 -1.0437  1.1024
   63CHL1   C17 7092   5.981   0.809   9.575 -0.1024 -0.4491  0.1729
   63CHL1   H17 7093   6.050   0.725   9.551 -1.7417 -2.1453  1.1660
   63CHL1   C13 7094   5.966   0.810   9.726  0.3279  0.0574 -0.1798
   63CHL1   C18 7095   5.852   0.905   9.760 -0.3123  0.5577  0.6574
   63CHL1  H18A 7096   5.754   0.872   9.719  0.5455 -1.0131 -0.2333
   63CHL1  H18B 7097   5.831   0.914   9.869 -1.4338  1.9654  0.3551
   63CHL1  H18C 7098   5.864   1.011   9.728 -1.6995  0.9572  1.3680
   63CHL1   C12 7099   5.936   0.676   9.802  0.3838 -0.2788  0.1421
   63CHL1  H12A 7100   5.831   0.647   9.781  0.2576  1.6759 -2.2556
   63CHL1  H12B 7101   6.004   0.593   9.773 -0.2352 -1.2513  1.3146
   63CHL1   C11 7102   5.945   0.692   9.957 -0.1999 -0.6156  0.0594
   63CHL1  H11A 7103   5.854   0.743   9.995 -2.0273 -2.9011 -1.0549
   63CHL1  H11B 7104   5.959   0.593  10.005 -0.8462 -1.8008 -2.0756
   63CHL1    C9 7105   6.088   0.758  10.003  0.0050 -0.6478  0.6074
   63CHL1    H9 7106   6.166   0.694   9.958  0.9512  1.0868 -0.3295
   63CHL1   C10 7107   6.115   0.767  10.148  0.7213  0.6933  0.6875
   63CHL1   C19 7108   5.978   0.820  10.211 -0.6288  0.1227  0.5016
   63CHL1  H19A 7109   5.990   0.857  10.315  1.1280 -2.2318  1.2197
   63CHL1  H19B 7110   5.939   0.892  10.136  0.9380  0.2387 -0.2389
   63CHL1  H19C 7111   5.898   0.742  10.212 -2.9697  2.3697  1.2317
   63CHL1    C1 7112   6.154   0.626  10.206  0.0291 -0.3212  0.8900
   63CHL1   H1A 7113   6.058   0.570  10.202 -0.4809  0.6119 -0.5274
   63CHL1   H1B 7114   6.232   0.588  10.136 -2.3218 -0.1733 -1.9842
   63CHL1    C2 7115   6.196   0.631  10.354  0.0653  0.3396  0.0208
   63CHL1   H2A 7116   6.234   0.533  10.388  1.2836  1.2209  1.3518
   63CHL1   H2B 7117   6.106   0.652  10.416  2.1409  1.6925  2.8692
   63CHL1   C20 7118   5.859   0.775   9.485  0.2721 -0.8466 -0.6206
   63CHL1   H20 7119   5.771   0.827   9.528  0.5312 -1.7949  1.1314
   63CHL1   C21 7120   5.815   0.632   9.488  0.9824  0.5605  0.4004
   63CHL1  H21A 7121   5.898   0.566   9.455  0.7844  1.0440 -1.1236
   63CHL1  H21B 7122   5.732   0.618   9.415  0.2463 -1.0376  1.4773
   63CHL1  H21C 7123   5.782   0.591   9.586  1.2225  0.8349  0.5974
   63CHL1   C22 7124   5.875   0.829   9.334 -0.3119 -0.3560  0.1354
   63CHL1  H22A 7125   5.778   0.807   9.284 -0.2681  0.2138 -0.2005
   63CHL1  H22B 7126   5.887   0.939   9.336 -0.3281 -0.3596  0.8732
   63CHL1   C23 7127   5.976   0.760   9.244 -0.7594  0.2154  0.3872
   63CHL1  H23A 7128   6.058   0.707   9.298  1.5668  1.4439 -1.7387
   63CHL1  H23B 7129   5.926   0.680   9.185 -0.1303  0.3191 -0.3047
   63CHL1   C24 7130   6.049   0.867   9.159  0.1384  0.0307  0.9551
   63CHL1  H24A 7131   6.082   0.950   9.225  1.6671  1.6936 -1.6820
   63CHL1  H24B 7132   6.136   0.821   9.106 -0.2499  0.4629 -0.0981
   63CHL1   C25 7133   5.969   0.931   9.032 -0.1925  0.7062 -0.0554
   63CHL1   H25 7134   5.875   0.970   9.075  0.1467  1.1703  0.2815
   63CHL1   C26 7135   6.057   1.052   8.991  0.7923  0.0680 -0.6309
   63CHL1  H26A 7136   6.000   1.105   8.912 -0.3149 -0.0713  0.0486
   63CHL1  H26B 7137   6.052   1.121   9.078  0.0092 -0.2188 -0.4399
   63CHL1  H26C 7138   6.161   1.029   8.961  1.3829  1.6404  0.1018
   63CHL1   C27 7139   5.942   0.833   8.915 -0.9291  0.1955 -0.3256
   63CHL1  H27A 7140   5.882   0.744   8.944 -0.3599 -0.4472 -1.0844
   63CHL1  H27B 7141   5.891   0.897   8.840  1.0484  1.7185 -0.4450
   63CHL1  H27C 7142   6.039   0.790   8.882  0.5299  0.7856  2.8339
   64CHL1    C3 7143   5.962   5.028  10.136  0.0827 -0.5540  0.3186
   64CHL1    H3 7144   5.862   4.980  10.141 -0.9555  0.8460 -3.3572
   64CHL1    O3 7145   5.997   5.078  10.267  0.7534 -0.2002  0.3331
   64CHL1   H3' 7146   6.081   5.125  10.262  0.4670  0.7187  2.8548
   64CHL1    C4 7147   6.073   4.934  10.098 -0.1240 -0.1709 -0.0339
   64CHL1   H4A 7148   6.174   4.981  10.103 -0.4108  0.2843  2.4225
   64CHL1   H4B 7149   6.085   4.854  10.174  1.8559 -0.6276 -0.7505
   64CHL1    C5 7150   6.043   4.874   9.958 -0.3415  0.3570  0.8336
   64CHL1    C6 7151   6.042   4.742   9.935 -0.5167 -0.1505  0.2490
   64CHL1    H6 7152   6.046   4.684  10.029 -0.1862  0.4152  0.5863
   64CHL1    C7 7153   6.028   4.684   9.798  0.5293  0.1363  0.2346
   64CHL1   H7A 7154   6.108   4.609   9.780 -0.3744 -0.7604 -0.1841
   64CHL1   H7B 7155   5.937   4.621   9.789  0.5570 -0.0385  1.0490
   64CHL1    C8 7156   6.055   4.786   9.682 -0.5875  0.0992 -0.2790
   64CHL1    H8 7157   6.165   4.794   9.672 -0.4970 -1.8343 -1.4472
   64CHL1   C14 7158   6.003   4.735   9.541 -0.2325  0.1690  0.1808
   64CHL1   H14 7159   5.895   4.712   9.546 -0.3359  0.7285  0.5551
   64CHL1   C15 7160   6.062   4.604   9.486  0.0553 -0.5916 -0.1923
   64CHL1  H15A 7161   6.170   4.626   9.473 -0.1305  1.3383  1.0803
   64CHL1  H15B 7162   6.044   4.521   9.558  0.2080  1.4974  2.4635
   64CHL1   C16 7163   5.994   4.599   9.348  0.4156  0.2432 -0.0561
   64CHL1  H16A 7164   6.073   4.551   9.287  0.2926 -1.2724  0.9317
   64CHL1  H16B 7165   5.904   4.535   9.364  1.0947  0.0817  4.2624
   64CHL1   C17 7166   5.962   4.749   9.310 -0.4502 -0.7232 -0.2853
   64CHL1   H17 7167   5.853   4.766   9.320 -0.5812 -2.0724  1.0071
   64CHL1   C13 7168   6.021   4.837   9.427  0.2044  0.5259  0.9150
   64CHL1   C18 7169   6.171   4.870   9.396  0.0521 -0.1787 -0.0268
   64CHL1  H18A 7170   6.230   4.903   9.485  3.9169 -0.4707 -2.2607
   64CHL1  H18B 7171   6.223   4.790   9.340 -0.4440 -0.1663 -0.5048
   64CHL1  H18C 7172   6.174   4.960   9.331  1.0261  0.7749  1.2810
   64CHL1   C12 7173   5.948   4.967   9.460  0.1481 -0.7747 -0.2258
   64CHL1  H12A 7174   5.968   5.040   9.380  0.1240  2.3579  2.4214
   64CHL1  H12B 7175   5.840   4.945   9.475 -0.0043  0.4747  0.6626
   64CHL1   C11 7176   6.004   5.026   9.592 -0.1114 -0.1485 -0.3063
   64CHL1  H11A 7177   6.106   5.066   9.569  1.2016 -3.4015 -0.7496
   64CHL1  H11B 7178   5.953   5.123   9.609 -0.3069 -0.3331  0.1579
   64CHL1    C9 7179   5.994   4.923   9.711 -0.2150 -0.6894 -0.8563
   64CHL1    H9 7180   5.886   4.902   9.725 -0.0129 -1.4368 -0.3208
   64CHL1   C10 7181   6.034   4.984   9.844 -0.2263  0.3585 -0.0898
   64CHL1   C19 7182   6.170   5.042   9.825  0.1480  0.6242 -0.1145
   64CHL1  H19A 7183   6.175   5.113   9.740  0.5044 -0.0211 -0.6467
   64CHL1  H19B 7184   6.199   5.111   9.908 -2.3151  1.5133  0.0850
   64CHL1  H19C 7185   6.240   4.957   9.810  0.7130  0.7052  1.7263
   64CHL1    C1 7186   5.931   5.097   9.888  0.4305  0.3989 -0.4075
   64CHL1   H1A 7187   5.937   5.181   9.816  2.0618  0.6710  0.0014
   64CHL1   H1B 7188   5.825   5.066   9.898  0.9688 -1.2182  0.9264
   64CHL1    C2 7189   5.951   5.145  10.036  0.0537 -0.0190  0.8063
   64CHL1   H2A 7190   5.872   5.218  10.066  1.0907  0.9465  1.2358
   64CHL1   H2B 7191   6.037   5.215  10.044  0.7454 -0.8446  0.7022
   64CHL1   C20 7192   6.003   4.774   9.169  0.2398  0.5461 -0.3864
   64CHL1   H20 7193   6.113   4.762   9.164  0.1446 -0.7078  0.1045
   64CHL1   C21 7194   5.978   4.916   9.120 -0.5427 -0.7941 -0.4148
   64CHL1  H21A 7195   5.875   4.949   9.146 -0.4353 -0.8788  0.1256
   64CHL1  H21B 7196   6.000   4.927   9.011 -1.9133 -3.0397 -0.9772
   64CHL1  H21C 7197   6.032   4.996   9.175 -2.4042 -1.5836  2.7948
   64CHL1   C22 7198   5.937   4.663   9.080  1.1127 -0.1267  0.1515
   64CHL1  H22A 7199   5.980   4.687   8.980  0.8376 -0.5126 -0.0651
   64CHL1  H22B 7200   5.973   4.562   9.106  0.9930 -0.0274  0.7151
   64CHL1   C23 7201   5.779   4.668   9.067  0.3205  0.0835  1.1161
   64CHL1  H23A 7202   5.731   4.623   9.157  0.0987  1.4476  1.7043
   64CHL1  H23B 7203   5.744   4.773   9.074 -0.5054 -0.2076  1.4700
   64CHL1   C24 7204   5.731   4.594   8.943 -0.0601  0.5904  0.2296
   64CHL1  H24A 7205   5.622   4.605   8.924  0.1182  1.8450 -0.1674
   64CHL1  H24B 7206   5.786   4.635   8.856 -1.2099 -0.7520 -1.2034
   64CHL1   C25 7207   5.762   4.439   8.932 -0.2818 -0.0814 -0.0604
   64CHL1   H25 7208   5.872   4.426   8.938 -0.2782 -0.2543 -0.4766
   64CHL1   C26 7209   5.691   4.351   9.042  0.4109  1.4016 -0.1243
   64CHL1  H26A 7210   5.587   4.327   9.010  0.5863  0.6072 -0.1313
   64CHL1  H26B 7211   5.743   4.253   9.039  2.1292  2.2854 -2.1838
   64CHL1  H26C 7212   5.695   4.395   9.144 -0.8749  0.0667  0.5375
   64CHL1   C27 7213   5.733   4.379   8.794 -0.0571  0.2616  0.2008
   64CHL1  H27A 7214   5.751   4.269   8.791 -0.0613  0.2660  0.0040
   64CHL1  H27B 7215   5.626   4.396   8.772 -0.2404  0.2247  1.0047
   64CHL1  H27C 7216   5.793   4.427   8.714 -0.1835 -0.0371 -0.0772
   65CHL1    C3 7217   0.844   3.084  10.277 -0.7621  0.1942 -0.2455
   65CHL1    H3 7218   0.947   3.058  10.308 -0.4831 -0.5771 -1.7292
   65CHL1    O3 7219   0.761   3.075  10.394  0.5363 -0.2990 -0.0061
   65CHL1   H3' 7220   0.677   3.109  10.364  0.2975  0.7396  1.6950
   65CHL1    C4 7221   0.851   3.229  10.227  0.2792 -0.0506 -0.6128
   65CHL1   H4A 7222   0.747   3.269  10.223  0.1287 -0.3076  0.3534
   65CHL1   H4B 7223   0.909   3.292  10.299  0.7850  0.3532 -1.3666
   65CHL1    C5 7224   0.914   3.229  10.088  0.8838 -0.1842  0.2349
   65CHL1    C6 7225   1.021   3.311  10.073 -0.3778  0.0985 -0.4597
   65CHL1    H6 7226   1.049   3.384  10.150 -2.1561  1.4219 -0.9927
   65CHL1    C7 7227   1.087   3.335   9.937  0.0634 -1.0077  0.1264
   65CHL1   H7A 7228   1.074   3.442   9.911  0.8491 -0.8337  0.4131
   65CHL1   H7B 7229   1.192   3.297   9.939  0.2587 -0.4819  0.0097
   65CHL1    C8 7230   1.021   3.267   9.813 -0.3095  0.7302 -0.0167
   65CHL1    H8 7231   0.930   3.321   9.777 -0.6995 -0.4180 -0.8114
   65CHL1   C14 7232   1.121   3.248   9.701 -0.1419  0.3193 -0.5096
   65CHL1   H14 7233   1.200   3.175   9.729 -1.6636 -0.9435  0.6471
   65CHL1   C15 7234   1.177   3.371   9.641 -0.2667  0.4973  0.0354
   65CHL1  H15A 7235   1.093   3.443   9.635  0.6972  1.7850  1.1619
   65CHL1  H15B 7236   1.257   3.407   9.710  0.2209 -0.5115  0.0138
   65CHL1   C16 7237   1.230   3.329   9.495  0.2142 -0.1533 -0.4569
   65CHL1  H16A 7238   1.192   3.413   9.433  1.3308  3.1186  2.8679
   65CHL1  H16B 7239   1.340   3.341   9.492  0.2308 -0.4832 -2.0044
   65CHL1   C17 7240   1.165   3.194   9.470 -0.3608  0.6588 -0.4303
   65CHL1   H17 7241   1.236   3.115   9.502 -2.2046 -0.9328 -0.0971
   65CHL1   C13 7242   1.053   3.179   9.583 -0.2819 -0.4059 -0.1983
   65CHL1   C18 7243   0.925   3.260   9.526 -0.6189  0.7202  0.6647
   65CHL1  H18A 7244   0.885   3.205   9.438 -0.7389  0.4060  0.9173
   65CHL1  H18B 7245   0.847   3.260   9.604 -2.0624 -0.7978 -0.6977
   65CHL1  H18C 7246   0.958   3.363   9.498  0.1209  0.4185  0.3864
   65CHL1   C12 7247   1.022   3.037   9.614 -0.3455  0.3293 -0.1651
   65CHL1  H12A 7248   0.984   2.977   9.528  0.6392 -1.3674  0.5192
   65CHL1  H12B 7249   1.116   2.981   9.633  0.0675  0.3588 -1.9499
   65CHL1   C11 7250   0.924   3.032   9.731 -0.0116  0.3255  0.0026
   65CHL1  H11A 7251   0.826   3.072   9.698 -0.8381  0.6026  2.5292
   65CHL1  H11B 7252   0.906   2.925   9.754 -1.2778  0.2036 -1.4275
   65CHL1    C9 7253   0.967   3.119   9.853 -0.4189 -0.1367 -0.0465
   65CHL1    H9 7254   1.056   3.064   9.889 -0.4475 -0.3591 -0.3143
   65CHL1   C10 7255   0.870   3.126   9.981 -0.1598 -0.0367  0.1387
   65CHL1   C19 7256   0.731   3.182   9.940  0.1952  0.1489 -0.5022
   65CHL1  H19A 7257   0.677   3.118   9.867  1.3602 -0.0350 -1.2457
   65CHL1  H19B 7258   0.669   3.183  10.032  0.3872 -2.0345 -0.2964
   65CHL1  H19C 7259   0.732   3.284   9.897  1.0376  0.5915  0.5391
   65CHL1    C1 7260   0.860   2.987  10.048 -0.0075  0.4485  0.7224
   65CHL1   H1A 7261   0.816   2.917   9.973  0.0364 -0.8327  1.8672
   65CHL1   H1B 7262   0.965   2.951  10.053  0.6327  2.1245  0.0432
   65CHL1    C2 7263   0.792   2.977  10.187 -0.3978 -0.4616  0.0975
   65CHL1   H2A 7264   0.805   2.878  10.237  3.5495 -0.0834  0.0801
   65CHL1   H2B 7265   0.682   2.988  10.170 -0.3484  1.7503  0.9221
   65CHL1   C20 7266   1.132   3.169   9.322 -0.2431  0.3942  0.1458
   65CHL1   H20 7267   1.050   3.228   9.275 -1.1910 -1.3807 -0.5313
   65CHL1   C21 7268   1.091   3.025   9.311  0.3850  0.3539  0.5485
   65CHL1  H21A 7269   1.155   2.954   9.367 -0.4982 -0.7858  0.1633
   65CHL1  H21B 7270   1.085   2.987   9.207  2.0877 -0.2262  0.6278
   65CHL1  H21C 7271   0.982   3.020   9.334  0.3509  1.3799  0.6638
   65CHL1   C22 7272   1.254   3.187   9.223 -0.1677 -0.3804  0.3583
   65CHL1  H22A 7273   1.291   3.291   9.241  1.9956 -1.2495  1.3747
   65CHL1  H22B 7274   1.340   3.120   9.245 -2.1140 -2.9041  0.6492
   65CHL1   C23 7275   1.225   3.151   9.074  0.2436  0.1191  0.0833
   65CHL1  H23A 7276   1.293   3.204   9.004 -1.1245  1.5601 -0.2312
   65CHL1  H23B 7277   1.233   3.041   9.059 -0.2755 -0.2209  2.0598
   65CHL1   C24 7278   1.087   3.196   9.014 -0.0288  0.1798  0.1294
   65CHL1  H24A 7279   1.005   3.138   9.062  0.5830 -0.0465  0.9248
   65CHL1  H24B 7280   1.073   3.302   9.042  0.4115 -0.0799  1.3917
   65CHL1   C25 7281   1.089   3.186   8.862  0.1040  0.1250 -1.0683
   65CHL1   H25 7282   1.171   3.247   8.817  1.3412 -2.5159 -2.6055
   65CHL1   C26 7283   1.094   3.038   8.819  0.0312 -0.1430 -0.5298
   65CHL1  H26A 7284   1.189   2.993   8.855 -0.7307 -1.3306  0.0767
   65CHL1  H26B 7285   1.010   2.987   8.871 -0.4256  2.1215  1.0994
   65CHL1  H26C 7286   1.095   3.027   8.709 -0.6204  1.4719 -0.7188
   65CHL1   C27 7287   0.951   3.234   8.810 -0.2895 -0.0083  0.4356
   65CHL1  H27A 7288   0.870   3.186   8.868  1.0319 -0.5736  1.8810
   65CHL1  H27B 7289   0.937   3.344   8.818  0.7422  0.2551 -0.8612
   65CHL1  H27C 7290   0.942   3.215   8.701  0.2248  2.5717 -0.1273
   66CHL1    C3 7291   6.686   1.451  10.550  0.0772 -0.3774  0.4438
   66CHL1    H3 7292   6.716   1.554  10.525 -2.0902  0.7246  1.9896
   66CHL1    O3 7293   6.686   1.426  10.688 -0.0254  0.2666  0.1434
   66CHL1   H3' 7294   6.709   1.333  10.683  1.9560  0.7795 -1.8074
   66CHL1    C4 7295   6.546   1.424  10.506  0.7725 -0.3727  0.1664
   66CHL1   H4A 7296   6.513   1.325  10.545  0.7896 -0.2828  0.4129
   66CHL1   H4B 7297   6.481   1.499  10.556 -2.2154 -3.0897  0.7211
   66CHL1    C5 7298   6.529   1.430  10.353  0.3597 -0.3087 -0.1497
   66CHL1    C6 7299   6.451   1.524  10.295  0.3926 -0.0684 -0.2575
   66CHL1    H6 7300   6.383   1.578  10.363 -1.4923 -2.0589 -0.4768
   66CHL1    C7 7301   6.432   1.536  10.148  0.1708  0.5149 -0.1926
   66CHL1   H7A 7302   6.323   1.545  10.130  0.1555  2.4097  0.6070
   66CHL1   H7B 7303   6.471   1.637  10.120  0.9426 -0.0147 -1.1171
   66CHL1    C8 7304   6.496   1.422  10.069  0.1882 -0.9356  0.3504
   66CHL1    H8 7305   6.427   1.335  10.079 -0.4299 -0.3660  1.1754
   66CHL1   C14 7306   6.509   1.462   9.922 -0.2723  0.3415  0.2762
   66CHL1   H14 7307   6.588   1.540   9.916  1.5674 -1.5242 -3.4114
   66CHL1   C15 7308   6.385   1.528   9.848  0.6552  0.3565  0.2285
   66CHL1  H15A 7309   6.284   1.497   9.882  1.2351  0.9628  2.7656
   66CHL1  H15B 7310   6.383   1.639   9.848 -1.6815  0.5094  3.9083
   66CHL1   C16 7311   6.395   1.472   9.706  0.1412 -0.2829 -0.0048
   66CHL1  H16A 7312   6.314   1.399   9.686 -0.9852  0.9563 -0.0465
   66CHL1  H16B 7313   6.389   1.551   9.628  1.7150 -0.3182 -0.2114
   66CHL1   C17 7314   6.537   1.407   9.690 -0.0765  0.6979  0.4507
   66CHL1   H17 7315   6.605   1.493   9.675 -1.8881  1.9070 -1.2718
   66CHL1   C13 7316   6.557   1.347   9.836 -0.3461  0.1523  0.4233
   66CHL1   C18 7317   6.465   1.221   9.846  0.2692 -0.6391  0.3914
   66CHL1  H18A 7318   6.365   1.245   9.805  1.6733  2.0666 -1.8155
   66CHL1  H18B 7319   6.516   1.141   9.788  1.0992  0.1077  0.0622
   66CHL1  H18C 7320   6.451   1.183   9.950  1.5854  0.7480  1.1255
   66CHL1   C12 7321   6.694   1.315   9.892  0.2642 -0.4484  0.5933
   66CHL1  H12A 7322   6.738   1.230   9.837  1.0015 -1.4011  2.5514
   66CHL1  H12B 7323   6.762   1.402   9.876 -1.2383  0.9220  1.2809
   66CHL1   C11 7324   6.697   1.270  10.039 -0.5342  0.4525 -0.2081
   66CHL1  H11A 7325   6.657   1.167  10.038  0.0346  0.2112  0.4942
   66CHL1  H11B 7326   6.805   1.264  10.064  0.1637  0.2392 -3.0074
   66CHL1    C9 7327   6.628   1.377  10.127  0.1650 -0.3253 -0.4726
   66CHL1    H9 7328   6.695   1.464  10.112  0.4513 -0.6547 -1.1541
   66CHL1   C10 7329   6.627   1.344  10.274  0.1550 -0.3406 -0.3387
   66CHL1   C19 7330   6.581   1.197  10.297 -1.1677 -0.4573 -0.6729
   66CHL1  H19A 7331   6.473   1.181  10.274 -1.4543  0.6169 -0.1710
   66CHL1  H19B 7332   6.648   1.125  10.246 -0.9451 -2.7512  2.6087
   66CHL1  H19C 7333   6.592   1.178  10.406  0.4929 -0.4806 -0.8205
   66CHL1    C1 7334   6.772   1.357  10.330  0.0456  0.2418  0.7310
   66CHL1   H1A 7335   6.827   1.272  10.284 -1.5788 -0.4535 -0.0097
   66CHL1   H1B 7336   6.810   1.456  10.296 -3.2224  1.5416  0.5568
   66CHL1    C2 7337   6.780   1.346  10.484  0.7728 -0.3208  0.1144
   66CHL1   H2A 7338   6.883   1.347  10.526  0.5520 -1.2672  0.7013
   66CHL1   H2B 7339   6.747   1.243  10.507  0.0500 -0.3373 -0.9564
   66CHL1   C20 7340   6.553   1.316   9.571 -0.2498 -0.3224  0.4710
   66CHL1   H20 7341   6.488   1.226   9.581 -0.2440 -0.4245 -0.2890
   66CHL1   C21 7342   6.702   1.264   9.548 -0.9533 -0.1769  0.0253
   66CHL1  H21A 7343   6.729   1.214   9.644 -0.5229 -1.3170 -0.6792
   66CHL1  H21B 7344   6.770   1.349   9.524 -1.2307 -0.5377 -2.2154
   66CHL1  H21C 7345   6.702   1.185   9.471 -0.1970 -1.8851  1.6952
   66CHL1   C22 7346   6.502   1.389   9.441 -0.0664  1.2134 -0.3576
   66CHL1  H22A 7347   6.399   1.430   9.456 -0.5552 -0.8064  2.8554
   66CHL1  H22B 7348   6.569   1.469   9.404  1.9705  0.3147  1.2411
   66CHL1   C23 7349   6.500   1.287   9.323 -0.1014  0.2922 -0.4728
   66CHL1  H23A 7350   6.604   1.267   9.291 -0.7354 -0.7075 -2.0029
   66CHL1  H23B 7351   6.460   1.187   9.348  0.9994 -0.2339 -0.7537
   66CHL1   C24 7352   6.431   1.353   9.205  0.1830 -0.1063  1.0392
   66CHL1  H24A 7353   6.330   1.358   9.252 -0.1329  1.6491  0.2490
   66CHL1  H24B 7354   6.473   1.455   9.205  1.2449 -0.4534  3.6697
   66CHL1   C25 7355   6.433   1.275   9.073 -0.3620 -0.0328 -1.0118
   66CHL1   H25 7356   6.529   1.280   9.017 -0.0913  0.7686 -0.4889
   66CHL1   C26 7357   6.410   1.124   9.094  0.6267  0.2405 -0.1107
   66CHL1  H26A 7358   6.329   1.111   9.169  0.1036 -0.5153 -0.7959
   66CHL1  H26B 7359   6.372   1.081   8.999  1.0450  1.9719 -1.1053
   66CHL1  H26C 7360   6.500   1.073   9.134  0.7451  1.4904  1.3117
   66CHL1   C27 7361   6.323   1.322   8.973  0.2210 -0.6255 -0.3595
   66CHL1  H27A 7362   6.337   1.275   8.873 -0.1874 -0.1363 -0.6523
   66CHL1  H27B 7363   6.225   1.300   9.022  0.1062 -1.3148 -0.8879
   66CHL1  H27C 7364   6.330   1.432   8.957 -0.6463 -0.4374  0.4525
   67CHL1    C3 7365   3.051   1.654  10.181  0.0262 -0.3703  0.1051
   67CHL1    H3 7366   2.984   1.567  10.161  2.1385 -2.0536 -0.0004
   67CHL1    O3 7367   3.065   1.660  10.320  0.9119 -0.1847  0.5553
   67CHL1   H3' 7368   3.107   1.743  10.346  1.4800 -0.8381  1.7828
   67CHL1    C4 7369   3.194   1.629  10.117  0.2859 -0.2655  0.1546
   67CHL1   H4A 7370   3.274   1.690  10.163 -0.8253  0.5050  1.1085
   67CHL1   H4B 7371   3.221   1.525  10.145  2.0300 -0.0552 -0.6016
   67CHL1    C5 7372   3.184   1.641   9.970  0.4146  0.3195  0.1951
   67CHL1    C6 7373   3.247   1.551   9.894 -0.3395 -0.2185 -0.5947
   67CHL1    H6 7374   3.292   1.459   9.933 -0.0343  0.6632  1.2107
   67CHL1    C7 7375   3.274   1.579   9.754 -0.1497 -0.2559 -0.4562
   67CHL1   H7A 7376   3.384   1.565   9.748  0.0963  0.9211  0.8724
   67CHL1   H7B 7377   3.227   1.497   9.696  2.6245 -2.4233  0.1030
   67CHL1    C8 7378   3.244   1.719   9.698 -0.1075 -0.0329 -0.1149
   67CHL1    H8 7379   3.324   1.790   9.726 -1.7381  1.8185  0.1035
   67CHL1   C14 7380   3.231   1.714   9.549  0.5804 -0.7765  0.3486
   67CHL1   H14 7381   3.137   1.661   9.522  1.3590 -1.3402 -1.3610
   67CHL1   C15 7382   3.344   1.654   9.464 -0.6905  0.3409 -0.3218
   67CHL1  H15A 7383   3.444   1.676   9.506 -0.8515 -0.4347  0.4969
   67CHL1  H15B 7384   3.328   1.544   9.477  1.0893  0.0529 -0.3443
   67CHL1   C16 7385   3.317   1.716   9.323 -0.2803  0.0998  0.8494
   67CHL1  H16A 7386   3.404   1.779   9.297  0.9812 -1.4689  1.1215
   67CHL1  H16B 7387   3.304   1.646   9.238 -0.4879  3.2308 -1.8834
   67CHL1   C17 7388   3.199   1.814   9.332 -0.7281 -0.3595  0.5994
   67CHL1   H17 7389   3.103   1.758   9.322  0.3063 -1.8611 -1.7753
   67CHL1   C13 7390   3.197   1.852   9.488 -0.3722  0.1006  0.7794
   67CHL1   C18 7391   3.313   1.955   9.514  0.5218  0.4336 -0.0766
   67CHL1  H18A 7392   3.413   1.920   9.481 -0.2219  0.4312 -2.5830
   67CHL1  H18B 7393   3.293   2.055   9.470  0.6990  0.3563 -0.3376
   67CHL1  H18C 7394   3.329   1.973   9.622  1.4048  3.4284 -0.6097
   67CHL1   C12 7395   3.062   1.903   9.544 -0.0951 -0.2425 -0.0535
   67CHL1  H12A 7396   3.037   2.007   9.514 -2.5332 -1.1032 -1.2829
   67CHL1  H12B 7397   2.987   1.833   9.502 -0.1890 -0.7367  0.8957
   67CHL1   C11 7398   3.052   1.900   9.698  0.3497  0.3241  0.4351
   67CHL1  H11A 7399   3.114   1.983   9.739  0.0955  0.2526  0.9700
   67CHL1  H11B 7400   2.950   1.917   9.737  0.2551  3.1617 -0.8130
   67CHL1    C9 7401   3.115   1.765   9.760 -0.5155 -0.0688 -0.6329
   67CHL1    H9 7402   3.033   1.691   9.743 -2.2459  1.3430  1.1024
   67CHL1   C10 7403   3.121   1.770   9.917  0.9831  0.4578 -0.3809
   67CHL1   C19 7404   3.213   1.887   9.962  0.2671 -0.4380 -0.2585
   67CHL1  H19A 7405   3.179   1.984   9.921 -0.3296 -0.5331  0.0029
   67CHL1  H19B 7406   3.213   1.887  10.074 -0.1374  0.3645 -0.2550
   67CHL1  H19C 7407   3.316   1.874   9.923  1.2238  1.8849  1.2035
   67CHL1    C1 7408   2.975   1.776   9.979 -0.1450 -0.4360  0.0697
   67CHL1   H1A 7409   2.937   1.877   9.953 -0.6069 -0.8470 -0.8891
   67CHL1   H1B 7410   2.902   1.705   9.934 -1.9315  2.1084 -1.2488
   67CHL1    C2 7411   2.975   1.770  10.128 -0.2877 -0.7042 -0.4624
   67CHL1   H2A 7412   2.874   1.762  10.175 -0.2432  0.7264 -0.0774
   67CHL1   H2B 7413   3.010   1.869  10.165 -0.0020  0.1080 -2.7108
   67CHL1   C20 7414   3.208   1.925   9.229  0.5224 -0.1503  0.5536
   67CHL1   H20 7415   3.309   1.967   9.247  1.5396 -1.7177 -1.1140
   67CHL1   C21 7416   3.095   2.026   9.255  0.0417  0.4250  0.6940
   67CHL1  H21A 7417   2.993   1.987   9.273 -0.4299  0.8550 -0.8470
   67CHL1  H21B 7418   3.094   2.084   9.160  0.2159 -3.7272 -2.0684
   67CHL1  H21C 7419   3.125   2.095   9.337 -0.6554  0.6161  0.7927
   67CHL1   C22 7420   3.197   1.876   9.081 -0.6845  0.3812 -0.7934
   67CHL1  H22A 7421   3.221   1.970   9.028  3.8485  0.3231  0.7161
   67CHL1  H22B 7422   3.282   1.806   9.065 -0.1480  1.0113 -0.7472
   67CHL1   C23 7423   3.064   1.802   9.045 -1.1691 -0.4209  0.3288
   67CHL1  H23A 7424   3.064   1.693   9.065 -0.4385 -0.1660  1.7993
   67CHL1  H23B 7425   2.978   1.850   9.097  0.3047  1.2861  1.2829
   67CHL1   C24 7426   3.034   1.806   8.894 -0.1700 -0.1705  0.1553
   67CHL1  H24A 7427   3.024   1.906   8.847 -1.9400 -0.3286  0.1033
   67CHL1  H24B 7428   3.115   1.759   8.835  0.5019 -1.8384  2.2810
   67CHL1   C25 7429   2.909   1.723   8.860 -0.2989 -0.8469  0.5604
   67CHL1   H25 7430   2.905   1.626   8.915 -1.1347 -1.1556 -0.0287
   67CHL1   C26 7431   2.781   1.793   8.913 -0.2679 -0.5901 -0.0871
   67CHL1  H26A 7432   2.778   1.886   8.852  1.4938 -2.2592 -2.9844
   67CHL1  H26B 7433   2.690   1.730   8.897 -0.0217 -0.3660 -2.9440
   67CHL1  H26C 7434   2.788   1.810   9.022 -1.6042  1.4677 -0.2566
   67CHL1   C27 7435   2.897   1.704   8.712  0.4507  0.4104 -0.2214
   67CHL1  H27A 7436   2.894   1.806   8.667  1.2939  1.1512  1.3015
   67CHL1  H27B 7437   2.991   1.664   8.668  0.5393  0.6559 -0.2553
   67CHL1  H27C 7438   2.806   1.651   8.678  0.4196  0.2234  0.1476
   68CHL1    C3 7439   1.068   2.740  10.353 -0.4662 -0.0918 -0.0361
   68CHL1    H3 7440   1.002   2.828  10.331 -1.0596 -0.1802  1.3104
   68CHL1    O3 7441   1.067   2.723  10.497  0.4198 -0.5131  0.2823
   68CHL1   H3' 7442   1.126   2.648  10.504  0.8470 -0.4750 -1.9820
   68CHL1    C4 7443   1.021   2.614  10.288 -0.0712 -0.3051  0.0486
   68CHL1   H4A 7444   1.078   2.527  10.326  1.1372  0.5366  0.2278
   68CHL1   H4B 7445   0.916   2.597  10.320 -0.4511  1.1925 -0.3262
   68CHL1    C5 7446   1.041   2.618  10.137  1.1775  0.0152 -0.2063
   68CHL1    C6 7447   0.932   2.627  10.062 -0.4119  1.0030  0.3129
   68CHL1    H6 7448   0.830   2.627  10.105 -1.3333  0.2589 -1.7218
   68CHL1    C7 7449   0.931   2.637   9.912  0.0957  0.5116  0.7793
   68CHL1   H7A 7450   0.856   2.566   9.873  1.0008  0.5058 -1.0553
   68CHL1   H7B 7451   0.903   2.740   9.881  3.5036  1.4766  0.4559
   68CHL1    C8 7452   1.073   2.611   9.854 -0.4021  0.8308  0.7093
   68CHL1    H8 7453   1.096   2.504   9.871 -0.0027  1.1222  2.0709
   68CHL1   C14 7454   1.086   2.660   9.706  0.0734 -0.3863  0.0229
   68CHL1   H14 7455   1.078   2.770   9.718  2.8366 -0.0954 -0.2926
   68CHL1   C15 7456   0.973   2.626   9.602  0.0775  0.2813  0.4521
   68CHL1  H15A 7457   0.947   2.518   9.613 -2.1442  0.5979 -1.1569
   68CHL1  H15B 7458   0.882   2.684   9.629 -1.0689 -1.7641  1.2084
   68CHL1   C16 7459   1.033   2.652   9.464  0.5567  0.4742 -0.4084
   68CHL1  H16A 7460   1.016   2.562   9.400 -1.5038  0.3840  0.1935
   68CHL1  H16B 7461   0.987   2.739   9.413  0.6868  1.8793  1.7331
   68CHL1   C17 7462   1.180   2.684   9.484  0.6827  0.3544 -0.0205
   68CHL1   H17 7463   1.185   2.795   9.492  0.9569  0.2447  1.6071
   68CHL1   C13 7464   1.218   2.631   9.632 -0.2296 -0.6587  0.6144
   68CHL1   C18 7465   1.232   2.477   9.618 -0.3538  0.8665  0.0874
   68CHL1  H18A 7466   1.338   2.454   9.593 -0.3860  1.0700 -0.2457
   68CHL1  H18B 7467   1.202   2.435   9.716 -3.8365 -0.1443 -1.2623
   68CHL1  H18C 7468   1.163   2.430   9.545  0.8429  1.3951 -1.4538
   68CHL1   C12 7469   1.330   2.701   9.712 -0.3317 -0.2621 -0.1099
   68CHL1  H12A 7470   1.434   2.683   9.677 -0.9059  0.1284 -2.1303
   68CHL1  H12B 7471   1.319   2.812   9.714 -1.1231 -0.3243 -0.7224
   68CHL1   C11 7472   1.319   2.657   9.861  0.4108 -0.4638  0.7386
   68CHL1  H11A 7473   1.334   2.548   9.871  0.7810 -0.3337  1.7721
   68CHL1  H11B 7474   1.400   2.710   9.917  0.0325 -1.5154  2.3559
   68CHL1    C9 7475   1.182   2.686   9.927  0.1345  0.6482  0.0896
   68CHL1    H9 7476   1.168   2.796   9.918  2.0487  1.0353  1.0997
   68CHL1   C10 7477   1.182   2.649  10.079  0.5858  0.3510  0.4355
   68CHL1   C19 7478   1.269   2.529  10.111  0.4137  0.6167  0.2564
   68CHL1  H19A 7479   1.374   2.546  10.079  0.0643 -1.4683 -2.3264
   68CHL1  H19B 7480   1.267   2.494  10.216  0.9287 -2.3616 -0.6344
   68CHL1  H19C 7481   1.233   2.437  10.060 -0.1546 -1.4587  3.9974
   68CHL1    C1 7482   1.230   2.774  10.152 -0.8007  0.1850  0.0013
   68CHL1   H1A 7483   1.336   2.786  10.120 -1.2237 -1.5360 -2.2438
   68CHL1   H1B 7484   1.173   2.860  10.111  1.0151  1.5064  0.1043
   68CHL1    C2 7485   1.215   2.774  10.308  0.4241  0.0778 -0.7285
   68CHL1   H2A 7486   1.226   2.874  10.355 -1.0710 -0.2175  0.3177
   68CHL1   H2B 7487   1.285   2.706  10.361 -2.2339 -1.0593  1.6337
   68CHL1   C20 7488   1.266   2.643   9.363 -0.6833  0.6064 -0.0979
   68CHL1   H20 7489   1.258   2.532   9.356  0.7443  0.4211  0.7532
   68CHL1   C21 7490   1.413   2.672   9.395 -0.5188  0.3304  0.1541
   68CHL1  H21A 7491   1.451   2.608   9.477 -0.9978 -0.5470 -0.2924
   68CHL1  H21B 7492   1.423   2.774   9.438  1.2337  0.0045  0.5937
   68CHL1  H21C 7493   1.479   2.666   9.306 -3.0294  0.3239 -1.8338
   68CHL1   C22 7494   1.218   2.693   9.232 -0.6422  0.3336 -0.0120
   68CHL1  H22A 7495   1.109   2.686   9.217 -0.4842 -0.2339 -0.9832
   68CHL1  H22B 7496   1.251   2.799   9.234 -0.5183  0.3571 -1.8882
   68CHL1   C23 7497   1.292   2.633   9.115  0.9219  0.0795 -0.5265
   68CHL1  H23A 7498   1.402   2.624   9.125  0.7553 -0.5984  0.9379
   68CHL1  H23B 7499   1.251   2.530   9.111  1.4265 -0.3105  2.4367
   68CHL1   C24 7500   1.266   2.706   8.975 -0.6135 -0.3836 -0.1287
   68CHL1  H24A 7501   1.162   2.691   8.940 -1.4829  2.0097  1.1774
   68CHL1  H24B 7502   1.279   2.812   9.006  1.6337 -0.9595  1.1334
   68CHL1   C25 7503   1.368   2.669   8.864 -0.0037 -0.3580 -0.4110
   68CHL1   H25 7504   1.469   2.692   8.902  0.4097 -0.7666 -1.2450
   68CHL1   C26 7505   1.365   2.519   8.849 -0.7321 -0.0070  0.6691
   68CHL1  H26A 7506   1.404   2.469   8.940  1.0240  0.6121  0.2988
   68CHL1  H26B 7507   1.261   2.489   8.824 -0.2285 -0.5120 -0.9984
   68CHL1  H26C 7508   1.426   2.490   8.760 -0.9871 -0.3896  0.6161
   68CHL1   C27 7509   1.342   2.752   8.736  0.0258 -0.8150 -0.9650
   68CHL1  H27A 7510   1.343   2.861   8.761  3.4850 -0.4333 -2.1851
   68CHL1  H27B 7511   1.426   2.738   8.666 -0.0566 -0.0762 -1.2278
   68CHL1  H27C 7512   1.246   2.725   8.686 -0.5423  0.3332 -0.5329
   69CHL1    C3 7513   0.861   6.454   6.932 -0.1638 -0.5360  0.4527
   69CHL1    H3 7514   0.780   6.531   6.934 -0.6398 -0.9264 -1.7100
   69CHL1    O3 7515   0.870   6.404   6.799  0.4919  0.1265 -0.1364
   69CHL1   H3' 7516   0.790   6.352   6.785  0.6211 -0.0237 -0.3295
   69CHL1    C4 7517   0.997   6.512   6.970  0.2193  0.1813 -0.5356
   69CHL1   H4A 7518   1.076   6.435   6.952  0.6622  0.4562  0.2022
   69CHL1   H4B 7519   1.013   6.592   6.894  1.0624  1.0255  0.5074
   69CHL1    C5 7520   1.009   6.554   7.117  0.1810  0.3103  0.4699
   69CHL1    C6 7521   1.057   6.675   7.157  0.5398 -0.2621 -0.2103
   69CHL1    H6 7522   1.089   6.752   7.085  0.4061  0.5043  0.5256
   69CHL1    C7 7523   1.076   6.697   7.308  1.0739  0.7027  0.5992
   69CHL1   H7A 7524   1.176   6.744   7.320  1.1571  0.1624  2.4770
   69CHL1   H7B 7525   1.006   6.779   7.336 -0.3584 -0.1047 -0.5130
   69CHL1    C8 7526   1.084   6.573   7.403 -0.0556 -0.4050  0.5351
   69CHL1    H8 7527   1.176   6.515   7.381 -0.6530 -0.7307 -1.2544
   69CHL1   C14 7528   1.073   6.626   7.549 -0.3230 -0.3505 -0.0195
   69CHL1   H14 7529   0.988   6.697   7.544  1.8961  2.4150 -1.3349
   69CHL1   C15 7530   1.183   6.716   7.613  0.4026  0.9001 -0.0556
   69CHL1  H15A 7531   1.274   6.660   7.583 -0.4022  0.0854 -1.0599
   69CHL1  H15B 7532   1.195   6.824   7.591  3.9402  0.6209 -0.1026
   69CHL1   C16 7533   1.162   6.697   7.766  0.0576 -0.9861 -0.1389
   69CHL1  H16A 7534   1.261   6.657   7.795  0.9573 -0.7292 -2.6321
   69CHL1  H16B 7535   1.150   6.798   7.812  1.1457  0.3374 -2.5545
   69CHL1   C17 7536   1.054   6.593   7.786 -0.1637 -0.1115  0.4499
   69CHL1   H17 7537   0.963   6.656   7.790 -0.4328 -0.5512  1.8852
   69CHL1   C13 7538   1.050   6.517   7.650 -0.3168  0.2123 -0.0303
   69CHL1   C18 7539   1.164   6.410   7.640  0.0367  0.0469 -0.1670
   69CHL1  H18A 7540   1.121   6.320   7.690  2.6324 -0.9233  0.4976
   69CHL1  H18B 7541   1.183   6.374   7.536  0.6147 -0.1622  0.0021
   69CHL1  H18C 7542   1.261   6.453   7.675 -0.4931  0.2581  1.0973
   69CHL1   C12 7543   0.916   6.447   7.625  0.4991 -0.1820 -0.0371
   69CHL1  H12A 7544   0.900   6.367   7.701  1.0514 -0.9033 -0.6565
   69CHL1  H12B 7545   0.829   6.515   7.623 -1.2663 -2.1521  2.7482
   69CHL1   C11 7546   0.917   6.380   7.482  0.6303  0.2145  0.3564
   69CHL1  H11A 7547   0.982   6.290   7.482 -0.3522 -0.5378  2.1208
   69CHL1  H11B 7548   0.814   6.341   7.464  0.2611 -0.3714  3.2994
   69CHL1    C9 7549   0.951   6.490   7.373 -0.1236 -0.1910 -0.1904
   69CHL1    H9 7550   0.868   6.563   7.385  0.5710  0.7513 -0.8989
   69CHL1   C10 7551   0.964   6.444   7.227 -0.0250  0.2533  0.0072
   69CHL1   C19 7552   1.061   6.327   7.226 -0.0713  0.6721 -0.2841
   69CHL1  H19A 7553   1.006   6.237   7.262  1.4038 -0.4074 -0.6248
   69CHL1  H19B 7554   1.098   6.292   7.127 -0.8527 -0.1717 -0.2943
   69CHL1  H19C 7555   1.149   6.337   7.293  1.7535  2.0056 -2.7023
   69CHL1    C1 7556   0.829   6.385   7.165 -0.4812 -0.5369 -0.0593
   69CHL1   H1A 7557   0.801   6.304   7.236 -1.6716  0.2859  0.4484
   69CHL1   H1B 7558   0.751   6.465   7.166  0.0921  0.1559 -2.8068
   69CHL1    C2 7559   0.823   6.336   7.023  0.2498 -0.3409 -0.2405
   69CHL1   H2A 7560   0.721   6.297   7.002  0.0692  0.2957 -0.6134
   69CHL1   H2B 7561   0.903   6.260   7.014  2.2828  1.5198  1.0817
   69CHL1   C20 7562   1.056   6.520   7.920  0.5342 -0.6705  0.5311
   69CHL1   H20 7563   1.117   6.429   7.904  0.1991 -0.9554  0.8657
   69CHL1   C21 7564   0.912   6.482   7.962 -0.0584 -0.8229 -1.0011
   69CHL1  H21A 7565   0.867   6.577   7.998  0.9968 -0.5795 -0.2765
   69CHL1  H21B 7566   0.904   6.417   8.052  0.2472  0.4825 -0.0003
   69CHL1  H21C 7567   0.854   6.439   7.877  0.4216 -0.8287 -1.3262
   69CHL1   C22 7568   1.125   6.598   8.026  0.7970  0.0416 -0.3665
   69CHL1  H22A 7569   1.215   6.649   7.986  0.5739  0.6320 -0.1285
   69CHL1  H22B 7570   1.072   6.693   8.051 -1.6688 -1.1358 -0.7994
   69CHL1   C23 7571   1.161   6.526   8.149  0.0946  0.3369 -0.4583
   69CHL1  H23A 7572   1.063   6.512   8.202 -1.1176 -1.2545 -2.9446
   69CHL1  H23B 7573   1.215   6.430   8.134  1.5931  0.5811  2.6293
   69CHL1   C24 7574   1.252   6.614   8.244  0.4368 -0.6715  0.4753
   69CHL1  H24A 7575   1.336   6.642   8.177 -2.2285  2.4550 -1.9066
   69CHL1  H24B 7576   1.186   6.696   8.282 -2.5662 -3.9398  3.0139
   69CHL1   C25 7577   1.306   6.540   8.360 -0.3426 -0.8463 -0.5996
   69CHL1   H25 7578   1.236   6.471   8.412  2.5205 -2.6911  1.0745
   69CHL1   C26 7579   1.421   6.449   8.318 -0.2893  0.2731  0.5654
   69CHL1  H26A 7580   1.477   6.410   8.406 -2.2767  1.2286  2.3589
   69CHL1  H26B 7581   1.393   6.355   8.267 -0.5534 -0.7791  2.5617
   69CHL1  H26C 7582   1.494   6.512   8.262 -1.7289  0.5840 -1.0307
   69CHL1   C27 7583   1.349   6.645   8.466  1.0172  0.7794 -0.5411
   69CHL1  H27A 7584   1.261   6.712   8.481  0.3230  0.2230 -1.9364
   69CHL1  H27B 7585   1.374   6.594   8.561  0.5897 -1.8564 -1.7295
   69CHL1  H27C 7586   1.429   6.705   8.420  1.9644  0.9338  1.2218
   70CHL1    C3 7587   0.349   3.628   7.033 -0.4071  1.0045  1.0050
   70CHL1    H3 7588   0.282   3.717   7.034 -0.6405  0.8922 -1.0941
   70CHL1    O3 7589   0.375   3.587   6.901  0.3137 -0.1401  0.2445
   70CHL1   H3' 7590   0.468   3.562   6.901  0.4601  0.1313  3.2063
   70CHL1    C4 7591   0.481   3.676   7.094 -0.3503 -0.1823  0.9779
   70CHL1   H4A 7592   0.570   3.613   7.073 -1.0134 -0.1078 -2.7468
   70CHL1   H4B 7593   0.497   3.768   7.033 -2.9819 -2.0248 -2.9402
   70CHL1    C5 7594   0.480   3.714   7.240  0.1206 -0.3376  0.0963
   70CHL1    C6 7595   0.534   3.824   7.293 -1.0615  0.6473 -0.3087
   70CHL1    H6 7596   0.585   3.904   7.237 -0.0097 -0.7998 -1.4622
   70CHL1    C7 7597   0.524   3.857   7.432  0.2826 -0.0301 -0.3072
   70CHL1   H7A 7598   0.596   3.927   7.480  0.3259 -0.2622 -0.0305
   70CHL1   H7B 7599   0.439   3.927   7.427  1.2862  1.5104  2.0894
   70CHL1    C8 7600   0.480   3.739   7.532  0.4220  0.7678  0.5996
   70CHL1    H8 7601   0.575   3.685   7.551  0.0438  0.7891  2.8233
   70CHL1   C14 7602   0.429   3.789   7.662 -0.3112 -0.3689  0.3312
   70CHL1   H14 7603   0.336   3.838   7.626 -0.2495 -1.6702 -1.7709
   70CHL1   C15 7604   0.511   3.906   7.719  0.1126  0.9286  0.3799
   70CHL1  H15A 7605   0.619   3.882   7.712 -0.1756 -0.2588 -0.1741
   70CHL1  H15B 7606   0.485   3.997   7.661 -0.3295 -0.0671 -1.0402
   70CHL1   C16 7607   0.463   3.898   7.871 -0.1738 -0.2625 -0.6965
   70CHL1  H16A 7608   0.546   3.881   7.943 -3.0990 -0.4098  2.9237
   70CHL1  H16B 7609   0.422   3.992   7.911 -0.1947 -1.1824  1.5582
   70CHL1   C17 7610   0.357   3.783   7.872 -0.1025  0.1805  0.1647
   70CHL1   H17 7611   0.260   3.830   7.846 -1.2988 -2.4140 -0.3910
   70CHL1   C13 7612   0.396   3.684   7.765 -0.0729 -0.3785 -0.4873
   70CHL1   C18 7613   0.527   3.609   7.804 -0.2811  0.7744  0.0448
   70CHL1  H18A 7614   0.611   3.673   7.840 -0.5201 -0.1801  2.5449
   70CHL1  H18B 7615   0.490   3.542   7.885  1.9260 -0.5818  0.0270
   70CHL1  H18C 7616   0.569   3.545   7.724 -1.1250  1.6413 -1.1109
   70CHL1   C12 7617   0.292   3.582   7.709  0.2742  0.2120 -0.0417
   70CHL1  H12A 7618   0.282   3.492   7.773 -1.0033 -0.0004 -0.4999
   70CHL1  H12B 7619   0.194   3.633   7.713 -0.0671 -0.5034  1.1287
   70CHL1   C11 7620   0.333   3.529   7.569 -0.4876  0.2804 -0.5158
   70CHL1  H11A 7621   0.418   3.458   7.583 -1.5392 -0.6228  1.9028
   70CHL1  H11B 7622   0.249   3.466   7.532 -1.3107  0.2430  1.2987
   70CHL1    C9 7623   0.379   3.643   7.469  1.3065 -0.0635  0.3023
   70CHL1    H9 7624   0.288   3.708   7.465  1.8345  0.7338  0.9255
   70CHL1   C10 7625   0.408   3.597   7.331 -0.1195 -0.2385 -0.1100
   70CHL1   C19 7626   0.513   3.486   7.345 -0.1910 -0.3484 -0.1138
   70CHL1  H19A 7627   0.546   3.462   7.241  0.6138  0.5014 -0.0648
   70CHL1  H19B 7628   0.602   3.523   7.400 -0.8773  0.5426  0.4232
   70CHL1  H19C 7629   0.470   3.402   7.403 -2.4462  1.3630  0.8340
   70CHL1    C1 7630   0.275   3.554   7.257  0.0590 -0.1863 -0.6092
   70CHL1   H1A 7631   0.243   3.462   7.310  1.2678 -0.6487 -0.6334
   70CHL1   H1B 7632   0.200   3.633   7.276 -0.9617 -1.2917  0.1241
   70CHL1    C2 7633   0.284   3.518   7.109 -0.3986 -0.0559  0.0706
   70CHL1   H2A 7634   0.183   3.486   7.076 -0.1846 -0.5705 -0.0971
   70CHL1   H2B 7635   0.342   3.423   7.100 -0.0061  0.3494 -2.3355
   70CHL1   C20 7636   0.335   3.730   8.013  0.6294  0.1628 -0.3304
   70CHL1   H20 7637   0.436   3.709   8.054  0.1786  0.8170  1.1846
   70CHL1   C21 7638   0.238   3.615   8.006  0.4266 -0.4259 -0.4206
   70CHL1  H21A 7639   0.190   3.600   8.105  2.8628 -3.4982  0.4531
   70CHL1  H21B 7640   0.287   3.519   7.980  1.7183  0.3832 -1.0783
   70CHL1  H21C 7641   0.153   3.636   7.938  1.5605  0.8283 -1.5147
   70CHL1   C22 7642   0.280   3.838   8.111 -0.1876  0.5345 -0.4530
   70CHL1  H22A 7643   0.299   3.942   8.075  1.5929  0.5674  0.5046
   70CHL1  H22B 7644   0.169   3.832   8.118 -0.1606  0.6590  0.0875
   70CHL1   C23 7645   0.327   3.814   8.255 -0.2604  0.8245 -0.0846
   70CHL1  H23A 7646   0.288   3.711   8.273  1.4733  0.1910  0.2770
   70CHL1  H23B 7647   0.436   3.791   8.251 -0.4097  0.2634 -1.6670
   70CHL1   C24 7648   0.297   3.921   8.351  0.3798 -0.2282 -0.0652
   70CHL1  H24A 7649   0.373   4.001   8.358  0.3474 -0.2918  1.4452
   70CHL1  H24B 7650   0.203   3.971   8.319 -0.5233 -0.2005  2.3653
   70CHL1   C25 7651   0.277   3.875   8.499  0.4137 -0.9286 -0.1125
   70CHL1   H25 7652   0.242   3.967   8.551  1.2170  0.0118 -1.1896
   70CHL1   C26 7653   0.170   3.768   8.507  0.0935  0.5538 -0.0098
   70CHL1  H26A 7654   0.211   3.666   8.498 -1.8078 -0.6061  3.0532
   70CHL1  H26B 7655   0.122   3.785   8.605  1.3315  3.1665  0.2433
   70CHL1  H26C 7656   0.089   3.780   8.431  1.2190 -0.6384 -1.4532
   70CHL1   C27 7657   0.414   3.835   8.567 -0.4576  0.0062 -0.2947
   70CHL1  H27A 7658   0.403   3.806   8.674  0.9853 -2.0062 -0.6356
   70CHL1  H27B 7659   0.450   3.745   8.512 -2.0124 -0.2008 -1.0197
   70CHL1  H27C 7660   0.484   3.920   8.550 -1.1033  0.3807 -1.1146
   71CHL1    C3 7661   6.102   6.048   6.849 -0.8646  0.1114 -0.5352
   71CHL1    H3 7662   6.090   6.156   6.873  1.8361  0.4981 -0.6482
   71CHL1    O3 7663   6.091   6.025   6.707 -0.0269  0.1219 -0.2197
   71CHL1   H3' 7664   6.093   5.930   6.695 -1.5182  0.1078 -0.5970
   71CHL1    C4 7665   6.244   6.004   6.898  0.3188 -0.2490  0.3300
   71CHL1   H4A 7666   6.250   5.895   6.877 -0.0373  0.0719 -1.6418
   71CHL1   H4B 7667   6.317   6.070   6.848 -0.2356 -0.7241 -1.1432
   71CHL1    C5 7668   6.253   6.024   7.047 -0.6971  0.0375 -0.1549
   71CHL1    C6 7669   6.349   6.100   7.097 -0.2209  0.2556  1.2133
   71CHL1    H6 7670   6.432   6.142   7.039 -0.5707 -0.5129  0.1292
   71CHL1    C7 7671   6.369   6.130   7.243 -0.0001  0.0954 -0.1643
   71CHL1   H7A 7672   6.473   6.142   7.281 -0.4568  5.1877  0.2427
   71CHL1   H7B 7673   6.333   6.234   7.262  0.4226  0.2743 -0.3276
   71CHL1    C8 7674   6.286   6.030   7.329  0.0718 -0.1373  0.5983
   71CHL1    H8 7675   6.322   5.926   7.312 -1.0349 -0.7739  1.9282
   71CHL1   C14 7676   6.291   6.071   7.480 -0.0517  0.0449 -0.0853
   71CHL1   H14 7677   6.233   6.166   7.485 -0.8646 -0.3896 -0.9326
   71CHL1   C15 7678   6.423   6.091   7.547 -0.3980  0.0415  1.0739
   71CHL1  H15A 7679   6.489   6.011   7.508  0.1493 -0.7990  3.5437
   71CHL1  H15B 7680   6.476   6.187   7.532 -0.9493  0.2011  0.1042
   71CHL1   C16 7681   6.388   6.079   7.696  0.4664  0.2629 -0.0237
   71CHL1  H16A 7682   6.450   5.998   7.739 -1.0143 -0.4360  0.8646
   71CHL1  H16B 7683   6.408   6.173   7.752  0.3863  0.1475  0.1982
   71CHL1   C17 7684   6.230   6.048   7.705 -0.6316 -0.0501  0.0125
   71CHL1   H17 7685   6.176   6.144   7.705 -2.5283 -1.0633 -0.6659
   71CHL1   C13 7686   6.200   5.981   7.570  0.1528 -0.9121 -0.3283
   71CHL1   C18 7687   6.258   5.843   7.568  0.4108  0.7469  0.4620
   71CHL1  H18A 7688   6.260   5.798   7.466  0.8340 -0.1464  0.8500
   71CHL1  H18B 7689   6.359   5.821   7.609  0.9710 -0.1588 -1.2906
   71CHL1  H18C 7690   6.181   5.783   7.622 -2.1547  4.1675  0.9105
   71CHL1   C12 7691   6.053   5.984   7.518 -0.1734  0.0133 -1.3987
   71CHL1  H12A 7692   5.987   5.920   7.580  0.8492 -0.0896 -0.3662
   71CHL1  H12B 7693   6.011   6.086   7.521  0.6030  0.3734 -2.2053
   71CHL1   C11 7694   6.051   5.929   7.374  0.0417 -0.1283 -0.4338
   71CHL1  H11A 7695   6.079   5.821   7.383 -0.9710 -0.3275  0.4544
   71CHL1  H11B 7696   5.948   5.936   7.335 -0.2856  0.5187  0.5247
   71CHL1    C9 7697   6.144   6.015   7.282 -0.5069  0.4553  0.1414
   71CHL1    H9 7698   6.103   6.116   7.265  0.1512  0.5834 -0.7804
   71CHL1   C10 7699   6.136   5.968   7.136  0.2061 -0.6365 -0.5790
   71CHL1   C19 7700   6.153   5.817   7.128 -0.8024  0.3875 -0.4665
   71CHL1  H19A 7701   6.180   5.784   7.025  1.2382 -0.3448  0.2587
   71CHL1  H19B 7702   6.243   5.779   7.181  0.3853 -4.0203 -4.8781
   71CHL1  H19C 7703   6.054   5.779   7.161  1.1579 -1.3592  4.3499
   71CHL1    C1 7704   5.998   6.004   7.072 -0.3110  0.2750 -0.5611
   71CHL1   H1A 7705   5.907   5.964   7.121  1.1430 -0.7518  1.4866
   71CHL1   H1B 7706   5.987   6.113   7.091 -1.0175 -0.0728  1.2534
   71CHL1    C2 7707   5.992   5.969   6.925 -0.4374  0.2283 -0.3438
   71CHL1   H2A 7708   5.899   5.994   6.868 -0.6620 -0.7694 -0.4285
   71CHL1   H2B 7709   6.004   5.860   6.911  1.2924  0.6257 -2.5403
   71CHL1   C20 7710   6.207   5.978   7.842  0.8782  0.2950  0.8468
   71CHL1   H20 7711   6.272   5.888   7.847  0.3872 -0.5465 -3.7711
   71CHL1   C21 7712   6.064   5.916   7.847  0.3918  0.0196 -0.0152
   71CHL1  H21A 7713   6.041   5.857   7.938 -0.6538  1.0546  0.4183
   71CHL1  H21B 7714   6.040   5.861   7.753 -0.5669  1.9903 -0.9786
   71CHL1  H21C 7715   5.978   5.986   7.847 -0.5311 -1.0823  1.2292
   71CHL1   C22 7716   6.224   6.088   7.945  0.4319 -0.0596  0.4769
   71CHL1  H22A 7717   6.328   6.128   7.938  0.2699  0.7021  2.0680
   71CHL1  H22B 7718   6.148   6.168   7.931 -1.3202 -1.7729 -0.2117
   71CHL1   C23 7719   6.211   6.043   8.091 -0.1274  0.4154 -0.0492
   71CHL1  H23A 7720   6.104   6.018   8.108 -0.2211  0.8218 -0.0283
   71CHL1  H23B 7721   6.281   5.958   8.106  0.5435  1.1715  1.2771
   71CHL1   C24 7722   6.241   6.156   8.196  0.6492 -0.3860 -0.6585
   71CHL1  H24A 7723   6.350   6.179   8.195  0.6611 -0.4582 -1.1811
   71CHL1  H24B 7724   6.190   6.251   8.168 -1.1213 -0.8977  0.6469
   71CHL1   C25 7725   6.192   6.113   8.336  0.0853  0.2534 -0.1288
   71CHL1   H25 7726   6.090   6.069   8.330  0.7308 -1.3957  0.5727
   71CHL1   C26 7727   6.274   5.996   8.397 -0.1486  0.5599  0.5016
   71CHL1  H26A 7728   6.282   5.923   8.314 -0.7665  1.2028 -0.1496
   71CHL1  H26B 7729   6.372   6.038   8.427 -0.9524  2.0500  1.1587
   71CHL1  H26C 7730   6.218   5.945   8.478  0.6816 -0.5313  0.4072
   71CHL1   C27 7731   6.178   6.233   8.431  0.4146  0.3381 -0.4943
   71CHL1  H27A 7732   6.109   6.204   8.513 -1.0432  2.5702 -0.8654
   71CHL1  H27B 7733   6.283   6.260   8.455 -0.0095 -0.4887  2.8008
   71CHL1  H27C 7734   6.121   6.317   8.388 -0.2917 -0.2260 -0.6813
   72CHL1    C3 7735   0.226   5.029   6.917  0.2125 -0.4983  0.2329
   72CHL1    H3 7736   0.138   5.089   6.888  1.3450  1.0114 -0.2092
   72CHL1    O3 7737   0.273   4.955   6.805  0.3254  0.0703 -0.9469
   72CHL1   H3' 7738   0.365   4.931   6.821 -0.6634 -2.0124  3.0573
   72CHL1    C4 7739   0.337   5.126   6.971 -0.1731  0.4273 -0.3498
   72CHL1   H4A 7740   0.435   5.075   6.985  0.1903  1.4535  1.0221
   72CHL1   H4B 7741   0.368   5.211   6.907  2.8144  0.5681  1.1435
   72CHL1    C5 7742   0.307   5.181   7.116 -0.0988  0.4329  0.0516
   72CHL1    C6 7743   0.305   5.313   7.150  0.2370 -0.4465 -0.3339
   72CHL1    H6 7744   0.322   5.391   7.074 -1.1570  0.3486  0.1238
   72CHL1    C7 7745   0.274   5.362   7.290 -0.4962  0.3391  0.5925
   72CHL1   H7A 7746   0.349   5.442   7.308  3.1052 -2.0161 -2.5056
   72CHL1   H7B 7747   0.173   5.408   7.292 -0.1462  1.4908 -2.5076
   72CHL1    C8 7748   0.294   5.252   7.394 -0.2892 -0.5125 -0.2136
   72CHL1    H8 7749   0.403   5.229   7.397 -0.4952 -1.5755 -0.3995
   72CHL1   C14 7750   0.233   5.312   7.524 -0.1841  0.3901 -0.1147
   72CHL1   H14 7751   0.123   5.312   7.508  0.1605 -0.8583 -3.1029
   72CHL1   C15 7752   0.280   5.452   7.579 -0.4234 -0.2262  0.1897
   72CHL1  H15A 7753   0.391   5.451   7.571 -0.4232  1.2307 -0.3234
   72CHL1  H15B 7754   0.242   5.532   7.512 -2.0888 -2.5651 -1.8053
   72CHL1   C16 7755   0.230   5.450   7.728  0.5020 -0.9633  0.1305
   72CHL1  H16A 7756   0.314   5.478   7.795  0.1984 -2.6631  1.2702
   72CHL1  H16B 7757   0.148   5.523   7.742  2.1405  0.8780  0.6095
   72CHL1   C17 7758   0.174   5.303   7.756 -0.3027  1.0607 -0.2613
   72CHL1   H17 7759   0.068   5.300   7.726  0.0420 -0.1902 -1.4860
   72CHL1   C13 7760   0.239   5.213   7.645 -0.2621  0.3978 -0.2297
   72CHL1   C18 7761   0.390   5.198   7.688 -0.2030 -0.4567 -0.3452
   72CHL1  H18A 7762   0.454   5.180   7.599 -2.3288 -1.7849 -1.7046
   72CHL1  H18B 7763   0.429   5.290   7.737  0.0759 -1.0694  0.6203
   72CHL1  H18C 7764   0.390   5.113   7.760 -0.4520 -0.9832 -0.9574
   72CHL1   C12 7765   0.170   5.079   7.608  0.2284  0.0036 -1.1019
   72CHL1  H12A 7766   0.197   5.009   7.689 -0.7938  1.3812  0.4851
   72CHL1  H12B 7767   0.061   5.100   7.606  0.2617  0.6360  1.3012
   72CHL1   C11 7768   0.220   5.025   7.478 -1.0114  1.0956  0.5439
   72CHL1  H11A 7769   0.323   4.994   7.506 -0.5696  1.2909 -0.7896
   72CHL1  H11B 7770   0.160   4.936   7.448  1.1140  0.9873 -4.3050
   72CHL1    C9 7771   0.229   5.125   7.354  0.3894 -0.7824 -0.9067
   72CHL1    H9 7772   0.122   5.148   7.336  0.6198 -0.5567 -2.0268
   72CHL1   C10 7773   0.279   5.064   7.218  0.0284 -0.4503  0.1016
   72CHL1   C19 7774   0.411   4.991   7.246  0.2564 -0.3371  0.5123
   72CHL1  H19A 7775   0.448   4.946   7.151 -0.3917  1.3929 -0.5908
   72CHL1  H19B 7776   0.490   5.062   7.279 -0.2380  0.0846  0.7930
   72CHL1  H19C 7777   0.398   4.912   7.323  0.6183 -0.2811  0.6339
   72CHL1    C1 7778   0.174   4.965   7.160  0.3364 -0.0338  0.2571
   72CHL1   H1A 7779   0.162   4.877   7.227 -0.6508 -0.4655 -0.4777
   72CHL1   H1B 7780   0.074   5.014   7.160 -0.6282 -1.9397  0.4862
   72CHL1    C2 7781   0.196   4.914   7.019 -0.1727 -0.1965 -0.4425
   72CHL1   H2A 7782   0.107   4.855   6.987  1.1099 -2.7465  0.3685
   72CHL1   H2B 7783   0.285   4.847   7.021 -0.4772 -0.6606 -1.4205
   72CHL1   C20 7784   0.189   5.261   7.903  0.0782  0.0260 -0.1256
   72CHL1   H20 7785   0.294   5.270   7.937 -0.0172  1.5127 -0.1480
   72CHL1   C21 7786   0.133   5.120   7.928 -0.1142 -0.4991  0.2038
   72CHL1  H21A 7787   0.032   5.110   7.882  0.8451  1.4508 -2.6086
   72CHL1  H21B 7788   0.120   5.075   8.029 -1.3772 -2.1145 -0.6375
   72CHL1  H21C 7789   0.200   5.046   7.880 -1.6897  0.1299 -3.2592
   72CHL1   C22 7790   0.116   5.366   7.990  0.7832 -0.2491  0.0362
   72CHL1  H22A 7791   0.171   5.463   7.992 -0.3010  0.4144  2.9699
   72CHL1  H22B 7792   0.022   5.379   7.932  0.9485 -3.0544 -1.0036
   72CHL1   C23 7793   0.079   5.324   8.135  0.0200  0.0618 -0.0535
   72CHL1  H23A 7794   0.010   5.238   8.137  1.5614 -1.2488 -1.0068
   72CHL1  H23B 7795   0.168   5.275   8.180 -0.5795 -1.4188 -0.4163
   72CHL1   C24 7796   0.027   5.443   8.220 -0.6025 -0.3228  0.3140
   72CHL1  H24A 7797   0.106   5.519   8.204  1.3922 -2.1132  1.1179
   72CHL1  H24B 7798  -0.067   5.479   8.172 -0.0964  0.8876  0.2070
   72CHL1   C25 7799  -0.005   5.409   8.366 -0.2637  0.5302  0.0722
   72CHL1   H25 7800  -0.090   5.339   8.376  1.1177 -1.0226  1.5565
   72CHL1   C26 7801   0.125   5.353   8.434  0.2908 -0.4240 -0.5019
   72CHL1  H26A 7802   0.109   5.357   8.544 -0.3619  0.5338 -0.6217
   72CHL1  H26B 7803   0.155   5.255   8.391  0.8261 -0.7736  0.6245
   72CHL1  H26C 7804   0.212   5.420   8.420 -2.0987  3.4441  1.4489
   72CHL1   C27 7805  -0.050   5.536   8.447  0.4032 -0.2745  0.3979
   72CHL1  H27A 7806  -0.140   5.574   8.394 -0.1229  0.3709  1.6940
   72CHL1  H27B 7807  -0.090   5.508   8.547 -1.9879  0.7879 -0.1717
   72CHL1  H27C 7808   0.025   5.618   8.455 -1.9346  1.9981  0.2606
   73CHL1    C3 7809   0.805   1.040   6.886 -1.0397 -0.0492 -0.0318
   73CHL1    H3 7810   0.900   1.006   6.932 -0.9773 -0.6552 -0.5950
   73CHL1    O3 7811   0.805   0.990   6.756  0.5869  0.3195  0.0460
   73CHL1   H3' 7812   0.773   0.900   6.764  1.0175  0.1622  0.0370
   73CHL1    C4 7813   0.683   0.994   6.957  0.5142 -0.0998  0.0187
   73CHL1   H4A 7814   0.589   0.995   6.898 -0.3859  0.1162  1.3914
   73CHL1   H4B 7815   0.689   0.883   6.967  0.1345 -0.1239  0.0007
   73CHL1    C5 7816   0.674   1.054   7.099 -0.1162  0.0738 -0.2422
   73CHL1    C6 7817   0.675   0.978   7.210  0.5613 -0.8369  0.4014
   73CHL1    H6 7818   0.682   0.868   7.203  0.4662 -0.7664 -1.1319
   73CHL1    C7 7819   0.646   1.044   7.344  0.2015 -0.2534 -0.4753
   73CHL1   H7A 7820   0.592   0.974   7.411  1.3126  0.1749  0.9361
   73CHL1   H7B 7821   0.735   1.049   7.411 -0.4646 -1.5649  0.5545
   73CHL1    C8 7822   0.587   1.190   7.343  0.0882 -0.5722  0.1565
   73CHL1    H8 7823   0.483   1.189   7.303  0.0586 -2.1598  0.2217
   73CHL1   C14 7824   0.596   1.245   7.490  0.1955 -0.8218 -0.4371
   73CHL1   H14 7825   0.701   1.219   7.515  0.5650  1.7365  1.0943
   73CHL1   C15 7826   0.514   1.174   7.591  0.3179 -0.6031 -0.1045
   73CHL1  H15A 7827   0.408   1.175   7.561  0.4404  1.5174 -0.5915
   73CHL1  H15B 7828   0.542   1.067   7.600 -1.4481 -1.1453 -0.7083
   73CHL1   C16 7829   0.530   1.267   7.714 -0.2048  0.2073  0.7274
   73CHL1  H16A 7830   0.435   1.282   7.770  0.4104 -1.0858  2.2113
   73CHL1  H16B 7831   0.600   1.220   7.786  1.2126  1.2127  0.0447
   73CHL1   C17 7832   0.594   1.403   7.661  0.5039 -0.6675  0.1584
   73CHL1   H17 7833   0.703   1.392   7.679  0.0171 -1.4877  3.0678
   73CHL1   C13 7834   0.572   1.394   7.507  0.4772 -0.1638  0.6295
   73CHL1   C18 7835   0.424   1.428   7.473  0.5393 -0.2678 -0.2839
   73CHL1  H18A 7836   0.347   1.384   7.540  0.0041 -0.4324 -1.0017
   73CHL1  H18B 7837   0.414   1.539   7.469  0.2547 -0.1813  1.8108
   73CHL1  H18C 7838   0.415   1.388   7.370  4.4642 -0.4942 -0.7027
   73CHL1   C12 7839   0.663   1.475   7.412 -0.0325 -0.3884 -0.1559
   73CHL1  H12A 7840   0.636   1.582   7.420 -0.6458 -0.6292  1.3646
   73CHL1  H12B 7841   0.768   1.463   7.448  0.4315 -3.6167 -2.1380
   73CHL1   C11 7842   0.655   1.429   7.266 -0.4566  0.0364 -0.0653
   73CHL1  H11A 7843   0.559   1.452   7.215 -0.2962  1.2691  0.1607
   73CHL1  H11B 7844   0.740   1.479   7.214  1.3633 -1.4770  1.3138
   73CHL1    C9 7845   0.674   1.273   7.250 -0.4855  0.1702  0.7797
   73CHL1    H9 7846   0.781   1.252   7.274 -0.0343 -0.0149 -1.2039
   73CHL1   C10 7847   0.668   1.210   7.107  0.1059 -0.7574 -0.3709
   73CHL1   C19 7848   0.539   1.260   7.042 -0.0026 -0.4201  0.4891
   73CHL1  H19A 7849   0.558   1.356   6.988  1.2804 -0.5646  0.6526
   73CHL1  H19B 7850   0.521   1.193   6.956 -2.0600  1.3099 -0.5171
   73CHL1  H19C 7851   0.446   1.262   7.103 -1.3306  2.3832 -1.4027
   73CHL1    C1 7852   0.789   1.258   7.023 -0.1900 -0.1216  0.2417
   73CHL1   H1A 7853   0.788   1.369   7.019 -3.2497 -0.0582  0.5273
   73CHL1   H1B 7854   0.879   1.229   7.080  0.5343 -2.2503 -1.8179
   73CHL1    C2 7855   0.804   1.197   6.885 -0.2042  0.1015 -1.2818
   73CHL1   H2A 7856   0.897   1.245   6.849  1.2865 -2.5082 -1.1638
   73CHL1   H2B 7857   0.713   1.227   6.830 -0.6990  2.0812  0.4870
   73CHL1   C20 7858   0.545   1.532   7.736  0.0523  0.4338  0.5588
   73CHL1   H20 7859   0.435   1.539   7.747  0.1897  2.2661  1.1719
   73CHL1   C21 7860   0.597   1.660   7.674  0.2434 -0.3399 -0.5746
   73CHL1  H21A 7861   0.542   1.673   7.578  2.5699  0.6872 -1.8734
   73CHL1  H21B 7862   0.707   1.665   7.660  0.3151 -3.3990 -1.9227
   73CHL1  H21C 7863   0.573   1.746   7.740  2.9628  0.3289 -0.3346
   73CHL1   C22 7864   0.582   1.534   7.886  0.1494  0.3323 -0.1350
   73CHL1  H22A 7865   0.534   1.621   7.936  0.8084  0.6160  0.0272
   73CHL1  H22B 7866   0.553   1.436   7.929  0.2431  0.4498  0.2010
   73CHL1   C23 7867   0.733   1.552   7.920  0.3735  0.3304  0.0672
   73CHL1  H23A 7868   0.794   1.464   7.889  1.4602  1.6190 -1.6963
   73CHL1  H23B 7869   0.773   1.639   7.864 -1.0006  1.0041  0.1035
   73CHL1   C24 7870   0.751   1.580   8.070  0.0541  0.6328 -0.8193
   73CHL1  H24A 7871   0.731   1.688   8.083 -0.9377  0.3029  0.5840
   73CHL1  H24B 7872   0.687   1.516   8.135  2.5724 -0.7799  0.4364
   73CHL1   C25 7873   0.896   1.541   8.116  0.1414  0.0776  0.2634
   73CHL1   H25 7874   0.906   1.575   8.221 -1.0006  0.0207  0.3968
   73CHL1   C26 7875   0.909   1.393   8.118  0.0175  0.0625 -0.4328
   73CHL1  H26A 7876   0.813   1.343   8.142  0.5362 -0.3852  0.7697
   73CHL1  H26B 7877   0.927   1.349   8.017 -0.9958  0.5060 -0.8204
   73CHL1  H26C 7878   0.989   1.357   8.187 -0.7902 -1.2734 -0.1665
   73CHL1   C27 7879   1.001   1.610   8.027 -0.0080 -0.0310  0.1031
   73CHL1  H27A 7880   1.008   1.560   7.928 -2.5335 -1.4486  0.5599
   73CHL1  H27B 7881   0.984   1.720   8.023 -1.8421 -0.3165 -1.5588
   73CHL1  H27C 7882   1.093   1.608   8.089 -0.1519  1.6282  0.4374
   74CHL1    C3 7883   5.131   5.872   6.922  0.3432 -0.5835  0.5486
   74CHL1    H3 7884   5.241   5.874   6.909  0.2883  4.2868 -1.2004
   74CHL1    O3 7885   5.078   5.853   6.792 -0.4574  0.1051  0.4316
   74CHL1   H3' 7886   4.982   5.858   6.797 -0.4474  0.8673  0.0640
   74CHL1    C4 7887   5.085   5.759   7.012  0.5060  0.4443 -0.0933
   74CHL1   H4A 7888   4.974   5.758   7.012  0.4146  1.6876  2.3812
   74CHL1   H4B 7889   5.110   5.656   6.980 -0.1925  0.1502  0.2787
   74CHL1    C5 7890   5.149   5.785   7.148  0.6667  0.2782  0.4513
   74CHL1    C6 7891   5.229   5.689   7.198  0.0844 -0.4523 -0.7887
   74CHL1    H6 7892   5.251   5.597   7.143 -1.7516 -0.4271 -1.6088
   74CHL1    C7 7893   5.275   5.711   7.341 -0.4476  0.6280  0.7521
   74CHL1   H7A 7894   5.277   5.611   7.389 -2.6151 -0.1178 -0.5358
   74CHL1   H7B 7895   5.382   5.738   7.353 -0.0883 -1.0607  1.7271
   74CHL1    C8 7896   5.197   5.821   7.421  0.5430  0.9914 -0.1613
   74CHL1    H8 7897   5.098   5.775   7.442  0.3400  0.1273 -2.6445
   74CHL1   C14 7898   5.256   5.832   7.559  0.0784 -0.2596 -0.0990
   74CHL1   H14 7899   5.358   5.872   7.538  0.2745  0.4399  1.9747
   74CHL1   C15 7900   5.283   5.705   7.642  0.0219  0.1320 -0.2543
   74CHL1  H15A 7901   5.192   5.642   7.633  0.6150 -1.0527  1.4055
   74CHL1  H15B 7902   5.371   5.643   7.613  0.8564  0.3913  1.6079
   74CHL1   C16 7903   5.309   5.758   7.784  0.1736  0.8741 -0.0931
   74CHL1  H16A 7904   5.223   5.724   7.846  1.3280  0.0130  1.1009
   74CHL1  H16B 7905   5.403   5.728   7.835  0.6440  0.3774 -1.2308
   74CHL1   C17 7906   5.292   5.916   7.779 -0.0548 -0.2560 -0.0184
   74CHL1   H17 7907   5.390   5.965   7.758 -0.7089  0.8411 -0.5741
   74CHL1   C13 7908   5.200   5.936   7.651 -0.1660  0.0818  0.6048
   74CHL1   C18 7909   5.052   5.899   7.678  0.2472 -0.5437 -0.7520
   74CHL1  H18A 7910   5.013   5.963   7.760 -0.9468  0.4825 -2.0852
   74CHL1  H18B 7911   4.986   5.901   7.589 -0.4117  0.9075 -0.2624
   74CHL1  H18C 7912   5.048   5.798   7.723  0.2661 -0.3913 -0.4033
   74CHL1   C12 7913   5.211   6.075   7.577  0.2894 -0.8621  0.0280
   74CHL1  H12A 7914   5.153   6.158   7.623  1.3162  1.8558 -3.1459
   74CHL1  H12B 7915   5.316   6.103   7.556  0.2961 -0.2517  0.8288
   74CHL1   C11 7916   5.154   6.071   7.434 -0.1075  0.4682  0.8270
   74CHL1  H11A 7917   5.046   6.069   7.460  0.2292 -1.5656  2.3577
   74CHL1  H11B 7918   5.183   6.161   7.377  1.2370  1.1453  2.4825
   74CHL1    C9 7919   5.190   5.947   7.346 -0.4163 -0.3747 -0.6461
   74CHL1    H9 7920   5.293   5.967   7.309 -0.8627  2.2697 -0.6314
   74CHL1   C10 7921   5.112   5.914   7.214  0.9087 -0.3666 -0.1794
   74CHL1   C19 7922   4.961   5.900   7.247 -0.1400 -0.1100 -0.0327
   74CHL1  H19A 7923   4.938   5.823   7.324 -1.2528 -1.2730 -1.4756
   74CHL1  H19B 7924   4.923   5.998   7.285 -1.4227 -1.4645  2.4637
   74CHL1  H19C 7925   4.892   5.874   7.164 -0.5088 -1.8770  0.7806
   74CHL1    C1 7926   5.140   6.033   7.111  0.1402 -0.0041 -0.1695
   74CHL1   H1A 7927   5.089   6.123   7.152  1.3495  0.1081  1.1493
   74CHL1   H1B 7928   5.250   6.043   7.117  0.0390  0.9032  0.3731
   74CHL1    C2 7929   5.088   6.009   6.969  0.2747 -1.0461 -0.0838
   74CHL1   H2A 7930   5.115   6.094   6.902  0.6225 -0.2742  0.9985
   74CHL1   H2B 7931   4.978   6.015   6.960  0.4855  0.0755 -2.9303
   74CHL1   C20 7932   5.252   5.977   7.911 -0.5965  0.3716 -0.7916
   74CHL1   H20 7933   5.153   5.938   7.944 -0.6724 -0.7835 -2.2741
   74CHL1   C21 7934   5.254   6.127   7.902 -0.2147  0.2065 -0.2892
   74CHL1  H21A 7935   5.355   6.156   7.864  1.1111 -2.8298  0.6231
   74CHL1  H21B 7936   5.237   6.186   7.995  1.3851 -0.9897  0.8136
   74CHL1  H21C 7937   5.185   6.156   7.820 -0.1944 -0.2318 -0.4615
   74CHL1   C22 7938   5.349   5.919   8.024  0.4643  0.5239 -0.0124
   74CHL1  H22A 7939   5.345   5.808   8.033 -1.7727  0.5825  0.3028
   74CHL1  H22B 7940   5.454   5.949   8.005  0.4138  1.5881  1.2222
   74CHL1   C23 7941   5.306   5.974   8.167  0.0611  0.4965  0.6443
   74CHL1  H23A 7942   5.316   6.084   8.161  0.2222  0.5084  1.0465
   74CHL1  H23B 7943   5.201   5.940   8.181 -0.0287  0.7282  0.5396
   74CHL1   C24 7944   5.393   5.914   8.276 -0.0084 -0.0151  0.0477
   74CHL1  H24A 7945   5.353   5.817   8.312  4.1508 -1.9544  0.0389
   74CHL1  H24B 7946   5.496   5.896   8.237  0.6476  0.5738  1.4517
   74CHL1   C25 7947   5.403   6.013   8.393 -0.0860 -0.0126  0.0005
   74CHL1   H25 7948   5.462   5.953   8.465  1.6452  0.0789 -1.2667
   74CHL1   C26 7949   5.493   6.135   8.357 -0.4830 -0.0344 -0.3969
   74CHL1  H26A 7950   5.447   6.209   8.288  2.2015  1.4086 -0.7426
   74CHL1  H26B 7951   5.496   6.192   8.453  0.2370  0.7784 -0.8942
   74CHL1  H26C 7952   5.594   6.108   8.321 -0.3017  0.6876 -0.4333
   74CHL1   C27 7953   5.265   6.059   8.448 -0.0057  0.4212  0.8532
   74CHL1  H27A 7954   5.286   6.120   8.539 -0.7854  1.0204  0.6387
   74CHL1  H27B 7955   5.212   6.131   8.382  0.1239 -0.3208 -0.0852
   74CHL1  H27C 7956   5.197   5.976   8.476  1.1405 -0.6276  0.5787
   75CHL1    C3 7957   1.886   0.692   6.746  0.5145  0.1408 -0.6943
   75CHL1    H3 7958   1.775   0.692   6.753  0.5857 -1.2802  1.2445
   75CHL1    O3 7959   1.916   0.739   6.621 -0.1910  0.7867  0.2363
   75CHL1   H3' 7960   1.915   0.669   6.555 -0.1300 -0.9916  2.0624
   75CHL1    C4 7961   1.948   0.780   6.856 -0.0725  0.1013 -0.4000
   75CHL1   H4A 7962   2.054   0.771   6.824 -0.1798  1.6701 -1.2720
   75CHL1   H4B 7963   1.908   0.883   6.844  1.8231  1.0004  0.5389
   75CHL1    C5 7964   1.937   0.723   6.994 -0.2708 -0.7074 -0.0059
   75CHL1    C6 7965   1.882   0.801   7.085  0.8815 -0.5085  0.2625
   75CHL1    H6 7966   1.851   0.904   7.058 -0.9327 -1.1111 -0.1225
   75CHL1    C7 7967   1.860   0.762   7.225  0.1673 -0.0239  0.0756
   75CHL1   H7A 7968   1.902   0.833   7.299 -0.3321  0.6407 -0.2613
   75CHL1   H7B 7969   1.752   0.741   7.243  0.8450 -1.7728  2.4456
   75CHL1    C8 7970   1.942   0.629   7.259 -0.4216  0.8041  0.0831
   75CHL1    H8 7971   2.049   0.660   7.267  0.0593 -0.7507 -0.0147
   75CHL1   C14 7972   1.901   0.565   7.396 -0.4177  0.2640 -0.4061
   75CHL1   H14 7973   1.793   0.538   7.390  0.1208 -2.2794  0.4108
   75CHL1   C15 7974   1.910   0.659   7.519 -0.4724 -0.2589  0.0783
   75CHL1  H15A 7975   2.002   0.717   7.539 -0.1896 -1.0817  1.2048
   75CHL1  H15B 7976   1.817   0.720   7.509 -0.1152  0.4388  0.9091
   75CHL1   C16 7977   1.895   0.563   7.636  0.1748 -0.1393 -0.0304
   75CHL1  H16A 7978   1.981   0.587   7.702 -0.7214 -3.9011  2.8580
   75CHL1  H16B 7979   1.799   0.565   7.691 -0.3863 -3.0593 -0.7375
   75CHL1   C17 7980   1.921   0.417   7.582 -0.3650  0.5114  0.1370
   75CHL1   H17 7981   1.818   0.381   7.562 -0.1178  0.4752 -1.1722
   75CHL1   C13 7982   1.983   0.441   7.440  0.5863 -0.0467  0.3989
   75CHL1   C18 7983   2.131   0.465   7.463  0.5947 -1.0743 -0.1190
   75CHL1  H18A 7984   2.176   0.501   7.368 -2.9754 -0.1548 -1.6225
   75CHL1  H18B 7985   2.144   0.554   7.527  0.6935 -1.4035  0.3203
   75CHL1  H18C 7986   2.187   0.378   7.502 -1.8519 -2.5785  0.2344
   75CHL1   C12 7987   1.952   0.338   7.329 -0.2181  0.0077  0.1958
   75CHL1  H12A 7988   2.003   0.241   7.348  2.1918  1.2557  0.4779
   75CHL1  H12B 7989   1.843   0.319   7.324 -0.0502 -1.6419  1.8070
   75CHL1   C11 7990   2.002   0.381   7.195 -0.0077 -0.6147  0.1549
   75CHL1  H11A 7991   2.112   0.393   7.201  0.1228 -2.1105  1.8794
   75CHL1  H11B 7992   1.980   0.303   7.119 -1.1193  0.3223 -0.5023
   75CHL1    C9 7993   1.925   0.519   7.156  0.6725 -0.3048  0.4841
   75CHL1    H9 7994   1.816   0.497   7.156  0.4875  0.4838  2.0242
   75CHL1   C10 7995   1.969   0.576   7.018  0.0490 -0.1578  0.0125
   75CHL1   C19 7996   2.122   0.556   7.013  0.2723 -0.2294  0.0575
   75CHL1  H19A 7997   2.174   0.613   6.932 -0.8931 -0.2395 -0.7134
   75CHL1  H19B 7998   2.178   0.566   7.109  0.0559  0.7361  0.0915
   75CHL1  H19C 7999   2.145   0.450   6.988 -1.1576 -0.6526  0.4865
   75CHL1    C1 8000   1.896   0.497   6.905  0.4419 -0.4157  0.4185
   75CHL1   H1A 8001   1.932   0.392   6.910 -0.7232 -0.8634 -0.3429
   75CHL1   H1B 8002   1.786   0.505   6.922  0.7503 -0.0590  2.5327
   75CHL1    C2 8003   1.929   0.550   6.760  0.7411 -0.3459  0.2062
   75CHL1   H2A 8004   1.876   0.491   6.682  0.6596  1.9257 -1.5549
   75CHL1   H2B 8005   2.034   0.530   6.732  0.0831 -2.1865 -1.1913
   75CHL1   C20 8006   1.991   0.323   7.681  0.0837 -0.1858  0.5907
   75CHL1   H20 8007   2.090   0.360   7.716  0.4383 -0.6315  0.0682
   75CHL1   C21 8008   2.025   0.188   7.609  0.3014 -0.2262 -0.2225
   75CHL1  H21A 8009   1.934   0.146   7.560  0.3306  1.1953 -1.5532
   75CHL1  H21B 8010   2.081   0.106   7.659 -0.8562 -2.2851 -2.0952
   75CHL1  H21C 8011   2.095   0.221   7.528  0.1413  0.7204  0.0168
   75CHL1   C22 8012   1.915   0.289   7.809 -0.2135 -0.0441 -0.5294
   75CHL1  H22A 8013   1.888   0.383   7.861 -1.0536 -2.0126  2.8390
   75CHL1  H22B 8014   1.819   0.237   7.787  0.5151 -2.0568  0.8008
   75CHL1   C23 8015   1.986   0.203   7.914 -0.5974  0.2355 -0.6958
   75CHL1  H23A 8016   1.984   0.100   7.874 -2.0978  0.5830 -1.6175
   75CHL1  H23B 8017   2.091   0.234   7.930 -0.4878 -1.1703  1.7552
   75CHL1   C24 8018   1.899   0.209   8.037 -0.4177  0.1426 -0.5566
   75CHL1  H24A 8019   1.901   0.314   8.072  0.9704 -0.8678  2.7237
   75CHL1  H24B 8020   1.796   0.173   8.017 -0.8934  1.4023 -0.4085
   75CHL1   C25 8021   1.956   0.138   8.166  0.5508  0.6363  0.3778
   75CHL1   H25 8022   1.978   0.035   8.131 -2.0228 -0.9039  2.9322
   75CHL1   C26 8023   2.082   0.204   8.222  0.4557  0.0995  0.5500
   75CHL1  H26A 8024   2.118   0.170   8.321  0.8997 -0.2688  0.2652
   75CHL1  H26B 8025   2.168   0.186   8.154 -0.4512 -0.6619 -0.4321
   75CHL1  H26C 8026   2.047   0.310   8.228 -2.5900 -0.8978  2.6572
   75CHL1   C27 8027   1.844   0.123   8.271  0.9887  0.1154  0.0566
   75CHL1  H27A 8028   1.874   0.056   8.354 -0.9446  1.2571  1.7601
   75CHL1  H27B 8029   1.801   0.218   8.311  0.4476  1.1935 -2.8271
   75CHL1  H27C 8030   1.756   0.065   8.237  0.1955 -0.3107  2.5998
   76CHL1    C3 8031   0.299   2.487   7.283  0.0300 -0.5931 -0.2645
   76CHL1    H3 8032   0.393   2.527   7.326  1.6300 -2.3055 -2.0076
   76CHL1    O3 8033   0.331   2.428   7.165 -0.1875 -0.2583  0.2574
   76CHL1   H3' 8034   0.254   2.386   7.126 -0.5352  1.4902 -1.0489
   76CHL1    C4 8035   0.236   2.393   7.374 -0.3598  0.8247 -0.2111
   76CHL1   H4A 8036   0.148   2.348   7.323  0.7473 -4.2590  1.7794
   76CHL1   H4B 8037   0.308   2.309   7.384 -0.3570  1.0553  2.1949
   76CHL1    C5 8038   0.199   2.453   7.499 -0.1441  0.5367 -0.3989
   76CHL1    C6 8039   0.237   2.393   7.613 -0.6962 -0.2632  0.6813
   76CHL1    H6 8040   0.306   2.308   7.612 -1.1662 -0.6513 -0.1805
   76CHL1    C7 8041   0.201   2.441   7.759 -0.3829 -0.1092 -0.0085
   76CHL1   H7A 8042   0.164   2.357   7.822 -2.2387 -0.6657 -1.7484
   76CHL1   H7B 8043   0.291   2.477   7.813 -0.6984  0.2293  0.3059
   76CHL1    C8 8044   0.103   2.559   7.755 -0.0301  0.2409  0.1291
   76CHL1    H8 8045   0.001   2.528   7.724  1.1128 -1.7700 -1.8805
   76CHL1   C14 8046   0.101   2.635   7.884 -0.4268  0.0397 -0.1059
   76CHL1   H14 8047   0.202   2.675   7.904  0.3231 -2.2794  1.0680
   76CHL1   C15 8048   0.070   2.546   8.006  0.1645  0.9754  0.1091
   76CHL1  H15A 8049  -0.013   2.476   7.985  0.4958  0.3772  0.7426
   76CHL1  H15B 8050   0.158   2.488   8.042 -1.2893  0.8101  3.7461
   76CHL1   C16 8051   0.031   2.656   8.102  0.3529  0.4907 -0.5586
   76CHL1  H16A 8052  -0.067   2.633   8.148  0.5557 -1.3233 -0.9532
   76CHL1  H16B 8053   0.102   2.664   8.187  0.9063 -0.6637 -0.8920
   76CHL1   C17 8054   0.021   2.794   8.029  0.5287 -0.1717  0.0637
   76CHL1   H17 8055   0.117   2.845   8.050 -0.1051  1.1504 -0.1614
   76CHL1   C13 8056   0.008   2.761   7.881  1.0686 -0.3877 -0.4916
   76CHL1   C18 8057  -0.141   2.721   7.857  0.5695  0.7209 -0.2392
   76CHL1  H18A 8058  -0.155   2.662   7.764 -0.0510  1.2356 -0.4753
   76CHL1  H18B 8059  -0.178   2.644   7.928  0.8761 -0.1601 -1.0255
   76CHL1  H18C 8060  -0.206   2.811   7.854  0.9883  1.0892  0.9315
   76CHL1   C12 8061   0.073   2.850   7.781  0.1674 -0.9465 -0.1075
   76CHL1  H12A 8062   0.017   2.946   7.775 -2.4945 -2.4620 -2.4343
   76CHL1  H12B 8063   0.175   2.865   7.821 -0.7474  1.5275  1.4893
   76CHL1   C11 8064   0.065   2.790   7.640  0.1514 -0.0922 -0.5600
   76CHL1  H11A 8065  -0.043   2.770   7.620  0.0347 -0.5045  0.4336
   76CHL1  H11B 8066   0.082   2.857   7.554 -0.4374 -0.1963 -0.7628
   76CHL1    C9 8067   0.142   2.652   7.636  0.5113 -0.0388 -0.5287
   76CHL1    H9 8068   0.251   2.672   7.647  0.1637  1.8860 -0.0818
   76CHL1   C10 8069   0.122   2.587   7.501 -0.5103  0.6665  0.4857
   76CHL1   C19 8070  -0.025   2.542   7.471 -0.3340  0.0050 -0.2999
   76CHL1  H19A 8071  -0.040   2.499   7.369  0.9287 -0.5573 -0.2614
   76CHL1  H19B 8072  -0.056   2.454   7.532  1.1661 -1.1025 -1.0529
   76CHL1  H19C 8073  -0.099   2.624   7.483 -0.9783 -0.6158  0.0875
   76CHL1    C1 8074   0.174   2.681   7.381  0.5885 -0.3224  0.2394
   76CHL1   H1A 8075   0.097   2.759   7.364  1.0649 -0.1515 -1.2752
   76CHL1   H1B 8076   0.267   2.732   7.413  1.2647 -0.2361 -1.7728
   76CHL1    C2 8077   0.203   2.605   7.252 -0.1294  0.1423 -0.1780
   76CHL1   H2A 8078   0.248   2.674   7.178  0.0246  0.5154  0.2608
   76CHL1   H2B 8079   0.111   2.568   7.202 -0.3442  0.7185 -0.2060
   76CHL1   C20 8080  -0.098   2.875   8.094 -0.1612  0.4801  0.2391
   76CHL1   H20 8081  -0.193   2.817   8.090  1.1767 -1.7700 -1.7007
   76CHL1   C21 8082  -0.100   3.016   8.032 -0.7938  0.1649  0.9979
   76CHL1  H21A 8083  -0.124   3.024   7.924  0.7483  1.4640  0.7141
   76CHL1  H21B 8084  -0.005   3.069   8.052 -1.2008  1.6855 -0.8428
   76CHL1  H21C 8085  -0.167   3.081   8.094  0.6084  0.6861  2.0116
   76CHL1   C22 8086  -0.070   2.903   8.243 -0.3843  0.9916 -0.3071
   76CHL1  H22A 8087  -0.065   2.802   8.289  1.1788  0.3873 -1.6713
   76CHL1  H22B 8088   0.029   2.954   8.248  0.1889 -0.0351 -0.6508
   76CHL1   C23 8089  -0.173   2.984   8.323  0.3874 -0.6701 -0.0937
   76CHL1  H23A 8090  -0.186   3.089   8.289 -0.7801 -0.7865 -0.0388
   76CHL1  H23B 8091  -0.271   2.932   8.326 -0.5578  0.8162 -2.3103
   76CHL1   C24 8092  -0.124   2.990   8.470  0.1860 -0.6128  0.4538
   76CHL1  H24A 8093  -0.138   2.891   8.518 -2.0320 -0.5404  0.0886
   76CHL1  H24B 8094  -0.015   3.006   8.473  0.0884  0.8943 -1.5915
   76CHL1   C25 8095  -0.206   3.090   8.561 -0.1665 -0.6078 -0.3749
   76CHL1   H25 8096  -0.166   3.084   8.664  2.4582 -1.0783 -1.3455
   76CHL1   C26 8097  -0.200   3.236   8.514 -0.1403  0.2215 -0.4504
   76CHL1  H26A 8098  -0.254   3.298   8.589  2.3926 -0.0922  1.7603
   76CHL1  H26B 8099  -0.094   3.268   8.508 -0.1272  0.3066  0.2022
   76CHL1  H26C 8100  -0.243   3.252   8.412 -0.2184  1.8117 -0.1910
   76CHL1   C27 8101  -0.353   3.046   8.571 -0.1948  0.3249 -0.4887
   76CHL1  H27A 8102  -0.351   2.936   8.585  2.4518  0.5080  1.4283
   76CHL1  H27B 8103  -0.401   3.092   8.661  1.2319  3.2788 -1.1175
   76CHL1  H27C 8104  -0.405   3.087   8.482 -1.2779  0.4111  0.1593
   77CHL1    C3 8105   6.446   0.590   6.882  0.5315 -0.5906  0.3816
   77CHL1    H3 8106   6.557   0.605   6.885  0.0857  4.9668  0.7118
   77CHL1    O3 8107   6.408   0.639   6.750 -0.2117  0.3193 -0.6715
   77CHL1   H3' 8108   6.326   0.592   6.736  0.4238 -0.6371 -1.2828
   77CHL1    C4 8109   6.398   0.447   6.911  0.1955  0.0086  0.1453
   77CHL1   H4A 8110   6.293   0.448   6.874  0.4210  1.7275 -0.5244
   77CHL1   H4B 8111   6.454   0.382   6.840 -0.5738 -2.7709  1.8962
   77CHL1    C5 8112   6.426   0.407   7.056  0.2924  0.1016 -0.5231
   77CHL1    C6 8113   6.488   0.284   7.076  0.1396 -0.0528 -0.0878
   77CHL1    H6 8114   6.504   0.218   6.990 -0.6076 -0.9624  0.4557
   77CHL1    C7 8115   6.503   0.232   7.218 -0.2538 -0.2624 -0.2133
   77CHL1   H7A 8116   6.481   0.123   7.222  0.6232 -0.4220  0.5520
   77CHL1   H7B 8117   6.609   0.236   7.252 -0.3698 -1.8283  0.4409
   77CHL1    C8 8118   6.420   0.306   7.329 -0.4880  0.5229 -1.2051
   77CHL1    H8 8119   6.317   0.265   7.320 -0.4429  0.1098  0.0456
   77CHL1   C14 8120   6.482   0.272   7.463 -0.6297 -0.1140  0.5307
   77CHL1   H14 8121   6.585   0.311   7.456 -0.6109 -0.0260  1.2073
   77CHL1   C15 8122   6.509   0.127   7.491 -0.1408  0.1933  0.4682
   77CHL1  H15A 8123   6.416   0.068   7.498  0.4096 -0.8067 -0.4094
   77CHL1  H15B 8124   6.585   0.074   7.430  0.3307 -0.7933  1.8697
   77CHL1   C16 8125   6.560   0.135   7.642  0.1449 -0.5820 -0.4895
   77CHL1  H16A 8126   6.501   0.057   7.696  0.1863 -1.0498 -1.1053
   77CHL1  H16B 8127   6.668   0.113   7.644  0.2475 -0.0400  0.6143
   77CHL1   C17 8128   6.530   0.281   7.688  0.3116  0.1438  0.1136
   77CHL1   H17 8129   6.621   0.341   7.666 -1.0928  1.5037 -2.5666
   77CHL1   C13 8130   6.425   0.337   7.587 -0.4889 -0.5443 -0.0606
   77CHL1   C18 8131   6.285   0.283   7.617 -0.0174  0.2785  0.6223
   77CHL1  H18A 8132   6.244   0.339   7.703 -2.4147 -0.8360  0.2765
   77CHL1  H18B 8133   6.221   0.314   7.531 -0.4950  0.7761  1.1505
   77CHL1  H18C 8134   6.290   0.173   7.635  2.0192  0.2070 -0.0784
   77CHL1   C12 8135   6.421   0.490   7.560 -0.2668 -0.1527  0.1895
   77CHL1  H12A 8136   6.357   0.533   7.640  1.6946 -0.2956  1.9152
   77CHL1  H12B 8137   6.528   0.518   7.569 -1.1451  2.7087  3.9588
   77CHL1   C11 8138   6.359   0.530   7.423 -1.0453 -0.0163  0.2492
   77CHL1  H11A 8139   6.252   0.500   7.426 -0.8608 -1.9281 -4.3167
   77CHL1  H11B 8140   6.354   0.640   7.407  0.7416  0.2620  1.3525
   77CHL1    C9 8141   6.427   0.459   7.307 -0.5835  0.0599  0.0247
   77CHL1    H9 8142   6.536   0.479   7.305 -0.6766  0.6352  0.5917
   77CHL1   C10 8143   6.378   0.496   7.163  0.4015  0.6455  0.0095
   77CHL1   C19 8144   6.221   0.494   7.160  0.6919 -0.3187  0.2092
   77CHL1  H19A 8145   6.176   0.542   7.070  0.0474  1.7580  1.5752
   77CHL1  H19B 8146   6.173   0.394   7.168 -0.4505  0.0770 -1.2475
   77CHL1  H19C 8147   6.179   0.547   7.248 -2.7727  0.5128 -1.7385
   77CHL1    C1 8148   6.435   0.631   7.129 -0.1276 -0.2191 -0.2079
   77CHL1   H1A 8149   6.384   0.704   7.195 -0.6585 -0.7980  0.0316
   77CHL1   H1B 8150   6.545   0.644   7.136  0.0588 -0.8343 -1.6820
   77CHL1    C2 8151   6.397   0.685   6.992 -0.0485 -0.0081 -0.6781
   77CHL1   H2A 8152   6.451   0.781   6.980 -1.1683  1.0245  1.9197
   77CHL1   H2B 8153   6.288   0.706   6.979  0.0676  0.9894 -0.1277
   77CHL1   C20 8154   6.514   0.284   7.839 -0.1615 -0.3281 -0.3296
   77CHL1   H20 8155   6.414   0.246   7.869 -1.2572  2.6832  0.1148
   77CHL1   C21 8156   6.532   0.433   7.884 -0.0110  0.3708 -0.6989
   77CHL1  H21A 8157   6.445   0.493   7.850 -0.7477 -0.3475 -0.1141
   77CHL1  H21B 8158   6.623   0.486   7.847 -0.6193  0.8925 -1.4777
   77CHL1  H21C 8159   6.543   0.443   7.995  1.6893 -1.4535 -0.6365
   77CHL1   C22 8160   6.630   0.200   7.906 -0.5329  0.1967 -0.4868
   77CHL1  H22A 8161   6.605   0.092   7.898 -0.4140 -0.4971  4.7835
   77CHL1  H22B 8162   6.727   0.210   7.853 -0.7100  0.3615 -0.7769
   77CHL1   C23 8163   6.656   0.229   8.058 -0.0577 -0.3152 -0.1479
   77CHL1  H23A 8164   6.692   0.331   8.083  0.2199 -1.2086  3.8973
   77CHL1  H23B 8165   6.561   0.219   8.115  0.1312  1.6431  0.5718
   77CHL1   C24 8166   6.752   0.124   8.118 -0.2752 -0.7477 -0.3754
   77CHL1  H24A 8167   6.718   0.022   8.088  1.4134 -1.2379 -0.7547
   77CHL1  H24B 8168   6.857   0.139   8.084 -0.0579  0.2890  0.6817
   77CHL1   C25 8169   6.758   0.121   8.270 -0.3271  0.6877 -0.7028
   77CHL1   H25 8170   6.654   0.110   8.307 -0.2262  0.9657 -0.3283
   77CHL1   C26 8171   6.850   0.010   8.322  0.0966  0.6317 -0.0441
   77CHL1  H26A 8172   6.956   0.035   8.296  0.9932  0.1371  2.7876
   77CHL1  H26B 8173   6.839   0.011   8.433 -3.4694  0.8630 -0.2908
   77CHL1  H26C 8174   6.817  -0.095   8.304 -3.3410  1.4867  0.5966
   77CHL1   C27 8175   6.807   0.256   8.324  0.0876 -0.0274  0.1379
   77CHL1  H27A 8176   6.798   0.255   8.435 -0.2156 -0.2090  0.1144
   77CHL1  H27B 8177   6.914   0.264   8.295  0.1427 -2.3435 -0.4767
   77CHL1  H27C 8178   6.747   0.342   8.286 -1.9410 -1.2069  0.5046
   78CHL1    C3 8179   2.671   2.758   6.718 -0.4936  0.4480  0.4513
   78CHL1    H3 8180   2.773   2.723   6.744 -0.1155  1.7784  0.8302
   78CHL1    O3 8181   2.645   2.738   6.582  0.2159 -0.1333  0.3792
   78CHL1   H3' 8182   2.555   2.771   6.571 -0.4385 -2.1552 -0.7774
   78CHL1    C4 8183   2.594   2.659   6.812 -0.6383 -0.4538  0.6843
   78CHL1   H4A 8184   2.484   2.676   6.815 -0.5444  0.0082  1.6494
   78CHL1   H4B 8185   2.600   2.551   6.786 -1.4764 -0.1147 -1.0591
   78CHL1    C5 8186   2.646   2.683   6.953  0.4297 -0.0195  0.6022
   78CHL1    C6 8187   2.701   2.585   7.022  0.1547 -0.0160  0.4695
   78CHL1    H6 8188   2.705   2.485   6.978  3.3241  0.3697 -0.3711
   78CHL1    C7 8189   2.743   2.607   7.163 -0.7513 -0.2083 -0.7458
   78CHL1   H7A 8190   2.725   2.508   7.211 -2.1039 -0.7096 -2.1815
   78CHL1   H7B 8191   2.847   2.646   7.162 -1.2491  1.2019 -0.1576
   78CHL1    C8 8192   2.662   2.720   7.231 -0.5435  0.6138  0.0036
   78CHL1    H8 8193   2.558   2.679   7.230  0.3518 -1.8611  0.5515
   78CHL1   C14 8194   2.705   2.730   7.373 -0.2092 -0.9283  0.3322
   78CHL1   H14 8195   2.814   2.751   7.377 -0.3438 -0.3249  3.3122
   78CHL1   C15 8196   2.695   2.609   7.469  0.0330  0.8636 -1.1475
   78CHL1  H15A 8197   2.608   2.544   7.447  1.0891 -1.5346  1.2162
   78CHL1  H15B 8198   2.793   2.558   7.454  0.4113  0.9986  0.6591
   78CHL1   C16 8199   2.689   2.669   7.613 -0.5296 -0.3514 -0.3205
   78CHL1  H16A 8200   2.586   2.655   7.651 -0.2671  0.8174  0.9127
   78CHL1  H16B 8201   2.758   2.620   7.686  2.2732  0.0984 -2.4861
   78CHL1   C17 8202   2.713   2.821   7.593 -0.1843  0.5654  0.6097
   78CHL1   H17 8203   2.822   2.834   7.581 -0.0433 -1.6851 -1.1485
   78CHL1   C13 8204   2.645   2.852   7.458 -0.5469  0.0253  0.7101
   78CHL1   C18 8205   2.491   2.835   7.461 -0.5103 -0.3603 -0.1762
   78CHL1  H18A 8206   2.458   2.818   7.356  1.8421  0.7507 -1.1528
   78CHL1  H18B 8207   2.449   2.757   7.529  2.6295 -1.6357  0.4534
   78CHL1  H18C 8208   2.442   2.929   7.493 -0.6825 -0.4653 -0.1294
   78CHL1   C12 8209   2.693   2.973   7.383  0.3659  0.1763 -0.7822
   78CHL1  H12A 8210   2.657   3.066   7.433 -2.9894 -1.3276 -0.1328
   78CHL1  H12B 8211   2.804   2.978   7.384  0.3202  1.6839 -0.1855
   78CHL1   C11 8212   2.657   2.976   7.231  0.7850 -0.0508 -0.1697
   78CHL1  H11A 8213   2.550   3.003   7.219  0.9851  0.3360 -1.1866
   78CHL1  H11B 8214   2.723   3.051   7.182 -0.4683  0.0084 -1.8402
   78CHL1    C9 8215   2.689   2.843   7.150 -0.1766 -0.4058  0.0145
   78CHL1    H9 8216   2.799   2.851   7.134  0.0683 -0.8093  1.3228
   78CHL1   C10 8217   2.620   2.825   7.010 -0.7990 -0.3368 -0.3389
   78CHL1   C19 8218   2.464   2.853   7.023 -0.8421 -0.0627 -0.3780
   78CHL1  H19A 8219   2.410   2.847   6.926 -0.9485 -1.3235 -0.2590
   78CHL1  H19B 8220   2.408   2.794   7.098  0.6932  0.6202  1.3907
   78CHL1  H19C 8221   2.451   2.957   7.061 -0.0826  0.1765 -0.7522
   78CHL1    C1 8222   2.683   2.921   6.902  0.2466  0.6154  0.3761
   78CHL1   H1A 8223   2.659   3.026   6.930 -1.8728  0.3655 -0.3183
   78CHL1   H1B 8224   2.792   2.900   6.905  0.1298  0.1333  1.7539
   78CHL1    C2 8225   2.638   2.902   6.755 -0.7040 -0.6219 -0.2210
   78CHL1   H2A 8226   2.701   2.971   6.694 -0.1768 -1.1465 -0.2762
   78CHL1   H2B 8227   2.528   2.912   6.745 -0.5821  0.6684 -0.4341
   78CHL1   C20 8228   2.668   2.916   7.712 -0.0848  0.4650  0.3619
   78CHL1   H20 8229   2.563   2.949   7.696 -0.2321 -0.7743 -1.6990
   78CHL1   C21 8230   2.749   3.045   7.705 -0.3983 -0.5759  0.4668
   78CHL1  H21A 8231   2.708   3.118   7.778  1.3127  0.7597  0.1684
   78CHL1  H21B 8232   2.758   3.092   7.605  0.4337  1.7105  1.5358
   78CHL1  H21C 8233   2.854   3.018   7.730 -0.0033  0.2115 -0.3050
   78CHL1   C22 8234   2.678   2.856   7.855  0.6313  0.8162 -0.1342
   78CHL1  H22A 8235   2.613   2.766   7.849  1.9463 -0.1949  0.1406
   78CHL1  H22B 8236   2.780   2.813   7.865  0.6955  0.5424 -1.7070
   78CHL1   C23 8237   2.635   2.945   7.967 -0.3161 -0.4853  0.0262
   78CHL1  H23A 8238   2.707   3.028   7.980 -0.4600 -0.2515 -0.6576
   78CHL1  H23B 8239   2.539   2.997   7.947 -1.6905 -2.0337  2.1742
   78CHL1   C24 8240   2.622   2.867   8.099 -0.3168 -0.0719  0.0624
   78CHL1  H24A 8241   2.533   2.802   8.085  0.0745 -0.7194  0.5135
   78CHL1  H24B 8242   2.707   2.796   8.108  0.2248  0.2576 -1.9293
   78CHL1   C25 8243   2.589   2.947   8.231 -0.1987 -0.6497  0.4362
   78CHL1   H25 8244   2.674   3.018   8.244  1.4271 -2.3397 -0.4999
   78CHL1   C26 8245   2.460   3.028   8.219 -0.2206 -1.2561 -0.0246
   78CHL1  H26A 8246   2.464   3.108   8.142 -0.6704 -1.6906 -0.5088
   78CHL1  H26B 8247   2.374   2.963   8.193 -1.1690  0.3855 -1.1537
   78CHL1  H26C 8248   2.446   3.074   8.319  2.5548  1.0714 -0.5702
   78CHL1   C27 8249   2.573   2.858   8.352 -0.0539  0.2502 -0.4263
   78CHL1  H27A 8250   2.666   2.800   8.369  0.0302  1.2562  3.4794
   78CHL1  H27B 8251   2.551   2.908   8.449 -0.0197  0.8919 -0.7508
   78CHL1  H27C 8252   2.501   2.777   8.324  1.0382 -0.6208 -0.7896
   79CHL1    C3 8253   1.279   3.372   7.156  0.2555  0.3287 -0.6170
   79CHL1    H3 8254   1.187   3.433   7.167 -0.1132 -0.3139 -0.0161
   79CHL1    O3 8255   1.296   3.338   7.024  1.0327 -0.2589  0.4475
   79CHL1   H3' 8256   1.378   3.289   7.012  1.1585  0.1778 -0.5059
   79CHL1    C4 8257   1.403   3.453   7.206  0.6400 -0.2682 -0.1883
   79CHL1   H4A 8258   1.492   3.394   7.176  0.1086 -1.0999 -0.1734
   79CHL1   H4B 8259   1.404   3.541   7.137 -1.2129  0.8579  1.1382
   79CHL1    C5 8260   1.390   3.495   7.352  0.8827  0.1777 -0.4434
   79CHL1    C6 8261   1.399   3.622   7.395 -0.0180  1.0402 -0.4218
   79CHL1    H6 8262   1.419   3.707   7.328  1.0197 -0.0119 -1.5165
   79CHL1    C7 8263   1.383   3.657   7.544  0.0962  0.1857  0.0598
   79CHL1   H7A 8264   1.469   3.721   7.572 -1.0722  0.8295  2.4179
   79CHL1   H7B 8265   1.290   3.716   7.562 -0.8954 -0.8309 -1.3975
   79CHL1    C8 8266   1.379   3.540   7.642  0.4831 -0.0456  0.1620
   79CHL1    H8 8267   1.483   3.501   7.651  0.5429 -0.2595 -1.2216
   79CHL1   C14 8268   1.328   3.587   7.779 -0.2866 -0.2342  0.2488
   79CHL1   H14 8269   1.222   3.615   7.762  0.1942  0.0317 -3.1239
   79CHL1   C15 8270   1.384   3.718   7.839  0.5334 -0.4111 -0.3104
   79CHL1  H15A 8271   1.494   3.721   7.830  0.5992 -1.9679 -0.2536
   79CHL1  H15B 8272   1.348   3.802   7.776  3.1342  0.8278 -0.2732
   79CHL1   C16 8273   1.334   3.705   7.983 -0.0946  0.4732  0.0612
   79CHL1  H16A 8274   1.413   3.733   8.056  1.1000 -0.4041 -0.8540
   79CHL1  H16B 8275   1.242   3.763   8.008 -1.6428 -1.7446 -0.1293
   79CHL1   C17 8276   1.278   3.562   8.009 -0.7026 -0.1384  0.0729
   79CHL1   H17 8277   1.168   3.563   7.998 -0.9721 -1.0154  2.2316
   79CHL1   C13 8278   1.335   3.480   7.885  0.1261 -0.2676 -0.7410
   79CHL1   C18 8279   1.485   3.442   7.916  0.5369 -0.2072  0.7015
   79CHL1  H18A 8280   1.544   3.533   7.941 -1.6238  1.4241  0.1894
   79CHL1  H18B 8281   1.473   3.368   7.998 -2.8822 -1.0486 -0.3938
   79CHL1  H18C 8282   1.537   3.395   7.830  3.0457  0.4513  1.7586
   79CHL1   C12 8283   1.245   3.358   7.840 -0.0485  0.7805 -0.0823
   79CHL1  H12A 8284   1.256   3.273   7.911  1.2691  0.4262 -0.6891
   79CHL1  H12B 8285   1.138   3.388   7.846 -0.1107  1.0408 -1.9348
   79CHL1   C11 8286   1.280   3.311   7.698 -0.0035 -0.3295 -0.2784
   79CHL1  H11A 8287   1.387   3.281   7.700 -0.3128 -1.5087 -0.7745
   79CHL1  H11B 8288   1.220   3.231   7.652  1.0844 -0.4132 -1.6235
   79CHL1    C9 8289   1.296   3.426   7.585  0.0601  0.0473  0.0931
   79CHL1    H9 8290   1.194   3.462   7.561  0.6371  2.1278  0.5246
   79CHL1   C10 8291   1.351   3.371   7.451 -0.5763 -0.1013 -0.0587
   79CHL1   C19 8292   1.475   3.279   7.471  0.2462  0.1972 -0.0211
   79CHL1  H19A 8293   1.549   3.329   7.536 -0.2606  1.8593 -0.6597
   79CHL1  H19B 8294   1.438   3.182   7.510  1.9709 -0.1243  0.8716
   79CHL1  H19C 8295   1.519   3.269   7.369  2.4561  0.2778  0.8708
   79CHL1    C1 8296   1.237   3.289   7.385  0.7779  0.3379 -0.0398
   79CHL1   H1A 8297   1.231   3.192   7.438  2.1368  0.8522  1.1414
   79CHL1   H1B 8298   1.141   3.345   7.383 -0.1926 -1.2411  0.8684
   79CHL1    C2 8299   1.268   3.247   7.240 -0.0128 -0.5723  0.4670
   79CHL1   H2A 8300   1.182   3.188   7.203  0.8151 -0.4589 -1.7826
   79CHL1   H2B 8301   1.361   3.186   7.228  0.3119  0.4859 -4.6319
   79CHL1   C20 8302   1.310   3.511   8.149  0.7647  0.1889  0.5776
   79CHL1   H20 8303   1.419   3.495   8.165  0.5063 -1.8401  0.5799
   79CHL1   C21 8304   1.230   3.380   8.161 -0.4486  0.1261 -0.1904
   79CHL1  H21A 8305   1.145   3.379   8.089 -0.6892  1.2623  0.0607
   79CHL1  H21B 8306   1.196   3.363   8.265 -1.3700  2.1989 -0.1129
   79CHL1  H21C 8307   1.297   3.293   8.141 -1.3890 -0.5647 -0.3989
   79CHL1   C22 8308   1.275   3.612   8.261  0.1297 -0.7038  0.2085
   79CHL1  H22A 8309   1.315   3.713   8.242 -1.7254 -0.1627 -1.1881
   79CHL1  H22B 8310   1.164   3.625   8.260  0.2315  0.9180  2.5785
   79CHL1   C23 8311   1.316   3.569   8.397 -0.1468  0.6725 -0.3232
   79CHL1  H23A 8312   1.268   3.470   8.408  1.9203 -0.7793 -3.1554
   79CHL1  H23B 8313   1.425   3.547   8.393 -0.0199  1.3525 -0.7722
   79CHL1   C24 8314   1.292   3.667   8.514  0.7425 -0.6911 -0.2224
   79CHL1  H24A 8315   1.376   3.737   8.530  0.0054  0.1763 -0.0184
   79CHL1  H24B 8316   1.195   3.711   8.482  0.1333 -0.6553  1.5402
   79CHL1   C25 8317   1.275   3.602   8.652 -0.0738  0.5858  0.1320
   79CHL1   H25 8318   1.262   3.686   8.723  0.4124  0.1297  0.7693
   79CHL1   C26 8319   1.135   3.521   8.655 -0.3510  0.2989  0.3113
   79CHL1  H26A 8320   1.116   3.466   8.749  1.1764 -0.2847  0.2942
   79CHL1  H26B 8321   1.046   3.587   8.641 -2.8218 -2.8133  0.3059
   79CHL1  H26C 8322   1.134   3.447   8.572  0.2720  0.9357 -0.2741
   79CHL1   C27 8323   1.389   3.511   8.695  0.3561  0.1609 -0.0419
   79CHL1  H27A 8324   1.368   3.463   8.793  0.5867  2.4619  1.1887
   79CHL1  H27B 8325   1.407   3.421   8.631  1.0072  0.4140 -0.2258
   79CHL1  H27C 8326   1.486   3.566   8.693  0.1960  0.4529  0.2061
   80CHL1    C3 8327   4.744   6.170   7.065 -0.2693 -0.0125  0.0371
   80CHL1    H3 8328   4.839   6.115   7.083 -0.5960 -1.3678 -2.1230
   80CHL1    O3 8329   4.696   6.143   6.932 -0.6842 -0.0048 -0.5072
   80CHL1   H3' 8330   4.646   6.223   6.913  1.3820  1.2126 -1.2612
   80CHL1    C4 8331   4.643   6.123   7.171  0.5881 -0.5427 -0.1425
   80CHL1   H4A 8332   4.545   6.175   7.162  1.1103  0.4641 -0.1018
   80CHL1   H4B 8333   4.616   6.017   7.148 -1.8149  0.4173 -2.2662
   80CHL1    C5 8334   4.685   6.154   7.315  0.3242  0.2388  0.2211
   80CHL1    C6 8335   4.686   6.054   7.404  0.6642 -0.1983 -0.0991
   80CHL1    H6 8336   4.661   5.952   7.372 -0.2239  0.3252 -1.1280
   80CHL1    C7 8337   4.724   6.057   7.548 -0.3060  0.1568 -0.2980
   80CHL1   H7A 8338   4.650   6.009   7.615  2.6604 -1.7061  1.9260
   80CHL1   H7B 8339   4.818   5.997   7.558 -0.1823 -0.1052 -2.5197
   80CHL1    C8 8340   4.745   6.200   7.594 -0.8456 -0.3377  0.2330
   80CHL1    H8 8341   4.643   6.238   7.614 -0.1987  1.1389  0.9134
   80CHL1   C14 8342   4.831   6.205   7.719 -0.4909  0.1573  0.0571
   80CHL1   H14 8343   4.931   6.163   7.694 -0.5309 -0.2059  0.5047
   80CHL1   C15 8344   4.784   6.109   7.840  0.1584 -0.1379 -0.2899
   80CHL1  H15A 8345   4.675   6.125   7.852  0.1546 -0.9924  0.9239
   80CHL1  H15B 8346   4.814   6.006   7.813  1.0584  0.1163 -0.3122
   80CHL1   C16 8347   4.858   6.161   7.965  0.3746  0.0056  0.9445
   80CHL1  H16A 8348   4.780   6.175   8.042 -2.2482  0.6491 -1.6659
   80CHL1  H16B 8349   4.934   6.087   7.996  0.0175 -0.6375  0.2978
   80CHL1   C17 8350   4.926   6.295   7.921  0.3377  0.5634  0.1246
   80CHL1   H17 8351   5.025   6.260   7.885 -0.6607  0.2375 -2.4813
   80CHL1   C13 8352   4.855   6.344   7.792 -0.0783  0.1977 -0.5410
   80CHL1   C18 8353   4.719   6.410   7.832 -0.0513 -0.4133 -0.5803
   80CHL1  H18A 8354   4.657   6.345   7.897  0.5009  0.3894  0.7805
   80CHL1  H18B 8355   4.727   6.506   7.888  0.9245 -1.9994  2.1426
   80CHL1  H18C 8356   4.657   6.418   7.739 -2.5131 -1.4117  0.8664
   80CHL1   C12 8357   4.921   6.433   7.682  0.5513 -0.3434 -0.6921
   80CHL1  H12A 8358   4.945   6.536   7.715 -0.5530  0.4548 -2.2900
   80CHL1  H12B 8359   5.015   6.379   7.660  0.1033 -1.6181  0.3802
   80CHL1   C11 8360   4.851   6.437   7.544  0.5286  0.4578 -0.8436
   80CHL1  H11A 8361   4.758   6.497   7.557  0.3963  0.2016 -0.5984
   80CHL1  H11B 8362   4.911   6.496   7.471 -1.1277  0.5470 -2.1933
   80CHL1    C9 8363   4.806   6.295   7.487 -0.6471 -0.0578  0.6363
   80CHL1    H9 8364   4.905   6.250   7.465 -1.2894 -0.2381 -2.3182
   80CHL1   C10 8365   4.739   6.293   7.345 -0.1418  0.1748 -0.5872
   80CHL1   C19 8366   4.617   6.385   7.340  0.2329  0.3665 -0.1248
   80CHL1  H19A 8367   4.537   6.337   7.400 -0.4166  0.0172 -1.2369
   80CHL1  H19B 8368   4.630   6.490   7.371 -2.9158  0.2613  2.0591
   80CHL1  H19C 8369   4.574   6.394   7.238  0.7864 -0.2299 -0.4190
   80CHL1    C1 8370   4.834   6.336   7.231  0.1943 -0.2881  0.2484
   80CHL1   H1A 8371   4.860   6.444   7.231  2.6130 -0.7982 -0.4715
   80CHL1   H1B 8372   4.926   6.274   7.241 -0.2742 -1.0831 -0.2152
   80CHL1    C2 8373   4.780   6.314   7.087 -0.0724  0.1659  0.1905
   80CHL1   H2A 8374   4.865   6.345   7.022  0.3067 -3.3398 -1.2047
   80CHL1   H2B 8375   4.692   6.381   7.079  1.0925  1.8239  0.7173
   80CHL1   C20 8376   4.940   6.391   8.034  0.3611 -0.3170 -0.4439
   80CHL1   H20 8377   4.842   6.401   8.085  0.1245 -3.4293 -0.1469
   80CHL1   C21 8378   4.985   6.532   7.984  0.0243 -0.2360 -0.2166
   80CHL1  H21A 8379   4.902   6.588   7.936  1.4658  1.7654 -0.4798
   80CHL1  H21B 8380   5.065   6.518   7.909  0.3283 -2.5764  0.4414
   80CHL1  H21C 8381   5.009   6.585   8.079 -2.8215 -1.8826  1.5855
   80CHL1   C22 8382   5.047   6.337   8.130  0.0107  0.1279  0.6462
   80CHL1  H22A 8383   5.033   6.227   8.140 -0.8260  0.1789  0.1968
   80CHL1  H22B 8384   5.145   6.359   8.083 -0.2257  0.8549  0.4790
   80CHL1   C23 8385   5.045   6.371   8.280  0.2902 -0.3958  0.4882
   80CHL1  H23A 8386   5.137   6.349   8.337  1.1046  0.7445 -0.3264
   80CHL1  H23B 8387   5.045   6.482   8.284  0.8065 -0.3443 -0.5723
   80CHL1   C24 8388   4.926   6.313   8.362  0.0297  0.1809  0.4699
   80CHL1  H24A 8389   4.828   6.340   8.317 -0.9932 -0.8158  1.9961
   80CHL1  H24B 8390   4.947   6.204   8.354  0.6668  0.4294 -2.0636
   80CHL1   C25 8391   4.926   6.362   8.508  0.1951 -0.1918 -0.7280
   80CHL1   H25 8392   5.025   6.344   8.555 -0.2620  0.1000  0.3937
   80CHL1   C26 8393   4.874   6.511   8.517  0.6120  0.7288 -0.6030
   80CHL1  H26A 8394   4.943   6.575   8.458 -0.6618 -0.8956 -4.1864
   80CHL1  H26B 8395   4.772   6.512   8.472 -0.1061  0.4155  0.9641
   80CHL1  H26C 8396   4.880   6.536   8.624  1.1476 -3.1400  0.4274
   80CHL1   C27 8397   4.830   6.269   8.596  0.0993 -0.2869  0.2524
   80CHL1  H27A 8398   4.722   6.280   8.573  0.4706 -0.2912 -1.6346
   80CHL1  H27B 8399   4.855   6.165   8.568  1.5361 -0.8064  3.0685
   80CHL1  H27C 8400   4.834   6.278   8.707  1.0030 -1.2895  0.3181
   81CHL1    C3 8401   2.359   1.169   6.801 -0.5690 -0.2229  0.2572
   81CHL1    H3 8402   2.350   1.279   6.811  1.4585  0.5695 -4.1619
   81CHL1    O3 8403   2.388   1.148   6.666 -0.3179  0.2385 -0.1255
   81CHL1   H3' 8404   2.307   1.176   6.623 -0.1949  0.3746 -0.2745
   81CHL1    C4 8405   2.469   1.125   6.894 -0.5984  0.8392  0.4483
   81CHL1   H4A 8406   2.494   1.019   6.871 -1.2710  0.4081  1.6468
   81CHL1   H4B 8407   2.553   1.194   6.871 -1.7984  1.4166 -2.7659
   81CHL1    C5 8408   2.422   1.142   7.037 -0.2909 -0.1308 -0.3348
   81CHL1    C6 8409   2.493   1.225   7.116  0.1002 -0.0467 -0.0383
   81CHL1    H6 8410   2.576   1.290   7.083  0.8888 -1.0188 -0.0044
   81CHL1    C7 8411   2.461   1.241   7.265 -0.0245 -0.9742 -0.2380
   81CHL1   H7A 8412   2.560   1.253   7.313 -0.0822  1.4438 -0.6003
   81CHL1   H7B 8413   2.399   1.333   7.272  0.1440 -0.9648  1.7912
   81CHL1    C8 8414   2.380   1.120   7.319  0.0982 -0.7793 -1.2713
   81CHL1    H8 8415   2.447   1.031   7.319  0.3395 -0.6095 -0.2141
   81CHL1   C14 8416   2.338   1.151   7.463 -0.0165 -0.6223  0.2164
   81CHL1   H14 8417   2.282   1.245   7.449  0.7070 -0.5818 -3.9353
   81CHL1   C15 8418   2.440   1.190   7.563  0.0670 -0.3153 -0.2598
   81CHL1  H15A 8419   2.530   1.124   7.559  2.6893  2.5874  3.5643
   81CHL1  H15B 8420   2.480   1.293   7.556 -0.1170 -0.1274  1.2575
   81CHL1   C16 8421   2.378   1.162   7.703 -0.1199  0.1851  0.0474
   81CHL1  H16A 8422   2.438   1.090   7.762  0.0731  0.4351  0.1542
   81CHL1  H16B 8423   2.365   1.259   7.755  1.9591  0.9661 -0.7978
   81CHL1   C17 8424   2.240   1.095   7.677 -0.4351 -0.4296 -0.4770
   81CHL1   H17 8425   2.177   1.185   7.663  0.6534  0.0732 -2.7157
   81CHL1   C13 8426   2.249   1.040   7.529 -0.0290 -0.1051 -0.0296
   81CHL1   C18 8427   2.342   0.920   7.535 -0.4301  0.0225 -0.1817
   81CHL1  H18A 8428   2.438   0.938   7.588 -0.5277  1.0326 -0.3228
   81CHL1  H18B 8429   2.287   0.842   7.591 -0.2308 -0.0686 -0.1125
   81CHL1  H18C 8430   2.365   0.881   7.434 -1.8176 -0.7365 -0.2294
   81CHL1   C12 8431   2.119   1.028   7.441 -0.1066 -0.1070 -0.4877
   81CHL1  H12A 8432   2.050   0.951   7.481 -0.2104 -0.3377 -1.0918
   81CHL1  H12B 8433   2.071   1.127   7.432 -1.0167 -0.5291 -0.3246
   81CHL1   C11 8434   2.154   0.989   7.299 -0.7476  0.0470  0.6988
   81CHL1  H11A 8435   2.188   0.883   7.295 -4.5423 -1.3834  1.1790
   81CHL1  H11B 8436   2.061   0.984   7.237  0.5751 -1.2553 -1.3078
   81CHL1    C9 8437   2.252   1.090   7.233  1.4046 -0.1944  0.1460
   81CHL1    H9 8438   2.200   1.188   7.234  1.3264 -0.2129 -0.8745
   81CHL1   C10 8439   2.300   1.066   7.086 -0.5976 -0.1377  0.6703
   81CHL1   C19 8440   2.320   0.915   7.069 -0.4031 -0.2756  0.6702
   81CHL1  H19A 8441   2.389   0.875   7.146  0.0393  0.2010  0.5252
   81CHL1  H19B 8442   2.218   0.872   7.069 -0.9894  0.9799 -1.1091
   81CHL1  H19C 8443   2.370   0.895   6.972 -3.2449 -3.6981 -0.3158
   81CHL1    C1 8444   2.191   1.116   6.984 -0.2089  0.5126  0.8095
   81CHL1   H1A 8445   2.097   1.059   7.000 -0.5031  0.4210 -0.9873
   81CHL1   H1B 8446   2.154   1.217   7.012 -2.3386  0.6992 -2.1507
   81CHL1    C2 8447   2.227   1.102   6.837 -0.6730 -0.5344  0.8504
   81CHL1   H2A 8448   2.143   1.149   6.782 -1.9176 -1.7578  1.6337
   81CHL1   H2B 8449   2.243   0.995   6.810 -0.3204 -0.2064 -0.2962
   81CHL1   C20 8450   2.166   1.022   7.792  0.1745  0.0606 -0.3791
   81CHL1   H20 8451   2.206   0.919   7.792  0.0699 -0.0904 -3.4989
   81CHL1   C21 8452   2.012   1.001   7.756 -0.1950 -0.5867  0.8843
   81CHL1  H21A 8453   1.967   1.088   7.703  0.6692 -1.1900 -0.9206
   81CHL1  H21B 8454   1.957   0.978   7.850 -0.9585  1.0994  0.8965
   81CHL1  H21C 8455   2.002   0.917   7.685 -2.0042  3.1154 -3.7795
   81CHL1   C22 8456   2.203   1.092   7.929 -0.5653 -0.4290 -0.1555
   81CHL1  H22A 8457   2.313   1.092   7.945 -0.7006  0.1025  0.8927
   81CHL1  H22B 8458   2.178   1.200   7.940 -0.4592 -0.5906  2.3374
   81CHL1   C23 8459   2.147   1.013   8.049 -0.1449 -0.6925  0.5220
   81CHL1  H23A 8460   2.043   1.049   8.053  0.7900  2.3976 -0.5110
   81CHL1  H23B 8461   2.152   0.901   8.050 -0.2872 -0.6929  1.3032
   81CHL1   C24 8462   2.204   1.075   8.180  0.0783 -0.6194 -0.3191
   81CHL1  H24A 8463   2.315   1.081   8.182  0.0181  2.0183 -1.5906
   81CHL1  H24B 8464   2.176   1.182   8.186  1.9350 -0.1758  4.2330
   81CHL1   C25 8465   2.158   0.998   8.310 -0.1461  0.0387  0.2851
   81CHL1   H25 8466   2.158   0.888   8.294 -3.4394 -0.1083  0.6550
   81CHL1   C26 8467   2.267   1.025   8.419  0.0633  0.3294 -1.1078
   81CHL1  H26A 8468   2.239   0.972   8.513 -0.4248  1.8605 -0.3540
   81CHL1  H26B 8469   2.369   0.990   8.392 -0.0416 -0.2095 -0.8033
   81CHL1  H26C 8470   2.262   1.134   8.443 -2.2980  0.1514 -0.5861
   81CHL1   C27 8471   2.019   1.040   8.349  0.2616  0.5449  0.1278
   81CHL1  H27A 8472   1.946   1.017   8.268 -0.7560 -0.1449  1.2065
   81CHL1  H27B 8473   1.992   0.986   8.442 -1.2187 -1.5381 -1.4216
   81CHL1  H27C 8474   2.016   1.150   8.365  1.7181  0.5774  0.2829
   82CHL1    C3 8475   5.592   0.783   7.084 -0.4775 -0.0395  0.2022
   82CHL1    H3 8476   5.698   0.755   7.099 -0.4463 -0.8617 -1.2922
   82CHL1    O3 8477   5.560   0.783   6.948 -0.1721  0.2979 -0.2677
   82CHL1   H3' 8478   5.473   0.823   6.948 -0.7568 -0.9138  0.4932
   82CHL1    C4 8479   5.491   0.689   7.154  0.2813 -0.0258 -0.2744
   82CHL1   H4A 8480   5.391   0.734   7.137  0.3501 -0.3369 -1.5460
   82CHL1   H4B 8481   5.485   0.592   7.102 -0.5199  1.5763 -3.3825
   82CHL1    C5 8482   5.513   0.705   7.307 -0.0297 -0.0934  0.2484
   82CHL1    C6 8483   5.544   0.595   7.375  0.2788 -0.2419 -0.0138
   82CHL1    H6 8484   5.530   0.499   7.323 -2.8182  1.0688 -1.8604
   82CHL1    C7 8485   5.564   0.592   7.527  0.0088  0.1525  0.0274
   82CHL1   H7A 8486   5.491   0.521   7.572 -2.5530  1.4491 -1.8331
   82CHL1   H7B 8487   5.671   0.562   7.534 -0.4385 -2.6381 -2.6919
   82CHL1    C8 8488   5.536   0.723   7.600 -0.8634  0.0784  0.4635
   82CHL1    H8 8489   5.425   0.726   7.599 -0.9790 -1.0617  2.9962
   82CHL1   C14 8490   5.602   0.727   7.738  1.1237 -0.2188 -0.0444
   82CHL1   H14 8491   5.712   0.731   7.724  1.3665 -1.9891  1.1743
   82CHL1   C15 8492   5.580   0.604   7.819  0.4248  0.4729 -1.1984
   82CHL1  H15A 8493   5.476   0.569   7.802 -0.4248  2.4301 -0.3356
   82CHL1  H15B 8494   5.662   0.529   7.810  1.1908  0.4878  3.0829
   82CHL1   C16 8495   5.597   0.658   7.964 -0.4733  0.3197 -0.1319
   82CHL1  H16A 8496   5.509   0.622   8.022 -1.9906  2.3694 -1.0152
   82CHL1  H16B 8497   5.689   0.616   8.009  0.0857 -1.7052 -2.8553
   82CHL1   C17 8498   5.627   0.813   7.961  0.0210  0.0026  0.3591
   82CHL1   H17 8499   5.734   0.833   7.942 -0.1815 -0.4602 -1.5819
   82CHL1   C13 8500   5.560   0.854   7.821  0.2765  0.4741 -0.3392
   82CHL1   C18 8501   5.406   0.863   7.842  0.7715 -0.3034 -0.8861
   82CHL1  H18A 8502   5.361   0.766   7.870 -0.6886  1.3165  3.2235
   82CHL1  H18B 8503   5.381   0.936   7.922  1.9534 -1.4294  0.5745
   82CHL1  H18C 8504   5.349   0.889   7.750 -1.9129  1.7897  1.1876
   82CHL1   C12 8505   5.617   0.974   7.738  0.3664 -0.2566 -0.2457
   82CHL1  H12A 8506   5.597   1.065   7.797 -1.4854 -1.0259  0.3954
   82CHL1  H12B 8507   5.727   0.959   7.740  0.3751 -0.1771 -0.1550
   82CHL1   C11 8508   5.562   0.979   7.599 -0.0715  0.2030  0.3276
   82CHL1  H11A 8509   5.459   1.021   7.590  0.6189  1.4983 -3.2751
   82CHL1  H11B 8510   5.623   1.055   7.546 -0.9640  0.7901  0.1057
   82CHL1    C9 8511   5.585   0.849   7.519 -0.7134 -0.2094  0.0640
   82CHL1    H9 8512   5.694   0.834   7.504 -0.7232 -1.1861  0.8737
   82CHL1   C10 8513   5.518   0.846   7.377  0.1358 -0.7597  0.2908
   82CHL1   C19 8514   5.374   0.888   7.377  0.6230  0.1097  0.5783
   82CHL1  H19A 8515   5.366   0.995   7.403 -1.9440 -0.0112  0.5025
   82CHL1  H19B 8516   5.326   0.874   7.278  1.6643  2.4916 -0.3474
   82CHL1  H19C 8517   5.311   0.838   7.454  1.0002  0.2286  0.9715
   82CHL1    C1 8518   5.598   0.944   7.284  0.4490 -0.2686 -0.5204
   82CHL1   H1A 8519   5.576   1.044   7.327  1.4478 -0.7519  1.2330
   82CHL1   H1B 8520   5.707   0.932   7.305  1.2871  3.1638 -2.2327
   82CHL1    C2 8521   5.577   0.930   7.135 -0.0948  0.4810 -0.1832
   82CHL1   H2A 8522   5.660   0.984   7.084  0.2620 -1.3997 -1.7152
   82CHL1   H2B 8523   5.477   0.970   7.108 -0.1902 -0.2104 -0.9103
   82CHL1   C20 8524   5.574   0.885   8.091 -0.6834 -0.6849  0.3473
   82CHL1   H20 8525   5.465   0.860   8.088 -0.2279 -2.7318 -0.3105
   82CHL1   C21 8526   5.592   1.029   8.064  0.3766 -0.8284  0.0480
   82CHL1  H21A 8527   5.505   1.078   8.014  1.9131  2.8093  0.5846
   82CHL1  H21B 8528   5.677   1.042   7.994  0.3898 -1.8341 -0.1355
   82CHL1  H21C 8529   5.601   1.090   8.156  2.1821  1.5441 -1.5939
   82CHL1   C22 8530   5.620   0.827   8.224  0.0747  0.3652 -0.2857
   82CHL1  H22A 8531   5.579   0.898   8.300  2.0101  1.0311  0.1953
   82CHL1  H22B 8532   5.569   0.731   8.248 -0.8775  1.4005  2.1793
   82CHL1   C23 8533   5.769   0.815   8.240 -1.0614  0.3875 -0.5410
   82CHL1  H23A 8534   5.810   0.736   8.173  1.6788  1.0688  0.2203
   82CHL1  H23B 8535   5.811   0.915   8.217 -1.5574  0.7553  0.1203
   82CHL1   C24 8536   5.805   0.776   8.390  0.4701  0.3937  0.1051
   82CHL1  H24A 8537   5.765   0.853   8.459  0.3202  0.2394  0.1924
   82CHL1  H24B 8538   5.744   0.686   8.413 -0.7923  1.0206 -0.7282
   82CHL1   C25 8539   5.956   0.758   8.425  0.7703 -1.0856  0.1849
   82CHL1   H25 8540   6.002   0.858   8.408  1.5202 -1.3754  0.4782
   82CHL1   C26 8541   5.975   0.713   8.573 -0.0178  0.5318 -0.3440
   82CHL1  H26A 8542   6.081   0.724   8.605  0.4182 -0.1336 -1.4703
   82CHL1  H26B 8543   5.911   0.779   8.633 -0.7393  0.2062 -0.7410
   82CHL1  H26C 8544   5.945   0.606   8.580  2.1024 -0.0297  1.4989
   82CHL1   C27 8545   6.021   0.654   8.338 -0.0438  0.2532  0.4027
   82CHL1  H27A 8546   6.126   0.641   8.373 -0.6809  0.9577  2.7582
   82CHL1  H27B 8547   5.966   0.559   8.349  0.6473 -0.6352 -2.7024
   82CHL1  H27C 8548   6.018   0.684   8.231 -0.7928 -1.7013 -0.1478
   83CHL1    C3 8549   1.209   2.745   6.941  0.6778  0.0602  0.0866
   83CHL1    H3 8550   1.281   2.665   6.967  1.0536  1.0439  2.2434
   83CHL1    O3 8551   1.195   2.767   6.799  0.1569 -0.4586 -0.6305
   83CHL1   H3' 8552   1.142   2.847   6.792 -1.3054 -0.7579  3.9481
   83CHL1    C4 8553   1.074   2.691   7.002 -0.2367  0.0191 -0.3257
   83CHL1   H4A 8554   0.998   2.763   6.966 -1.1918  0.0630  1.6626
   83CHL1   H4B 8555   1.037   2.599   6.951 -0.2369 -0.0696 -0.1639
   83CHL1    C5 8556   1.061   2.679   7.156  0.1717 -0.5030  0.4101
   83CHL1    C6 8557   1.016   2.565   7.217  0.2374 -0.5484  0.3095
   83CHL1    H6 8558   0.982   2.492   7.141  1.5132 -0.9395  0.0935
   83CHL1    C7 8559   0.996   2.552   7.365 -0.3080 -0.0031 -0.4550
   83CHL1   H7A 8560   0.897   2.509   7.392  1.0495 -1.8525  2.0250
   83CHL1   H7B 8561   1.074   2.485   7.408 -0.8084  1.6355  3.3950
   83CHL1    C8 8562   1.023   2.677   7.444  0.1306 -0.0394 -0.6870
   83CHL1    H8 8563   0.933   2.741   7.440 -0.0461 -0.1291  0.9489
   83CHL1   C14 8564   1.051   2.653   7.587  0.2999 -0.3994 -0.6432
   83CHL1   H14 8565   1.138   2.584   7.588 -0.5303 -1.5351 -2.5402
   83CHL1   C15 8566   0.933   2.576   7.654  0.3702  0.5333 -0.2514
   83CHL1  H15A 8567   0.838   2.627   7.631 -0.2336 -0.2857  0.3420
   83CHL1  H15B 8568   0.924   2.468   7.628 -2.8336  0.8351 -0.6743
   83CHL1   C16 8569   0.961   2.597   7.805 -0.3124 -0.0317 -0.3213
   83CHL1  H16A 8570   0.872   2.641   7.854 -0.7694 -1.4147  0.1599
   83CHL1  H16B 8571   0.984   2.505   7.863  2.4551  0.6374 -0.2449
   83CHL1   C17 8572   1.083   2.693   7.814 -0.1997  0.0584 -0.7721
   83CHL1   H17 8573   1.172   2.628   7.824 -0.7542 -0.6325 -0.2127
   83CHL1   C13 8574   1.082   2.774   7.680  0.2505  0.4802 -0.5626
   83CHL1   C18 8575   0.970   2.880   7.686 -0.0542  0.3680  0.3567
   83CHL1  H18A 8576   0.936   2.891   7.581 -0.9306  0.0177  0.5903
   83CHL1  H18B 8577   0.877   2.859   7.744  0.1941  2.5420  1.6644
   83CHL1  H18C 8578   1.013   2.971   7.733 -0.6262  1.7208 -1.6069
   83CHL1   C12 8579   1.204   2.840   7.622 -0.0897  0.6555 -0.3154
   83CHL1  H12A 8580   1.238   2.930   7.679  0.9691  0.0634  0.0257
   83CHL1  H12B 8581   1.297   2.779   7.626  0.3361  1.2501 -0.8321
   83CHL1   C11 8582   1.183   2.881   7.473  0.3998  0.5343 -0.8409
   83CHL1  H11A 8583   1.114   2.968   7.466  0.1864  0.4066 -0.3219
   83CHL1  H11B 8584   1.279   2.912   7.427 -0.6431  0.6903 -3.0632
   83CHL1    C9 8585   1.140   2.756   7.385  0.2762  0.6238 -0.0171
   83CHL1    H9 8586   1.222   2.681   7.378 -1.9845 -1.8782 -1.1869
   83CHL1   C10 8587   1.121   2.798   7.233 -0.0123 -0.1193 -0.5801
   83CHL1   C19 8588   1.025   2.916   7.230 -0.1578 -0.0861  0.1295
   83CHL1  H19A 8589   1.081   3.003   7.272  3.8135 -2.2724 -0.0683
   83CHL1  H19B 8590   0.993   2.946   7.128 -1.2336  1.1820  0.8120
   83CHL1  H19C 8591   0.932   2.900   7.288 -1.0412  0.8793 -0.9724
   83CHL1    C1 8592   1.253   2.859   7.173  0.3739 -0.3876  0.3980
   83CHL1   H1A 8593   1.292   2.956   7.211 -0.6495  0.3401 -0.3473
   83CHL1   H1B 8594   1.335   2.786   7.188  1.4812  0.2581 -1.9752
   83CHL1    C2 8595   1.253   2.877   7.016 -0.2300 -0.4665 -0.0551
   83CHL1   H2A 8596   1.352   2.905   6.976 -0.5673  0.9965  0.0589
   83CHL1   H2B 8597   1.176   2.954   6.993 -1.4812 -1.1985  1.4743
   83CHL1   C20 8598   1.096   2.770   7.948  0.4621 -0.6236 -1.0438
   83CHL1   H20 8599   1.031   2.860   7.952  0.2643 -0.8000  2.6959
   83CHL1   C21 8600   1.244   2.828   7.966 -0.0045  0.1404 -0.3241
   83CHL1  H21A 8601   1.250   2.903   8.049 -0.7809 -0.3584  0.1948
   83CHL1  H21B 8602   1.275   2.876   7.871 -0.6758  0.4108 -0.4132
   83CHL1  H21C 8603   1.317   2.748   7.993 -0.8452 -0.6411 -0.3123
   83CHL1   C22 8604   1.064   2.679   8.073  0.3430  0.0062  0.0792
   83CHL1  H22A 8605   0.968   2.626   8.054  1.6379 -3.2755  2.0346
   83CHL1  H22B 8606   1.143   2.601   8.081 -0.3294 -0.6656  0.2352
   83CHL1   C23 8607   1.052   2.759   8.205 -0.4777  0.6033  0.7353
   83CHL1  H23A 8608   1.158   2.787   8.226 -0.3064  0.8158 -0.3325
   83CHL1  H23B 8609   1.007   2.858   8.184  0.8202  1.1356  0.3122
   83CHL1   C24 8610   0.988   2.669   8.304 -0.1692  0.1263 -0.8387
   83CHL1  H24A 8611   0.892   2.634   8.259 -0.0290 -1.9607  0.3690
   83CHL1  H24B 8612   1.052   2.579   8.311  1.7603  1.5405  1.6159
   83CHL1   C25 8613   0.975   2.729   8.448 -0.0498 -0.4668 -0.5873
   83CHL1   H25 8614   1.079   2.744   8.485 -0.1113  2.0335 -1.2568
   83CHL1   C26 8615   0.901   2.871   8.453  0.3977 -0.0378 -0.1485
   83CHL1  H26A 8616   0.982   2.944   8.434 -1.1542  1.8278  0.0851
   83CHL1  H26B 8617   0.811   2.869   8.387  0.5457 -1.9990 -0.3540
   83CHL1  H26C 8618   0.870   2.893   8.558  0.8883 -1.1659  0.2563
   83CHL1   C27 8619   0.905   2.636   8.553 -1.2567 -0.1411 -0.1981
   83CHL1  H27A 8620   0.796   2.633   8.532 -1.5214 -0.9043  1.1918
   83CHL1  H27B 8621   0.951   2.535   8.551  3.8919  1.8580  0.7903
   83CHL1  H27C 8622   0.927   2.671   8.656 -3.1648 -1.3460  0.6621
   84CHL1    C3 8623   3.553   4.845   6.834 -0.2293  0.4717 -0.0779
   84CHL1    H3 8624   3.603   4.942   6.853  0.0567  0.4810 -0.8590
   84CHL1    O3 8625   3.558   4.803   6.699  0.4071 -0.5800  0.6245
   84CHL1   H3' 8626   3.565   4.707   6.696  2.1381 -0.5206  1.5595
   84CHL1    C4 8627   3.622   4.736   6.923 -0.4882 -0.7499  0.3152
   84CHL1   H4A 8628   3.567   4.641   6.907 -0.1061 -0.6368 -2.0677
   84CHL1   H4B 8629   3.717   4.705   6.874 -0.8621 -0.7583 -0.4261
   84CHL1    C5 8630   3.626   4.768   7.069  0.0580  0.8754  0.8722
   84CHL1    C6 8631   3.745   4.786   7.122 -0.2012  0.4128  0.5643
   84CHL1    H6 8632   3.833   4.767   7.059 -0.3415 -0.7283  0.6857
   84CHL1    C7 8633   3.758   4.836   7.267  0.2583  0.6033  0.4582
   84CHL1   H7A 8634   3.832   4.777   7.324  0.6158  0.2515 -0.3509
   84CHL1   H7B 8635   3.800   4.939   7.264  1.7265  0.0181  0.1858
   84CHL1    C8 8636   3.620   4.844   7.338  0.0154 -1.0927 -0.4066
   84CHL1    H8 8637   3.606   4.737   7.365 -1.7838 -1.3650 -2.1942
   84CHL1   C14 8638   3.617   4.928   7.466 -0.1344 -0.1893 -0.1655
   84CHL1   H14 8639   3.633   5.032   7.430 -3.9396  0.1272 -1.3558
   84CHL1   C15 8640   3.730   4.904   7.573 -0.3755 -0.0519  0.5751
   84CHL1  H15A 8641   3.752   4.802   7.612  0.1407  0.6761  2.2421
   84CHL1  H15B 8642   3.823   4.963   7.560  0.4994 -0.6806  3.3084
   84CHL1   C16 8643   3.672   4.971   7.701 -0.2138 -0.3578  0.2007
   84CHL1  H16A 8644   3.655   4.903   7.786 -1.8241  0.9840  1.0229
   84CHL1  H16B 8645   3.735   5.054   7.739  2.5308 -1.6224 -1.2852
   84CHL1   C17 8646   3.529   5.022   7.668  0.1740 -0.6333  0.2309
   84CHL1   H17 8647   3.549   5.123   7.626 -0.8900  0.0234  1.2315
   84CHL1   C13 8648   3.487   4.932   7.548 -0.1431 -0.0455  0.1512
   84CHL1   C18 8649   3.449   4.791   7.598  0.4050  0.9393  0.4846
   84CHL1  H18A 8650   3.530   4.764   7.669  2.4959  0.2442 -2.0314
   84CHL1  H18B 8651   3.353   4.792   7.654 -0.2867 -2.2287 -0.4842
   84CHL1  H18C 8652   3.449   4.721   7.512  2.6257  1.4037  0.0539
   84CHL1   C12 8653   3.386   4.992   7.451  0.7428 -0.4861 -0.2201
   84CHL1  H12A 8654   3.285   5.016   7.491  0.8313  0.3380 -0.4883
   84CHL1  H12B 8655   3.418   5.096   7.430 -1.4398  0.0902 -0.9717
   84CHL1   C11 8656   3.364   4.905   7.329  0.7700 -0.4971  0.4016
   84CHL1  H11A 8657   3.319   4.806   7.350  0.9214 -1.1532 -2.0890
   84CHL1  H11B 8658   3.298   4.965   7.262  0.3845 -0.8804  0.4370
   84CHL1    C9 8659   3.497   4.886   7.251  0.0354  0.1813 -0.3437
   84CHL1    H9 8660   3.518   4.992   7.226  0.6164  0.3017  0.6172
   84CHL1   C10 8661   3.493   4.808   7.123  0.4901 -0.0835 -0.3416
   84CHL1   C19 8662   3.421   4.667   7.150  0.2430  0.2031  0.0313
   84CHL1  H19A 8663   3.312   4.681   7.166  0.5759  3.6567 -0.1002
   84CHL1  H19B 8664   3.412   4.616   7.051 -0.1637 -1.0377  0.6893
   84CHL1  H19C 8665   3.473   4.617   7.235  0.0701  1.1483  0.7013
   84CHL1    C1 8666   3.413   4.894   7.023  0.2342  0.3150 -0.2102
   84CHL1   H1A 8667   3.305   4.895   7.050  0.9085 -0.0540  2.8667
   84CHL1   H1B 8668   3.442   5.001   7.035  3.5723 -0.6254  1.2207
   84CHL1    C2 8669   3.419   4.854   6.882  0.3083 -0.4290 -0.1094
   84CHL1   H2A 8670   3.369   4.931   6.818  0.4406 -0.8890 -0.7757
   84CHL1   H2B 8671   3.364   4.760   6.859  0.3978 -0.3998 -0.4495
   84CHL1   C20 8672   3.432   5.034   7.789  0.3747  0.8223 -0.6196
   84CHL1   H20 8673   3.415   4.940   7.844  0.1071  2.2671  1.8959
   84CHL1   C21 8674   3.297   5.077   7.752  0.2007 -0.4678 -0.1457
   84CHL1  H21A 8675   3.301   5.147   7.666 -1.3758  0.4457  0.4842
   84CHL1  H21B 8676   3.246   5.144   7.824  0.8764  1.2755 -1.2249
   84CHL1  H21C 8677   3.223   5.000   7.722 -1.7427  1.2684  0.0093
   84CHL1   C22 8678   3.484   5.124   7.906 -0.4336 -0.2990 -0.0607
   84CHL1  H22A 8679   3.409   5.157   7.982 -0.4289 -1.0289  0.2719
   84CHL1  H22B 8680   3.565   5.071   7.962  1.6676  2.3144 -0.4366
   84CHL1   C23 8681   3.552   5.254   7.858 -0.5404 -0.8365  0.3624
   84CHL1  H23A 8682   3.644   5.235   7.799 -0.0441 -3.0954  1.7116
   84CHL1  H23B 8683   3.492   5.307   7.782 -2.2108 -1.5088  1.1657
   84CHL1   C24 8684   3.578   5.349   7.983  0.2829  0.0248  0.5514
   84CHL1  H24A 8685   3.485   5.399   8.017 -2.0973 -2.1199 -2.2251
   84CHL1  H24B 8686   3.638   5.286   8.052  0.4066 -1.4226 -0.8201
   84CHL1   C25 8687   3.675   5.470   7.965  0.4005 -0.0438 -0.3633
   84CHL1   H25 8688   3.767   5.429   7.919 -0.1473 -2.2229  0.3892
   84CHL1   C26 8689   3.610   5.567   7.869 -0.5107 -0.0841 -0.3624
   84CHL1  H26A 8690   3.662   5.665   7.869  0.6288 -0.6642 -0.7317
   84CHL1  H26B 8691   3.627   5.524   7.767  2.9733 -0.4248  0.2396
   84CHL1  H26C 8692   3.501   5.576   7.889 -0.3914 -1.2131  0.9268
   84CHL1   C27 8693   3.704   5.529   8.098  0.0006  0.6859  0.0757
   84CHL1  H27A 8694   3.742   5.449   8.165  1.2194  1.1694 -0.0073
   84CHL1  H27B 8695   3.782   5.607   8.102  1.4520 -0.7411  1.2290
   84CHL1  H27C 8696   3.617   5.574   8.150 -1.0871 -1.4596  0.2508
   85CHL1    C3 8697   1.894   2.164   6.679 -0.1395  0.1612  0.1017
   85CHL1    H3 8698   1.972   2.241   6.700 -0.3088 -0.0963  1.8291
   85CHL1    O3 8699   1.855   2.156   6.545  0.7713 -0.3384 -0.0760
   85CHL1   H3' 8700   1.766   2.191   6.555  0.5851 -0.9115  0.3255
   85CHL1    C4 8701   1.957   2.034   6.733  0.8700  0.8921 -0.2549
   85CHL1   H4A 8702   1.882   1.952   6.723 -0.0270  1.6295  0.2483
   85CHL1   H4B 8703   2.037   2.005   6.662  0.3403 -1.4270  0.0012
   85CHL1    C5 8704   1.995   2.038   6.878 -0.1823  0.3899  0.7170
   85CHL1    C6 8705   2.113   1.996   6.915  0.6116  0.2508 -0.1286
   85CHL1    H6 8706   2.179   1.949   6.840  2.6249  0.5943  1.3341
   85CHL1    C7 8707   2.163   2.000   7.057 -0.0667 -0.3455 -0.1642
   85CHL1   H7A 8708   2.221   1.907   7.072 -1.7814 -1.3261  0.7032
   85CHL1   H7B 8709   2.216   2.094   7.085 -0.8552  0.2807 -0.7128
   85CHL1    C8 8710   2.037   2.001   7.153  0.2729 -0.2477  0.1905
   85CHL1    H8 8711   1.988   1.902   7.147 -0.3310 -0.1838  2.9456
   85CHL1   C14 8712   2.081   2.023   7.297  0.1258 -0.4133 -0.3814
   85CHL1   H14 8713   2.145   2.113   7.287  0.4341 -0.7102 -1.1947
   85CHL1   C15 8714   2.176   1.923   7.361  0.3447 -0.1439 -0.1140
   85CHL1  H15A 8715   2.133   1.821   7.355 -1.2219  0.3121  2.1928
   85CHL1  H15B 8716   2.284   1.940   7.337  1.2479  2.6479  4.6061
   85CHL1   C16 8717   2.170   1.968   7.508 -0.2862 -0.0209 -0.1433
   85CHL1  H16A 8718   2.174   1.872   7.564  0.3902 -0.4463 -0.8964
   85CHL1  H16B 8719   2.265   2.016   7.538 -0.4658 -0.0853  0.5349
   85CHL1   C17 8720   2.047   2.065   7.526 -0.1285  0.5480 -1.0385
   85CHL1   H17 8721   2.092   2.165   7.542  0.7251  0.2465 -1.4462
   85CHL1   C13 8722   1.966   2.060   7.396 -0.0516 -0.0175  0.0493
   85CHL1   C18 8723   1.873   1.937   7.407  0.4003 -0.6266  0.6933
   85CHL1  H18A 8724   1.785   1.960   7.470  0.0093  0.8357 -0.3459
   85CHL1  H18B 8725   1.826   1.913   7.309 -0.4265  0.9893  0.6623
   85CHL1  H18C 8726   1.919   1.843   7.446 -0.8315 -0.8996  1.5403
   85CHL1   C12 8727   1.889   2.193   7.353 -1.0926 -0.0722  0.0673
   85CHL1  H12A 8728   1.800   2.213   7.416 -1.9439 -1.0159 -0.7988
   85CHL1  H12B 8729   1.955   2.283   7.356 -0.3896 -0.5843  3.2118
   85CHL1   C11 8730   1.835   2.166   7.211 -0.1547  0.2409 -0.5800
   85CHL1  H11A 8731   1.756   2.089   7.219 -0.4849  0.6123 -0.2231
   85CHL1  H11B 8732   1.793   2.265   7.182  0.8076  0.7367 -0.3286
   85CHL1    C9 8733   1.948   2.116   7.110  0.4999 -0.0803  0.7658
   85CHL1    H9 8734   2.020   2.199   7.092  0.6098 -0.6507 -1.8355
   85CHL1   C10 8735   1.890   2.099   6.969  0.4191 -0.3753  0.9343
   85CHL1   C19 8736   1.786   1.989   6.960  0.5422  0.4561  0.3452
   85CHL1  H19A 8737   1.691   2.014   7.012  0.1140  0.0616 -0.2273
   85CHL1  H19B 8738   1.749   1.954   6.861  1.6070 -1.3485  0.5274
   85CHL1  H19C 8739   1.834   1.897   7.001  1.3133  1.1284  0.9777
   85CHL1    C1 8740   1.815   2.225   6.917  0.2083 -0.0227  0.4188
   85CHL1   H1A 8741   1.726   2.260   6.973  0.1244  0.6222 -0.0981
   85CHL1   H1B 8742   1.878   2.317   6.913 -1.4738  1.1526 -0.3194
   85CHL1    C2 8743   1.772   2.201   6.766 -0.7327  0.0637  0.2730
   85CHL1   H2A 8744   1.716   2.286   6.721 -0.2621  0.4634  0.4219
   85CHL1   H2B 8745   1.700   2.117   6.763  0.1541 -0.6836 -2.7343
   85CHL1   C20 8746   1.983   2.045   7.660  0.7842 -0.7299 -0.3564
   85CHL1   H20 8747   1.922   1.952   7.651  0.3072 -0.6184  1.3430
   85CHL1   C21 8748   1.885   2.167   7.694  0.0947  0.2179  0.8004
   85CHL1  H21A 8749   1.931   2.265   7.667 -1.3374  0.5515 -0.5390
   85CHL1  H21B 8750   1.855   2.165   7.801  0.0508  2.0025  0.8626
   85CHL1  H21C 8751   1.788   2.154   7.643 -0.0783 -0.1464  1.2169
   85CHL1   C22 8752   2.089   2.027   7.777  1.0679  0.2377 -0.8259
   85CHL1  H22A 8753   2.152   1.935   7.768  0.3743 -1.0813  4.3850
   85CHL1  H22B 8754   2.152   2.118   7.787  1.9730 -0.4711  0.3058
   85CHL1   C23 8755   2.025   1.994   7.914 -0.2577 -0.1186  0.7322
   85CHL1  H23A 8756   1.965   2.082   7.942 -0.2350  0.0572  0.2375
   85CHL1  H23B 8757   1.963   1.904   7.896  0.0717  0.0604 -1.7069
   85CHL1   C24 8758   2.120   1.975   8.030  0.3886  0.6456 -0.9074
   85CHL1  H24A 8759   2.190   1.890   8.012  2.0001  1.4764  1.0594
   85CHL1  H24B 8760   2.194   2.056   8.046  0.8310 -0.1806  1.8489
   85CHL1   C25 8761   2.042   1.963   8.165 -0.5170  0.3159 -0.6543
   85CHL1   H25 8762   1.985   2.057   8.178  1.8104  1.9191 -1.3086
   85CHL1   C26 8763   1.948   1.837   8.163  0.4627  0.1070  0.5615
   85CHL1  H26A 8764   1.993   1.737   8.181 -0.9448 -0.6471  0.0337
   85CHL1  H26B 8765   1.865   1.858   8.233  0.9225  2.5551  0.4801
   85CHL1  H26C 8766   1.896   1.829   8.065 -0.0519 -1.5301  0.9405
   85CHL1   C27 8767   2.130   1.953   8.286 -0.0618  0.5717  0.2428
   85CHL1  H27A 8768   2.075   1.987   8.376 -0.7293  1.9196 -0.6510
   85CHL1  H27B 8769   2.174   1.851   8.298  0.1609  0.8309  1.9115
   85CHL1  H27C 8770   2.216   2.023   8.272  1.0272 -0.2102  2.4141
   86CHL1    C3 8771   3.566   1.110   6.901 -0.0644  0.7915 -0.6028
   86CHL1    H3 8772   3.518   1.024   6.953  1.0592 -0.8048 -2.1046
   86CHL1    O3 8773   3.598   1.073   6.769 -0.3286 -0.2212  0.4133
   86CHL1   H3' 8774   3.634   1.156   6.736  0.1859 -0.6773 -0.1994
   86CHL1    C4 8775   3.468   1.231   6.901 -0.3490  1.1435 -0.0617
   86CHL1   H4A 8776   3.501   1.302   6.823 -0.5285  0.9081 -0.3575
   86CHL1   H4B 8777   3.368   1.191   6.873 -0.0887 -1.2396  2.0227
   86CHL1    C5 8778   3.444   1.293   7.035 -1.0004  0.1185  0.5307
   86CHL1    C6 8779   3.318   1.312   7.070  0.2173 -0.4248 -0.4478
   86CHL1    H6 8780   3.239   1.291   6.996 -0.6479  2.1800 -0.3660
   86CHL1    C7 8781   3.277   1.376   7.201  0.5243  0.1773  0.0470
   86CHL1   H7A 8782   3.205   1.458   7.184  2.9069  2.4379  0.2879
   86CHL1   H7B 8783   3.209   1.310   7.259 -0.8862  0.5022 -1.1734
   86CHL1    C8 8784   3.398   1.432   7.279 -0.4206  0.6950  0.7054
   86CHL1    H8 8785   3.427   1.530   7.236 -1.6830  0.9042  0.2753
   86CHL1   C14 8786   3.359   1.453   7.423  0.2777 -0.0708  0.2513
   86CHL1   H14 8787   3.336   1.351   7.460  1.6088 -0.9670 -1.2605
   86CHL1   C15 8788   3.232   1.534   7.449  0.3928 -0.0655  0.0316
   86CHL1  H15A 8789   3.238   1.631   7.395  1.6071  1.1714  2.2568
   86CHL1  H15B 8790   3.136   1.480   7.440  0.0062  0.3107  1.6886
   86CHL1   C16 8791   3.237   1.574   7.595 -1.0235  0.2860  0.2109
   86CHL1  H16A 8792   3.217   1.680   7.623  2.1157  0.6386  1.5301
   86CHL1  H16B 8793   3.164   1.512   7.651 -2.4569 -0.0843 -1.9638
   86CHL1   C17 8794   3.379   1.528   7.644  0.5148  0.3213 -0.3797
   86CHL1   H17 8795   3.366   1.424   7.679  1.5164 -0.6740 -2.8047
   86CHL1   C13 8796   3.471   1.503   7.512  0.2818 -0.6481 -0.4810
   86CHL1   C18 8797   3.517   1.650   7.475  0.6608  0.9695  0.1232
   86CHL1  H18A 8798   3.566   1.653   7.376  1.1995 -2.2078  0.1751
   86CHL1  H18B 8799   3.428   1.717   7.480 -0.7762 -0.7330 -1.1635
   86CHL1  H18C 8800   3.592   1.679   7.551 -1.5158  2.3787  1.8692
   86CHL1   C12 8801   3.577   1.396   7.522  0.0471 -0.1190 -0.1819
   86CHL1  H12A 8802   3.664   1.414   7.588  0.6636  0.0925 -1.0413
   86CHL1  H12B 8803   3.533   1.304   7.567  1.7387 -1.2170 -0.6976
   86CHL1   C11 8804   3.623   1.380   7.379 -0.3138  0.1722  0.6593
   86CHL1  H11A 8805   3.682   1.466   7.342  3.2564 -2.6387 -0.7715
   86CHL1  H11B 8806   3.696   1.297   7.378  1.4355  1.6549  0.6110
   86CHL1    C9 8807   3.514   1.337   7.274  0.6760  0.1910 -0.0379
   86CHL1    H9 8808   3.493   1.234   7.309  3.3048 -0.1634  0.6622
   86CHL1   C10 8809   3.570   1.316   7.129  0.1309  0.2484  0.6230
   86CHL1   C19 8810   3.646   1.445   7.077  0.8155 -0.0460  0.0444
   86CHL1  H19A 8811   3.677   1.422   6.973  0.6585  0.0071 -0.0147
   86CHL1  H19B 8812   3.568   1.522   7.058  0.0522 -0.5775  0.9234
   86CHL1  H19C 8813   3.725   1.496   7.135  1.5446  1.0699 -1.8395
   86CHL1    C1 8814   3.669   1.198   7.116 -0.8044  0.4348 -0.5374
   86CHL1   H1A 8815   3.764   1.218   7.170 -2.4247 -0.4298  2.8794
   86CHL1   H1B 8816   3.616   1.112   7.162  2.4268 -1.6172 -0.3544
   86CHL1    C2 8817   3.695   1.146   6.969  0.0877 -0.4826 -0.0853
   86CHL1   H2A 8818   3.762   1.058   6.968  0.3175 -0.3167  0.4912
   86CHL1   H2B 8819   3.751   1.232   6.928  2.0835 -0.7212  1.9401
   86CHL1   C20 8820   3.438   1.614   7.755  0.3371 -0.4685 -0.6943
   86CHL1   H20 8821   3.456   1.718   7.719  1.4664 -1.0228 -1.8167
   86CHL1   C21 8822   3.569   1.569   7.809  0.2563 -0.0560 -0.6790
   86CHL1  H21A 8823   3.643   1.572   7.726  0.5662 -1.4262 -0.4744
   86CHL1  H21B 8824   3.567   1.463   7.843 -0.2145  1.1789  3.7059
   86CHL1  H21C 8825   3.587   1.635   7.897 -1.8704  0.3155 -0.4772
   86CHL1   C22 8826   3.333   1.632   7.871 -0.0449 -0.1357 -0.3968
   86CHL1  H22A 8827   3.370   1.722   7.925  0.4073  0.2873 -1.3883
   86CHL1  H22B 8828   3.237   1.677   7.840  1.4773  2.2555 -2.0298
   86CHL1   C23 8829   3.306   1.519   7.966 -0.2219  0.0416 -0.4638
   86CHL1  H23A 8830   3.252   1.437   7.915 -2.1597  1.1608 -0.3124
   86CHL1  H23B 8831   3.398   1.488   8.020 -1.0748  1.8042  2.2291
   86CHL1   C24 8832   3.226   1.585   8.077  0.0233 -0.1121  0.0696
   86CHL1  H24A 8833   3.299   1.640   8.139  0.1229  1.2866 -1.2395
   86CHL1  H24B 8834   3.157   1.659   8.030  1.1144  0.7039 -0.2892
   86CHL1   C25 8835   3.154   1.492   8.175 -0.5975 -0.7311 -0.6537
   86CHL1   H25 8836   3.234   1.427   8.216  0.9252  1.2442 -0.3382
   86CHL1   C26 8837   3.101   1.569   8.304 -0.2526  0.0521 -0.1045
   86CHL1  H26A 8838   3.186   1.594   8.370 -1.8246  0.2170  1.9628
   86CHL1  H26B 8839   3.049   1.660   8.267 -3.3240 -0.8555  1.6349
   86CHL1  H26C 8840   3.026   1.522   8.371 -1.7278  2.2848 -0.0821
   86CHL1   C27 8841   3.053   1.397   8.115 -0.5688 -0.5951  0.0034
   86CHL1  H27A 8842   3.117   1.325   8.058 -0.3805  0.4146 -1.0932
   86CHL1  H27B 8843   3.001   1.337   8.193  0.0785  1.7192  2.3361
   86CHL1  H27C 8844   2.978   1.441   8.046 -0.4186  0.6101  0.5805
   87CHL1    C3 8845   4.913   0.303   6.969 -0.4955 -0.1873 -0.6303
   87CHL1    H3 8846   4.820   0.267   7.017 -0.5682 -1.1010 -1.4145
   87CHL1    O3 8847   4.935   0.244   6.843  0.0622 -0.4235 -0.1904
   87CHL1   H3' 8848   4.919   0.150   6.854  1.4110 -0.6167  0.4040
   87CHL1    C4 8849   4.919   0.451   6.964  0.3272  0.3127  0.2389
   87CHL1   H4A 8850   5.011   0.493   6.917 -1.0518  1.2029 -1.8074
   87CHL1   H4B 8851   4.841   0.486   6.893 -0.1953 -1.5743 -0.1658
   87CHL1    C5 8852   4.896   0.519   7.100 -0.0012  0.4250  0.3539
   87CHL1    C6 8853   4.805   0.607   7.123 -0.4019  0.2534  0.7881
   87CHL1    H6 8854   4.740   0.633   7.038 -0.3410 -2.0399 -0.0174
   87CHL1    C7 8855   4.777   0.689   7.248  0.8784  0.3756  0.0744
   87CHL1   H7A 8856   4.765   0.797   7.224 -1.7168 -0.2209 -1.7757
   87CHL1   H7B 8857   4.679   0.677   7.298  0.7853  1.6262  0.2163
   87CHL1    C8 8858   4.891   0.664   7.351  0.4316 -0.1839  0.2129
   87CHL1    H8 8859   4.978   0.729   7.328 -0.1707  1.5802  2.5418
   87CHL1   C14 8860   4.841   0.687   7.487  0.5484 -0.8195 -0.4014
   87CHL1   H14 8861   4.767   0.608   7.515 -1.3897  1.0041 -0.0950
   87CHL1   C15 8862   4.767   0.825   7.508 -0.2681 -0.4023  0.9455
   87CHL1  H15A 8863   4.830   0.898   7.452 -1.0599 -1.9696 -2.2206
   87CHL1  H15B 8864   4.664   0.827   7.466 -1.1293  1.4456  2.9701
   87CHL1   C16 8865   4.766   0.847   7.661 -0.5759  0.1575 -0.3932
   87CHL1  H16A 8866   4.795   0.953   7.678  0.0942  0.0204 -0.6503
   87CHL1  H16B 8867   4.663   0.814   7.685 -0.9452  0.2871 -1.6985
   87CHL1   C17 8868   4.876   0.749   7.716 -0.5453 -0.1890  0.1652
   87CHL1   H17 8869   4.815   0.662   7.749 -1.1714 -0.8714 -2.5575
   87CHL1   C13 8870   4.955   0.696   7.588  1.0226 -0.2853 -0.6855
   87CHL1   C18 8871   5.066   0.800   7.558  0.5700 -0.0796 -0.5039
   87CHL1  H18A 8872   5.146   0.772   7.630  0.9288  2.2450  0.0683
   87CHL1  H18B 8873   5.113   0.778   7.460  0.7492  0.7436 -0.6054
   87CHL1  H18C 8874   5.032   0.906   7.564 -0.5581 -0.3310 -1.7711
   87CHL1   C12 8875   5.011   0.553   7.600 -0.2291 -0.0692 -1.0071
   87CHL1  H12A 8876   5.089   0.544   7.678  0.3150 -0.7438 -1.6092
   87CHL1  H12B 8877   4.926   0.486   7.626 -0.4215  0.3504 -0.5519
   87CHL1   C11 8878   5.058   0.498   7.466  0.2330 -0.6797 -0.0709
   87CHL1  H11A 8879   5.147   0.559   7.444  0.1871  0.6616  2.9905
   87CHL1  H11B 8880   5.084   0.390   7.473  2.2632 -0.1613  1.0041
   87CHL1    C9 8881   4.954   0.525   7.349  0.5546  0.3164  0.2818
   87CHL1    H9 8882   4.874   0.454   7.378 -1.1392  2.4377  1.1126
   87CHL1   C10 8883   4.994   0.472   7.209  0.3873 -0.0708 -0.5139
   87CHL1   C19 8884   5.131   0.533   7.179 -0.8834 -0.8589 -0.3778
   87CHL1  H19A 8885   5.156   0.510   7.073 -3.3075  0.6770 -1.3728
   87CHL1  H19B 8886   5.131   0.644   7.190 -0.9408 -1.0573  2.3095
   87CHL1  H19C 8887   5.212   0.487   7.238  0.0614  1.1610 -0.0146
   87CHL1    C1 8888   5.008   0.322   7.204 -0.4571  0.2242  0.2745
   87CHL1   H1A 8889   5.090   0.276   7.264  0.7111  3.1297  1.0397
   87CHL1   H1B 8890   4.910   0.279   7.236  0.2846 -0.8989  1.1587
   87CHL1    C2 8891   5.022   0.256   7.066  0.0713  0.5153  0.6237
   87CHL1   H2A 8892   5.019   0.145   7.069 -4.2216  0.4980  1.4958
   87CHL1   H2B 8893   5.115   0.300   7.023  0.4935  0.8906  1.8825
   87CHL1   C20 8894   4.962   0.817   7.828  0.5749  1.1523  0.4937
   87CHL1   H20 8895   5.037   0.889   7.791  0.0142  1.3692 -0.2420
   87CHL1   C21 8896   5.055   0.712   7.902  0.4114 -0.1547 -0.0120
   87CHL1  H21A 8897   5.144   0.689   7.839  0.4457  1.1960 -0.4813
   87CHL1  H21B 8898   4.999   0.618   7.922 -0.6781  0.2104 -1.2318
   87CHL1  H21C 8899   5.095   0.756   7.996 -0.3692 -0.6588  0.5701
   87CHL1   C22 8900   4.873   0.888   7.930 -0.2592  0.2544  0.5777
   87CHL1  H22A 8901   4.931   0.903   8.023 -0.0035  1.2930  0.2568
   87CHL1  H22B 8902   4.859   0.991   7.891 -1.7232 -0.6007 -1.3063
   87CHL1   C23 8903   4.740   0.825   7.979 -0.1517 -0.0447 -0.0921
   87CHL1  H23A 8904   4.670   0.838   7.894  0.4759 -1.6703 -0.8912
   87CHL1  H23B 8905   4.745   0.718   8.007 -0.9498  0.4709  2.2432
   87CHL1   C24 8906   4.694   0.901   8.106 -0.2218  0.3207  0.7417
   87CHL1  H24A 8907   4.771   0.874   8.181  0.3196  0.3198  0.1928
   87CHL1  H24B 8908   4.693   1.012   8.097 -0.4053  0.4588  2.2084
   87CHL1   C25 8909   4.557   0.851   8.155  0.7239  0.7358 -0.5288
   87CHL1   H25 8910   4.545   0.741   8.155 -0.2287  0.8244  0.4489
   87CHL1   C26 8911   4.532   0.903   8.298 -0.3645 -0.9022  0.5269
   87CHL1  H26A 8912   4.571   0.838   8.379 -2.2887 -0.1621  2.1220
   87CHL1  H26B 8913   4.574   1.004   8.320  0.6764 -1.7527  2.7605
   87CHL1  H26C 8914   4.423   0.898   8.319 -0.7295 -0.5950 -1.1358
   87CHL1   C27 8915   4.457   0.913   8.063 -0.1442  0.0118  0.7088
   87CHL1  H27A 8916   4.474   0.869   7.962  0.7887 -0.9634  1.2653
   87CHL1  H27B 8917   4.354   0.882   8.092 -1.3500  1.1823 -1.9471
   87CHL1  H27C 8918   4.466   1.023   8.051 -3.0326  0.1462 -1.3820
   88CHL1    C3 8919   1.341   2.107   6.871 -0.2935  0.0932  0.1502
   88CHL1    H3 8920   1.451   2.109   6.859 -0.0990 -2.4794  0.9016
   88CHL1    O3 8921   1.284   2.060   6.751 -0.5241  0.1752  0.6183
   88CHL1   H3' 8922   1.193   2.088   6.742 -0.8642 -1.4332 -2.2335
   88CHL1    C4 8923   1.297   2.007   6.978  1.0629  0.5727  0.2933
   88CHL1   H4A 8924   1.186   2.004   6.972  1.1192 -0.7300 -0.3672
   88CHL1   H4B 8925   1.325   1.904   6.947  0.1853  0.9391 -1.8527
   88CHL1    C5 8926   1.340   2.042   7.119  0.1302 -0.5161 -0.0731
   88CHL1    C6 8927   1.404   1.955   7.200 -0.7229 -0.2554 -0.5229
   88CHL1    H6 8928   1.437   1.861   7.153 -1.9121 -1.2089  0.4479
   88CHL1    C7 8929   1.446   1.980   7.336 -0.0029 -0.6419  0.1481
   88CHL1   H7A 8930   1.425   1.896   7.406 -0.5375 -0.9555 -0.3811
   88CHL1   H7B 8931   1.554   2.004   7.344  0.1603 -0.6364 -1.6688
   88CHL1    C8 8932   1.368   2.106   7.397 -0.2032  0.1024 -0.2813
   88CHL1    H8 8933   1.266   2.075   7.427  0.5368 -1.1697  1.0508
   88CHL1   C14 8934   1.433   2.153   7.523  0.6190 -0.9166  0.3404
   88CHL1   H14 8935   1.535   2.187   7.493  1.1916 -2.1037  0.8692
   88CHL1   C15 8936   1.459   2.052   7.635 -0.2616 -0.0780 -0.2541
   88CHL1  H15A 8937   1.378   1.977   7.650 -1.6617  0.5955 -3.5726
   88CHL1  H15B 8938   1.546   1.993   7.599 -1.1744 -1.3362 -0.4902
   88CHL1   C16 8939   1.482   2.143   7.756  0.6050  0.2203  0.2451
   88CHL1  H16A 8940   1.404   2.127   7.833  1.0151  3.1135  1.3787
   88CHL1  H16B 8941   1.587   2.130   7.789  0.2579 -1.0341  0.9343
   88CHL1   C17 8942   1.451   2.292   7.718 -0.1857 -0.2092 -0.4749
   88CHL1   H17 8943   1.547   2.331   7.679 -0.6964 -1.0898 -2.8656
   88CHL1   C13 8944   1.363   2.271   7.591  0.3618  0.9408  0.2036
   88CHL1   C18 8945   1.222   2.231   7.627  0.3783  0.0317 -0.5463
   88CHL1  H18A 8946   1.225   2.167   7.717  0.1876  1.2453  0.3410
   88CHL1  H18B 8947   1.175   2.329   7.650  1.9307  1.2195 -2.1137
   88CHL1  H18C 8948   1.159   2.193   7.544 -1.6693  2.1563 -0.0599
   88CHL1   C12 8949   1.371   2.382   7.496 -0.2598 -0.2851 -0.6914
   88CHL1  H12A 8950   1.313   2.469   7.533  0.4701  0.3955 -1.1342
   88CHL1  H12B 8951   1.477   2.412   7.481  0.5857 -2.3571  0.7406
   88CHL1   C11 8952   1.321   2.361   7.354  0.3359  0.7374 -0.0886
   88CHL1  H11A 8953   1.212   2.346   7.365 -0.0426  0.4349 -3.4706
   88CHL1  H11B 8954   1.350   2.449   7.292  1.5672  0.6937  0.3893
   88CHL1    C9 8955   1.364   2.223   7.299 -0.1917  0.8389  0.0243
   88CHL1    H9 8956   1.473   2.234   7.281  0.5835 -2.8575  1.6059
   88CHL1   C10 8957   1.299   2.183   7.160 -0.1086  0.1723  0.2325
   88CHL1   C19 8958   1.143   2.186   7.168  0.4323 -0.1876 -0.0386
   88CHL1  H19A 8959   1.103   2.158   7.068  2.6390  0.6248 -1.2286
   88CHL1  H19B 8960   1.093   2.124   7.245 -0.0012  2.3109  1.8281
   88CHL1  H19C 8961   1.098   2.288   7.175 -0.0443 -0.4185  0.3655
   88CHL1    C1 8962   1.338   2.283   7.048  0.2159 -0.2985 -0.0694
   88CHL1   H1A 8963   1.299   2.385   7.068 -0.5914 -0.4266 -0.9016
   88CHL1   H1B 8964   1.449   2.291   7.052  0.1171  1.0779  0.4650
   88CHL1    C2 8965   1.299   2.248   6.910  0.7816  0.0432  0.1415
   88CHL1   H2A 8966   1.326   2.315   6.826 -2.3061 -0.3024 -1.2900
   88CHL1   H2B 8967   1.188   2.246   6.904  0.8692 -0.8982 -1.8305
   88CHL1   C20 8968   1.399   2.382   7.829  0.5230  0.2293 -0.2991
   88CHL1   H20 8969   1.288   2.384   7.832  0.4408 -0.4115 -1.9484
   88CHL1   C21 8970   1.435   2.529   7.798 -0.6532 -0.2739  0.2734
   88CHL1  H21A 8971   1.399   2.589   7.884 -2.0059 -3.8983  2.4505
   88CHL1  H21B 8972   1.386   2.551   7.701 -0.7463  0.5084  0.4868
   88CHL1  H21C 8973   1.541   2.559   7.780  0.0706 -2.6802  0.2844
   88CHL1   C22 8974   1.439   2.335   7.972 -0.7372  0.6553 -0.2268
   88CHL1  H22A 8975   1.386   2.241   8.001 -3.4843  1.2171 -2.9259
   88CHL1  H22B 8976   1.549   2.318   7.969 -0.3381  3.0291 -0.5697
   88CHL1   C23 8977   1.418   2.440   8.081  0.4379  0.2926 -0.2267
   88CHL1  H23A 8978   1.480   2.528   8.052 -0.0250  0.8348  0.3883
   88CHL1  H23B 8979   1.315   2.482   8.085  0.7108  0.8855  1.2273
   88CHL1   C24 8980   1.451   2.398   8.223  0.2443 -0.1669 -0.2971
   88CHL1  H24A 8981   1.421   2.291   8.235  1.2350 -0.4138  0.1277
   88CHL1  H24B 8982   1.560   2.399   8.245  0.6761  2.3023 -2.1545
   88CHL1   C25 8983   1.375   2.472   8.336 -0.4768  0.6201 -0.1833
   88CHL1   H25 8984   1.270   2.467   8.299 -0.6626  1.2010  0.2413
   88CHL1   C26 8985   1.395   2.400   8.469 -0.3408 -0.2477 -1.0967
   88CHL1  H26A 8986   1.358   2.296   8.464 -1.1933 -0.0442  0.4095
   88CHL1  H26B 8987   1.502   2.385   8.497 -1.2039 -0.8465  2.2740
   88CHL1  H26C 8988   1.336   2.442   8.553 -1.3349 -2.5116 -0.5889
   88CHL1   C27 8989   1.408   2.622   8.345  0.3675 -0.1908  0.4461
   88CHL1  H27A 8990   1.515   2.642   8.369  0.2333 -1.5616  2.4278
   88CHL1  H27B 8991   1.387   2.678   8.251 -1.5737 -2.1288 -0.3693
   88CHL1  H27C 8992   1.352   2.659   8.433  0.4610  0.9661  0.0419
   89CHL1    C3 8993   4.607   5.710   7.021  0.4867 -0.0153 -0.2856
   89CHL1    H3 8994   4.664   5.796   7.060  0.1420 -0.0510  0.3131
   89CHL1    O3 8995   4.585   5.727   6.884 -0.3362  0.2984  0.7998
   89CHL1   H3' 8996   4.546   5.643   6.860 -2.2800  1.7568 -1.4610
   89CHL1    C4 8997   4.670   5.580   7.051 -0.5175 -0.0234  0.0423
   89CHL1   H4A 8998   4.608   5.501   7.003 -0.6238 -0.5991  1.0921
   89CHL1   H4B 8999   4.762   5.577   6.988 -0.6395  0.3863 -0.1516
   89CHL1    C5 9000   4.701   5.563   7.201  0.0366  0.3800  0.5301
   89CHL1    C6 9001   4.829   5.552   7.243  0.6523  0.2020 -0.0133
   89CHL1    H6 9002   4.913   5.569   7.174 -0.2359  0.9902 -0.9192
   89CHL1    C7 9003   4.860   5.532   7.389 -0.0696  0.2903  0.0976
   89CHL1   H7A 9004   4.941   5.458   7.407 -0.7281 -0.0438  1.9746
   89CHL1   H7B 9005   4.888   5.626   7.441  0.1506 -0.9273  2.3447
   89CHL1    C8 9006   4.744   5.493   7.478 -0.1379 -0.6215  0.4555
   89CHL1    H8 9007   4.736   5.384   7.460 -0.9247 -0.6418  0.9019
   89CHL1   C14 9008   4.770   5.515   7.631 -1.1437 -0.1193  0.2919
   89CHL1   H14 9009   4.769   5.625   7.644 -1.6989 -0.0562 -0.2420
   89CHL1   C15 9010   4.906   5.477   7.693  0.6056 -0.4345 -0.0770
   89CHL1  H15A 9011   4.936   5.374   7.664 -0.2172 -0.6264 -0.2695
   89CHL1  H15B 9012   4.985   5.555   7.681 -0.0650  0.6477  1.9502
   89CHL1   C16 9013   4.882   5.473   7.843  1.2840  0.3201 -0.3208
   89CHL1  H16A 9014   4.917   5.375   7.881 -2.2091 -0.6659  0.6551
   89CHL1  H16B 9015   4.927   5.559   7.898  1.8710  0.7475 -1.4319
   89CHL1   C17 9016   4.727   5.495   7.864 -0.1605 -0.4910  0.0659
   89CHL1   H17 9017   4.716   5.604   7.882  1.1006 -0.4033  0.4036
   89CHL1   C13 9018   4.660   5.463   7.729 -0.2217 -0.3162 -0.9675
   89CHL1   C18 9019   4.648   5.312   7.708 -0.3181 -0.3170  0.3355
   89CHL1  H18A 9020   4.575   5.268   7.779 -1.4429  0.1770 -0.4963
   89CHL1  H18B 9021   4.593   5.290   7.614 -1.3817  0.4818  0.7469
   89CHL1  H18C 9022   4.742   5.255   7.727 -0.1555  0.4670  2.0232
   89CHL1   C12 9023   4.537   5.539   7.691  0.8414 -0.5111  0.3801
   89CHL1  H12A 9024   4.446   5.525   7.753  1.0512  0.8252  1.0385
   89CHL1  H12B 9025   4.557   5.647   7.708 -2.6845  0.3943 -0.4410
   89CHL1   C11 9026   4.489   5.540   7.537  0.0369 -0.8479  0.4776
   89CHL1  H11A 9027   4.440   5.441   7.535  0.0844 -0.8722  0.5133
   89CHL1  H11B 9028   4.421   5.626   7.526 -2.2354 -2.7007 -0.7280
   89CHL1    C9 9029   4.615   5.568   7.438  0.2580  0.2443  0.3832
   89CHL1    H9 9030   4.658   5.668   7.461  2.8873 -0.6498 -0.2524
   89CHL1   C10 9031   4.580   5.566   7.290  0.1078  0.2770  0.8594
   89CHL1   C19 9032   4.506   5.428   7.260  0.1386  0.0587  0.2120
   89CHL1  H19A 9033   4.470   5.428   7.154 -1.6827  3.4258  0.7036
   89CHL1  H19B 9034   4.581   5.347   7.277 -0.5083 -0.6317 -0.1804
   89CHL1  H19C 9035   4.414   5.405   7.316 -0.4919  0.3626 -0.6721
   89CHL1    C1 9036   4.492   5.697   7.251 -0.5349  0.5168 -0.3234
   89CHL1   H1A 9037   4.397   5.697   7.308 -0.3955 -0.8126 -0.0377
   89CHL1   H1B 9038   4.557   5.783   7.277  0.6222 -0.0818 -1.1480
   89CHL1    C2 9039   4.467   5.713   7.100  0.0008 -0.5749 -0.9578
   89CHL1   H2A 9040   4.421   5.811   7.076  3.1910  1.5729  0.9038
   89CHL1   H2B 9041   4.400   5.630   7.068  1.0719 -1.7000 -0.3889
   89CHL1   C20 9042   4.683   5.427   7.993  0.5026  0.0831 -0.2019
   89CHL1   H20 9043   4.693   5.318   7.972  1.5241  0.2469 -0.6159
   89CHL1   C21 9044   4.530   5.440   8.021  0.3792 -0.0597  0.2129
   89CHL1  H21A 9045   4.472   5.388   7.941  1.9520  0.8073 -1.5448
   89CHL1  H21B 9046   4.496   5.545   8.036 -1.3777 -0.6580  0.7449
   89CHL1  H21C 9047   4.510   5.396   8.121  3.4405 -1.3075  0.3890
   89CHL1   C22 9048   4.772   5.471   8.121 -0.2309  0.0726 -0.5107
   89CHL1  H22A 9049   4.743   5.419   8.214 -1.0227  1.4212  0.0199
   89CHL1  H22B 9050   4.874   5.426   8.120 -1.3624 -2.7642  0.9588
   89CHL1   C23 9051   4.776   5.621   8.149 -0.1940 -0.3759  0.5208
   89CHL1  H23A 9052   4.822   5.689   8.075 -1.8282  0.5294  0.2680
   89CHL1  H23B 9053   4.670   5.656   8.155 -0.3613 -1.0717  2.2479
   89CHL1   C24 9054   4.844   5.651   8.287 -0.4397 -0.0853 -0.1918
   89CHL1  H24A 9055   4.792   5.585   8.361  1.7363  0.5173  2.0216
   89CHL1  H24B 9056   4.949   5.617   8.289  0.9601  3.6279  2.8968
   89CHL1   C25 9057   4.837   5.799   8.331 -0.0845  0.5433 -0.2649
   89CHL1   H25 9058   4.729   5.822   8.341 -0.4117 -1.3037  0.9063
   89CHL1   C26 9059   4.901   5.826   8.466 -1.2150  0.6120 -1.1829
   89CHL1  H26A 9060   4.996   5.771   8.480 -1.7687 -0.0006  0.4255
   89CHL1  H26B 9061   4.917   5.934   8.487 -0.4879  0.7804 -2.5127
   89CHL1  H26C 9062   4.840   5.785   8.550 -2.6392  1.5371 -1.7230
   89CHL1   C27 9063   4.881   5.901   8.222 -0.4872 -0.5389 -0.2441
   89CHL1  H27A 9064   4.887   6.002   8.268  3.2420 -1.1855  1.0381
   89CHL1  H27B 9065   4.984   5.894   8.184 -1.3451 -0.2595 -2.7896
   89CHL1  H27C 9066   4.817   5.906   8.131 -0.3343 -0.5026 -0.3498
   90CHL1    C3 9067   5.052   1.774   7.035 -0.0057  0.0003 -0.1040
   90CHL1    H3 9068   5.105   1.677   7.028 -0.1047 -0.0994  0.4526
   90CHL1    O3 9069   5.014   1.818   6.903  0.2161  0.1129 -0.3538
   90CHL1   H3' 9070   4.988   1.910   6.912 -1.0734 -0.3528  1.1369
   90CHL1    C4 9071   4.925   1.744   7.122  0.0546 -0.1282  0.3994
   90CHL1   H4A 9072   4.857   1.831   7.116  1.9705  1.4203  0.1292
   90CHL1   H4B 9073   4.877   1.656   7.072 -0.7507 -0.2901  1.4358
   90CHL1    C5 9074   4.957   1.733   7.269  0.8657  1.3386  0.4549
   90CHL1    C6 9075   4.901   1.633   7.331 -0.3548  0.7706 -0.3643
   90CHL1    H6 9076   4.836   1.554   7.290  0.1657 -1.6403  3.0906
   90CHL1    C7 9077   4.915   1.606   7.481  0.3176 -0.4501  0.2577
   90CHL1   H7A 9078   4.816   1.588   7.528  0.1449  0.0697  0.0960
   90CHL1   H7B 9079   4.980   1.522   7.515  0.6070  0.9702  3.4600
   90CHL1    C8 9080   4.970   1.735   7.555  0.2613 -0.0912 -0.2396
   90CHL1    H8 9081   4.899   1.820   7.546  0.6155  0.1700 -0.5302
   90CHL1   C14 9082   5.009   1.712   7.698 -0.4532 -0.3029 -0.3103
   90CHL1   H14 9083   5.085   1.631   7.687  0.8000  1.0147 -1.6148
   90CHL1   C15 9084   4.895   1.674   7.792 -0.4517  0.3999  1.0974
   90CHL1  H15A 9085   4.802   1.734   7.776 -1.6603 -1.1476  2.0803
   90CHL1  H15B 9086   4.860   1.569   7.782 -3.6169  1.3384  1.2269
   90CHL1   C16 9087   4.947   1.704   7.934 -0.6413 -0.3273  0.2217
   90CHL1  H16A 9088   4.888   1.787   7.980 -1.1223  1.7106 -3.6208
   90CHL1  H16B 9089   4.967   1.621   8.005  2.9608  1.2324  1.2262
   90CHL1   C17 9090   5.094   1.756   7.899  0.3686  0.0525  0.7389
   90CHL1   H17 9091   5.152   1.663   7.882  0.1734 -0.6982  3.5872
   90CHL1   C13 9092   5.089   1.825   7.760  0.2685  0.0856 -0.0902
   90CHL1   C18 9093   5.010   1.953   7.744  0.6050 -0.1584  0.4020
   90CHL1  H18A 9094   5.048   2.041   7.799 -1.3768  0.2440  1.2017
   90CHL1  H18B 9095   4.994   1.980   7.638  0.4266  1.7317  0.8807
   90CHL1  H18C 9096   4.907   1.940   7.784 -0.2866  2.5246 -0.8077
   90CHL1   C12 9097   5.227   1.839   7.691 -0.2242 -0.2112 -0.6148
   90CHL1  H12A 9098   5.276   1.921   7.748 -1.0182 -0.9928  1.2647
   90CHL1  H12B 9099   5.287   1.746   7.701  0.2052  0.0814 -0.4219
   90CHL1   C11 9100   5.200   1.875   7.542 -0.5400  1.2289  1.1417
   90CHL1  H11A 9101   5.177   1.983   7.531  1.2330  1.7768  2.4758
   90CHL1  H11B 9102   5.301   1.867   7.497 -1.4466  0.1669 -0.8297
   90CHL1    C9 9103   5.096   1.778   7.478  1.1749  0.5735 -0.0688
   90CHL1    H9 9104   5.141   1.677   7.474  3.7829  1.6344  0.1833
   90CHL1   C10 9105   5.056   1.832   7.339  0.1417  0.7737  0.0544
   90CHL1   C19 9106   4.973   1.958   7.347 -0.9718  0.8016 -0.4210
   90CHL1  H19A 9107   5.031   2.028   7.411 -1.5805 -1.2457  2.5391
   90CHL1  H19B 9108   4.939   2.009   7.254 -4.0166 -0.0529  0.1158
   90CHL1  H19C 9109   4.882   1.941   7.408 -0.8074  1.4635  0.0087
   90CHL1    C1 9110   5.175   1.845   7.241 -0.5318  0.0679 -0.0046
   90CHL1   H1A 9111   5.239   1.931   7.267 -1.3519  0.0193  2.4168
   90CHL1   H1B 9112   5.231   1.750   7.255 -1.4232 -0.4560  0.1164
   90CHL1    C2 9113   5.153   1.869   7.087  0.4909 -0.0979  0.1497
   90CHL1   H2A 9114   5.248   1.875   7.029 -0.5621  1.3101 -1.5015
   90CHL1   H2B 9115   5.108   1.969   7.073  1.0973 -0.1851 -2.9872
   90CHL1   C20 9116   5.173   1.830   8.012 -0.4621 -0.1503  0.3179
   90CHL1   H20 9117   5.236   1.908   7.965  0.3222  0.7748  2.8114
   90CHL1   C21 9118   5.277   1.738   8.084  0.4675 -0.6946  0.3065
   90CHL1  H21A 9119   5.225   1.653   8.134  0.7950 -0.9555  0.2138
   90CHL1  H21B 9120   5.330   1.801   8.159  0.3695  2.6161 -2.1922
   90CHL1  H21C 9121   5.353   1.688   8.019  0.4456 -1.1831  0.6444
   90CHL1   C22 9122   5.087   1.914   8.097 -0.1006 -0.4215  0.5628
   90CHL1  H22A 9123   5.020   1.969   8.028 -0.4455 -2.3721 -0.7432
   90CHL1  H22B 9124   5.015   1.857   8.159 -1.0847 -0.7602 -0.8326
   90CHL1   C23 9125   5.164   2.020   8.180  0.8648  0.4207 -0.0958
   90CHL1  H23A 9126   5.254   1.989   8.238  0.0443 -1.0623  0.4296
   90CHL1  H23B 9127   5.203   2.100   8.113 -0.9516  0.7476 -0.8007
   90CHL1   C24 9128   5.081   2.080   8.292  0.4802 -0.5685 -0.1785
   90CHL1  H24A 9129   5.114   2.168   8.352 -0.8402 -1.2564  1.6364
   90CHL1  H24B 9130   4.983   2.102   8.245  0.6154  0.9278  0.1935
   90CHL1   C25 9131   5.024   1.989   8.407  0.2732 -0.0562 -0.0973
   90CHL1   H25 9132   4.981   1.906   8.348  1.3112 -1.5390  1.1735
   90CHL1   C26 9133   5.128   1.923   8.498  0.0530  0.5145 -0.0397
   90CHL1  H26A 9134   5.186   1.999   8.555  0.3960 -0.6924  1.2671
   90CHL1  H26B 9135   5.072   1.863   8.573 -0.8914  2.6953  1.0951
   90CHL1  H26C 9136   5.185   1.856   8.430 -2.0129 -1.0672 -0.2956
   90CHL1   C27 9137   4.923   2.054   8.498 -1.2007 -0.1872  0.2261
   90CHL1  H27A 9138   4.879   1.982   8.570 -0.4748 -1.2357 -0.3509
   90CHL1  H27B 9139   4.971   2.133   8.561 -0.3597  0.6088 -1.3565
   90CHL1  H27C 9140   4.837   2.106   8.451  0.0330  0.3297 -1.5572
   91CHL1    C3 9141   5.885   1.542   7.078  0.0980  0.3001  0.3708
   91CHL1    H3 9142   5.776   1.560   7.092 -0.0209  0.5960 -0.8434
   91CHL1    O3 9143   5.908   1.600   6.954  0.9302 -0.3355 -0.2222
   91CHL1   H3' 9144   5.996   1.569   6.932  1.0157 -1.0491  1.0471
   91CHL1    C4 9145   5.973   1.616   7.172 -0.0872 -0.5523  0.5710
   91CHL1   H4A 9146   6.077   1.606   7.135 -0.0645 -5.4305  1.2944
   91CHL1   H4B 9147   5.938   1.722   7.168  0.0701 -0.3060  3.3200
   91CHL1    C5 9148   5.977   1.557   7.315  0.6879 -0.0229 -0.2101
   91CHL1    C6 9149   5.955   1.634   7.427  0.1502  0.8447  0.0174
   91CHL1    H6 9150   5.925   1.739   7.418  1.8174  1.2815 -0.6967
   91CHL1    C7 9151   5.947   1.578   7.571  0.1893 -0.2972  0.1688
   91CHL1   H7A 9152   5.987   1.657   7.639  1.7315  0.7856 -1.8882
   91CHL1   H7B 9153   5.840   1.568   7.599  0.3156 -0.6686  0.5250
   91CHL1    C8 9154   6.007   1.432   7.588 -0.4316 -0.1140 -0.3971
   91CHL1    H8 9155   6.116   1.453   7.580 -0.4355 -0.2250 -0.7513
   91CHL1   C14 9156   5.980   1.379   7.726  0.1874  0.2961 -0.1221
   91CHL1   H14 9157   5.869   1.383   7.722  0.2152  0.6093 -3.2254
   91CHL1   C15 9158   6.033   1.451   7.846 -0.1462  0.1930  0.0955
   91CHL1  H15A 9159   6.140   1.481   7.837 -0.6409  1.8617 -0.8381
   91CHL1  H15B 9160   5.982   1.546   7.874  1.4804  1.0268  0.4135
   91CHL1   C16 9161   6.023   1.341   7.960  0.1584  0.9982 -0.2612
   91CHL1  H16A 9162   6.129   1.335   7.994  0.6786 -0.5750 -1.9751
   91CHL1  H16B 9163   5.959   1.375   8.044 -0.0170 -1.0485  0.4722
   91CHL1   C17 9164   5.990   1.208   7.892 -0.0566 -0.5395 -0.4197
   91CHL1   H17 9165   5.879   1.198   7.888 -0.1544 -0.3668  1.1965
   91CHL1   C13 9166   6.022   1.232   7.737 -0.0963 -0.2604 -0.2553
   91CHL1   C18 9167   6.178   1.215   7.723 -0.0376 -0.7070 -0.8131
   91CHL1  H18A 9168   6.235   1.270   7.802 -1.8393 -0.6919  0.5325
   91CHL1  H18B 9169   6.215   1.110   7.735  1.4791  0.0020  1.4513
   91CHL1  H18C 9170   6.217   1.240   7.622  2.0817 -1.3197 -0.2147
   91CHL1   C12 9171   5.946   1.153   7.632  0.1689  0.3536 -0.3048
   91CHL1  H12A 9172   5.973   1.048   7.656  0.5054  0.8234  1.6135
   91CHL1  H12B 9173   5.835   1.154   7.645  0.2083 -0.8131  0.2998
   91CHL1   C11 9174   5.976   1.200   7.491  0.1809 -0.5576  0.3480
   91CHL1  H11A 9175   6.082   1.175   7.473  0.1992  0.7551 -1.6218
   91CHL1  H11B 9176   5.920   1.144   7.414 -1.7239  1.4268  0.1845
   91CHL1    C9 9177   5.955   1.351   7.467 -0.1486 -0.5919  0.3516
   91CHL1    H9 9178   5.845   1.357   7.480 -0.3612  0.4266 -1.6050
   91CHL1   C10 9179   5.987   1.401   7.325 -0.0319 -0.4793  0.9696
   91CHL1   C19 9180   6.134   1.370   7.289 -0.1833 -0.3622  0.2735
   91CHL1  H19A 9181   6.140   1.260   7.272 -0.4112 -0.3819  0.3139
   91CHL1  H19B 9182   6.182   1.431   7.210 -0.1527 -0.4668  0.2107
   91CHL1  H19C 9183   6.197   1.391   7.378 -0.4480  2.9202 -0.1865
   91CHL1    C1 9184   5.892   1.331   7.214 -0.5743  0.3349 -0.3178
   91CHL1   H1A 9185   5.912   1.222   7.222  2.1893  0.7609 -0.4865
   91CHL1   H1B 9186   5.783   1.346   7.229 -1.1512 -1.3410 -2.2925
   91CHL1    C2 9187   5.916   1.387   7.072  0.6722  0.1840  0.4995
   91CHL1   H2A 9188   5.845   1.334   7.004  0.3947  0.6253  0.4437
   91CHL1   H2B 9189   6.019   1.360   7.039  0.5882 -0.8261  1.0141
   91CHL1   C20 9190   6.051   1.085   7.962 -0.3793  0.1544  0.2046
   91CHL1   H20 9191   6.161   1.090   7.946 -0.3888 -2.4763 -1.3397
   91CHL1   C21 9192   6.010   0.956   7.894  0.3615 -0.1267 -0.0993
   91CHL1  H21A 9193   6.047   0.878   7.963  0.8232 -0.3638 -0.6056
   91CHL1  H21B 9194   6.061   0.930   7.799 -1.2865 -3.6489 -0.1749
   91CHL1  H21C 9195   5.900   0.953   7.879  0.3584 -0.2484 -0.0555
   91CHL1   C22 9196   6.028   1.078   8.118  0.1821  0.0129  0.1162
   91CHL1  H22A 9197   5.930   1.129   8.130  0.0805 -0.3230  0.7445
   91CHL1  H22B 9198   6.025   0.973   8.155 -1.9868 -0.8344 -2.1663
   91CHL1   C23 9199   6.136   1.157   8.200  0.3642  0.3322  0.4563
   91CHL1  H23A 9200   6.229   1.143   8.140 -1.0722  0.7124 -1.9932
   91CHL1  H23B 9201   6.118   1.265   8.214  1.9764  0.4589  1.8904
   91CHL1   C24 9202   6.163   1.111   8.346  0.3197  0.2701  0.2018
   91CHL1  H24A 9203   6.169   1.000   8.343  2.2119  0.3286 -2.3325
   91CHL1  H24B 9204   6.264   1.150   8.372 -0.6353  3.5149 -0.5130
   91CHL1   C25 9205   6.080   1.180   8.459 -0.7819 -0.5393  0.5124
   91CHL1   H25 9206   6.092   1.291   8.457  0.2044 -0.6396 -0.2916
   91CHL1   C26 9207   5.925   1.153   8.444 -0.4358  0.6163 -0.0620
   91CHL1  H26A 9208   5.880   1.197   8.353 -1.4505  0.9156  0.5719
   91CHL1  H26B 9209   5.892   1.047   8.453 -1.1958  0.6882 -1.6126
   91CHL1  H26C 9210   5.873   1.206   8.527  0.2636  0.1010  0.7284
   91CHL1   C27 9211   6.141   1.122   8.589 -0.3853 -0.3238  0.1201
   91CHL1  H27A 9212   6.098   1.020   8.586 -2.5627  0.5764 -2.4941
   91CHL1  H27B 9213   6.252   1.124   8.575 -0.4059 -0.5583 -0.0751
   91CHL1  H27C 9214   6.101   1.157   8.687 -0.1432 -1.5477  0.6789
   92CHL1    C3 9215   2.752   4.344   6.754 -0.5755 -0.5122 -0.0580
   92CHL1    H3 9216   2.852   4.368   6.796  0.0251 -3.5061  0.5115
   92CHL1    O3 9217   2.762   4.324   6.611 -0.3369 -0.0745  0.0011
   92CHL1   H3' 9218   2.743   4.402   6.558  0.8184  1.2469  1.4163
   92CHL1    C4 9219   2.708   4.208   6.818 -0.9064 -0.5506 -0.5893
   92CHL1   H4A 9220   2.608   4.181   6.778 -1.0507 -0.7943 -0.0767
   92CHL1   H4B 9221   2.776   4.124   6.793  1.9421  1.6946 -1.0040
   92CHL1    C5 9222   2.684   4.223   6.964  0.3992  0.0468  0.2337
   92CHL1    C6 9223   2.749   4.154   7.055 -0.4643  0.1523  0.8229
   92CHL1    H6 9224   2.824   4.077   7.032 -0.1389  1.2427 -2.2718
   92CHL1    C7 9225   2.730   4.167   7.201  0.8213  0.4395 -0.9247
   92CHL1   H7A 9226   2.720   4.068   7.251  0.3206  0.3389 -1.2184
   92CHL1   H7B 9227   2.815   4.219   7.251  0.3913 -0.2525  0.6104
   92CHL1    C8 9228   2.605   4.261   7.238 -0.7131 -0.0287 -0.9251
   92CHL1    H8 9229   2.514   4.199   7.221 -0.9462  0.4925 -1.6234
   92CHL1   C14 9230   2.627   4.294   7.389  0.0444  0.2629 -0.1213
   92CHL1   H14 9231   2.723   4.349   7.385  1.6979 -2.2030  2.4121
   92CHL1   C15 9232   2.651   4.184   7.488 -0.3778  0.4322  0.4514
   92CHL1  H15A 9233   2.597   4.087   7.476  3.1950 -1.6996  0.1506
   92CHL1  H15B 9234   2.757   4.150   7.492 -0.6696 -0.4743  1.1137
   92CHL1   C16 9235   2.609   4.251   7.621  0.5130  0.5496 -1.1733
   92CHL1  H16A 9236   2.529   4.190   7.669 -0.1470  1.9682 -0.4224
   92CHL1  H16B 9237   2.696   4.260   7.690 -1.1549  1.9933  0.8436
   92CHL1   C17 9238   2.553   4.391   7.578 -0.3415  0.3928  0.1555
   92CHL1   H17 9239   2.646   4.452   7.568  1.1814 -1.7851  0.2972
   92CHL1   C13 9240   2.512   4.379   7.436  0.4609  0.1129  0.0984
   92CHL1   C18 9241   2.380   4.298   7.438 -0.0864 -0.3211 -0.0970
   92CHL1  H18A 9242   2.386   4.211   7.507  1.0489 -0.5630 -0.4880
   92CHL1  H18B 9243   2.292   4.355   7.477 -0.5211 -1.1206  0.1195
   92CHL1  H18C 9244   2.355   4.253   7.340 -0.5663 -0.9893  0.3154
   92CHL1   C12 9245   2.488   4.505   7.357  0.5531 -0.2173  0.3096
   92CHL1  H12A 9246   2.388   4.548   7.379  0.1088  0.3658 -2.4677
   92CHL1  H12B 9247   2.573   4.576   7.372 -1.2202  1.7938  1.4278
   92CHL1   C11 9248   2.483   4.477   7.199  0.0272 -0.5506 -0.4741
   92CHL1  H11A 9249   2.382   4.433   7.185 -0.2214 -0.2762  0.3393
   92CHL1  H11B 9250   2.487   4.577   7.150  1.5604 -0.3170  0.0756
   92CHL1    C9 9251   2.598   4.380   7.149 -0.0447 -0.2494  0.0235
   92CHL1    H9 9252   2.695   4.433   7.166  0.6614 -1.7863  1.1009
   92CHL1   C10 9253   2.588   4.344   6.998 -0.1217 -0.3975  0.0941
   92CHL1   C19 9254   2.444   4.287   6.963  0.4671 -0.7557 -0.2561
   92CHL1  H19A 9255   2.435   4.186   7.008 -0.0204 -0.3974  0.4781
   92CHL1  H19B 9256   2.360   4.355   6.990  1.3379 -0.1043  0.9446
   92CHL1  H19C 9257   2.435   4.270   6.854  0.9434 -2.7235 -0.0220
   92CHL1    C1 9258   2.613   4.471   6.915 -0.8169  0.0637 -0.2975
   92CHL1   H1A 9259   2.525   4.538   6.929 -0.3811  1.3275 -2.9131
   92CHL1   H1B 9260   2.703   4.519   6.957 -0.5357  0.0206 -0.8374
   92CHL1    C2 9261   2.640   4.446   6.769 -0.1703 -0.1216 -0.4792
   92CHL1   H2A 9262   2.670   4.539   6.717 -0.4114 -0.4020 -1.1327
   92CHL1   H2B 9263   2.545   4.409   6.724  0.0397 -1.9969  0.4745
   92CHL1   C20 9264   2.465   4.455   7.679  1.0218  0.3057  0.8361
   92CHL1   H20 9265   2.361   4.417   7.675  2.0185 -3.1934  3.0413
   92CHL1   C21 9266   2.465   4.605   7.658 -0.6472 -1.0720 -0.5850
   92CHL1  H21A 9267   2.569   4.644   7.653 -0.4058 -1.2295  2.0141
   92CHL1  H21B 9268   2.410   4.656   7.740  0.3437  0.2465 -0.6992
   92CHL1  H21C 9269   2.414   4.635   7.564  1.1044 -0.2757 -1.3186
   92CHL1   C22 9270   2.521   4.423   7.824 -0.6175 -0.1948 -1.4571
   92CHL1  H22A 9271   2.525   4.316   7.855 -0.1016 -0.1238 -1.2616
   92CHL1  H22B 9272   2.625   4.461   7.832 -1.3858  1.5889  1.2938
   92CHL1   C23 9273   2.453   4.503   7.942  0.5362  0.0976  0.3048
   92CHL1  H23A 9274   2.476   4.611   7.947  0.7565  0.0208  1.0863
   92CHL1  H23B 9275   2.344   4.494   7.919  0.9009 -0.7398 -1.1993
   92CHL1   C24 9276   2.486   4.428   8.074  0.3263 -0.2485  0.8204
   92CHL1  H24A 9277   2.470   4.322   8.046 -2.6879  0.1648  0.5647
   92CHL1  H24B 9278   2.592   4.443   8.101  0.8726 -1.1382 -0.7237
   92CHL1   C25 9279   2.397   4.475   8.192  0.1532  0.0791 -0.2111
   92CHL1   H25 9280   2.292   4.471   8.156  1.0451  0.4300 -3.0801
   92CHL1   C26 9281   2.427   4.372   8.301 -0.1010 -0.4034  0.8996
   92CHL1  H26A 9282   2.378   4.405   8.395  0.3345  1.3091  0.5708
   92CHL1  H26B 9283   2.385   4.272   8.275  1.0054 -1.3600  2.6618
   92CHL1  H26C 9284   2.537   4.368   8.314 -0.0266  0.5309  0.6651
   92CHL1   C27 9285   2.413   4.622   8.243 -0.0133 -0.1623 -0.0840
   92CHL1  H27A 9286   2.354   4.634   8.336  0.8213  1.5779  0.2607
   92CHL1  H27B 9287   2.521   4.640   8.265 -0.2729  2.0432 -0.4002
   92CHL1  H27C 9288   2.386   4.698   8.167  0.5903 -0.2570 -0.3983
   93CHL1    C3 9289   1.740   3.703   6.991 -0.4393 -0.3660  0.0445
   93CHL1    H3 9290   1.632   3.692   7.011 -0.3306 -1.8727 -0.0649
   93CHL1    O3 9291   1.744   3.739   6.853  0.0597 -0.3116  0.2803
   93CHL1   H3' 9292   1.834   3.760   6.827 -0.1954  1.3546  0.6038
   93CHL1    C4 9293   1.788   3.820   7.072  0.2391 -0.6819 -0.2612
   93CHL1   H4A 9294   1.896   3.832   7.048  0.3898 -0.8357  0.3132
   93CHL1   H4B 9295   1.749   3.921   7.047 -0.4233 -0.9936 -0.5076
   93CHL1    C5 9296   1.780   3.789   7.223 -0.4789  0.7171  0.1468
   93CHL1    C6 9297   1.728   3.877   7.307 -0.2138 -0.2766  0.1354
   93CHL1    H6 9298   1.684   3.973   7.276 -0.9056 -0.3740  0.7767
   93CHL1    C7 9299   1.733   3.851   7.452  0.1628 -0.1104 -0.5629
   93CHL1   H7A 9300   1.762   3.952   7.490  0.5360  0.0448 -1.2589
   93CHL1   H7B 9301   1.629   3.829   7.483 -0.2476  2.9537  0.6580
   93CHL1    C8 9302   1.832   3.744   7.505 -0.3366  0.3313  0.9605
   93CHL1    H8 9303   1.936   3.782   7.511 -0.9495  1.9450  2.1969
   93CHL1   C14 9304   1.794   3.703   7.646 -0.1180  0.3539 -0.3996
   93CHL1   H14 9305   1.694   3.656   7.640  0.2950 -0.9466  1.8939
   93CHL1   C15 9306   1.782   3.810   7.762  0.2580 -0.0281  0.2028
   93CHL1  H15A 9307   1.869   3.876   7.745  0.6942 -0.4141  0.8816
   93CHL1  H15B 9308   1.702   3.887   7.763  1.1893  0.9651 -0.6493
   93CHL1   C16 9309   1.798   3.725   7.893 -0.3236 -0.5122  0.5806
   93CHL1  H16A 9310   1.888   3.758   7.950  0.1570 -2.1763  0.8462
   93CHL1  H16B 9311   1.711   3.721   7.962  0.5344 -0.4943  1.6990
   93CHL1   C17 9312   1.815   3.579   7.846 -0.8174  0.1866 -0.3377
   93CHL1   H17 9313   1.716   3.531   7.831  0.0572 -2.1117  0.8490
   93CHL1   C13 9314   1.881   3.589   7.708 -0.1147  0.1828  0.0332
   93CHL1   C18 9315   2.028   3.634   7.712 -0.4533 -0.0827  0.0556
   93CHL1  H18A 9316   2.051   3.726   7.771  1.3185 -2.0485  2.6728
   93CHL1  H18B 9317   2.080   3.554   7.768  0.6336  0.2412 -0.4539
   93CHL1  H18C 9318   2.064   3.638   7.607  1.2888  0.8673  0.6503
   93CHL1   C12 9319   1.862   3.469   7.619 -0.0775  0.0350  1.0507
   93CHL1  H12A 9320   1.926   3.382   7.647  0.3133  0.3017  0.9924
   93CHL1  H12B 9321   1.756   3.439   7.634 -0.3630  1.6084  2.4345
   93CHL1   C11 9322   1.882   3.497   7.471  0.9209 -0.2650 -0.3713
   93CHL1  H11A 9323   1.992   3.502   7.457  1.0671  0.5255  0.9573
   93CHL1  H11B 9324   1.852   3.407   7.413 -1.5115 -0.2148  0.7057
   93CHL1    C9 9325   1.817   3.621   7.420 -0.2457  0.2781 -0.1520
   93CHL1    H9 9326   1.708   3.601   7.430 -0.6239  2.4342  0.5338
   93CHL1   C10 9327   1.855   3.660   7.266  0.1669  0.0620 -0.2373
   93CHL1   C19 9328   2.008   3.666   7.240  0.3092  0.1154 -0.2949
   93CHL1  H19A 9329   2.036   3.672   7.133 -2.1476  1.2514 -0.9456
   93CHL1  H19B 9330   2.050   3.757   7.289  0.3703  2.2841 -4.0350
   93CHL1  H19C 9331   2.060   3.583   7.292  0.2913  0.7292  0.7466
   93CHL1    C1 9332   1.801   3.544   7.175 -0.6975  0.6098  0.3001
   93CHL1   H1A 9333   1.841   3.443   7.199 -0.6695  1.2827  3.5349
   93CHL1   H1B 9334   1.693   3.538   7.201 -0.8327  0.1692 -0.3437
   93CHL1    C2 9335   1.811   3.575   7.024 -0.0300  0.2694 -0.5592
   93CHL1   H2A 9336   1.753   3.496   6.971 -1.5785  0.1320  1.2552
   93CHL1   H2B 9337   1.917   3.566   6.991  0.1911  0.6150  0.0397
   93CHL1   C20 9338   1.885   3.491   7.953 -0.5498  0.6043 -0.1246
   93CHL1   H20 9339   1.984   3.538   7.974 -0.8568  0.7368  1.0870
   93CHL1   C21 9340   1.908   3.344   7.910 -0.4202 -0.4059 -0.2243
   93CHL1  H21A 9341   1.950   3.292   7.999  1.2109  1.0844 -0.0821
   93CHL1  H21B 9342   1.990   3.328   7.837 -0.4871 -0.6313 -0.2518
   93CHL1  H21C 9343   1.813   3.301   7.871 -0.2238 -1.7849  0.7318
   93CHL1   C22 9344   1.805   3.495   8.086 -0.0793  0.4434 -0.4353
   93CHL1  H22A 9345   1.797   3.601   8.116 -0.1655  0.1670  0.5666
   93CHL1  H22B 9346   1.699   3.465   8.072  0.3176 -1.3383  0.0729
   93CHL1   C23 9347   1.864   3.421   8.204  0.5506  0.3005  0.2274
   93CHL1  H23A 9348   1.867   3.311   8.188  1.1529 -0.2439  3.4389
   93CHL1  H23B 9349   1.971   3.451   8.203  0.5922  0.1461 -0.6945
   93CHL1   C24 9350   1.799   3.444   8.338 -0.1507  0.5054 -0.2814
   93CHL1  H24A 9351   1.800   3.551   8.369 -2.4026  0.3291  0.5600
   93CHL1  H24B 9352   1.690   3.423   8.338  0.1168 -1.2509  1.7966
   93CHL1   C25 9353   1.884   3.370   8.454 -0.2075  0.0900  0.4665
   93CHL1   H25 9354   1.884   3.261   8.433 -0.0547 -0.1403  1.6242
   93CHL1   C26 9355   2.030   3.415   8.454  0.1358  0.2603 -0.1417
   93CHL1  H26A 9356   2.078   3.394   8.551 -2.6427  0.6228  1.4091
   93CHL1  H26B 9357   2.091   3.354   8.383 -1.0884 -2.3951  0.9565
   93CHL1  H26C 9358   2.032   3.523   8.426  0.4610 -0.0500 -1.3792
   93CHL1   C27 9359   1.815   3.402   8.591 -0.2988  0.4391  0.2005
   93CHL1  H27A 9360   1.841   3.317   8.659  1.3480 -0.5708 -1.5778
   93CHL1  H27B 9361   1.852   3.492   8.644  0.8048 -0.0956  0.3815
   93CHL1  H27C 9362   1.706   3.408   8.573 -0.0678  3.3714 -0.6285
   94CHL1    C3 9363   4.944   4.680   6.838 -0.7558 -0.0824 -0.0004
   94CHL1    H3 9364   5.029   4.614   6.861  0.0997 -0.7935 -4.3034
   94CHL1    O3 9365   4.933   4.685   6.697  0.0499  0.0704 -0.5333
   94CHL1   H3' 9366   4.844   4.718   6.688  0.1356  0.7197  0.7478
   94CHL1    C4 9367   4.812   4.622   6.900  0.9403 -0.5301  0.2213
   94CHL1   H4A 9368   4.732   4.674   6.843  0.8544 -1.5303 -0.6117
   94CHL1   H4B 9369   4.804   4.514   6.871 -2.8452 -0.6953  1.2617
   94CHL1    C5 9370   4.806   4.634   7.051  0.6185 -0.2399 -0.4714
   94CHL1    C6 9371   4.792   4.533   7.139  0.5887  0.0048  0.1832
   94CHL1    H6 9372   4.771   4.435   7.094 -0.8896  1.0201 -1.4836
   94CHL1    C7 9373   4.774   4.548   7.288 -0.2067  0.1942 -0.3197
   94CHL1   H7A 9374   4.685   4.492   7.324  0.0643  0.6471  1.1337
   94CHL1   H7B 9375   4.858   4.500   7.343  0.6513  0.3982 -1.4319
   94CHL1    C8 9376   4.756   4.696   7.336  0.2175  0.1708  0.1885
   94CHL1    H8 9377   4.650   4.719   7.315  0.5122  1.4939  0.0428
   94CHL1   C14 9378   4.775   4.706   7.490  0.1295  0.0645 -0.3888
   94CHL1   H14 9379   4.879   4.673   7.509 -0.2239  0.1572  1.8901
   94CHL1   C15 9380   4.680   4.624   7.584  0.1494  0.7578 -0.7453
   94CHL1  H15A 9381   4.580   4.604   7.541 -0.1312 -0.7570  0.4876
   94CHL1  H15B 9382   4.728   4.524   7.594  0.1092  0.8082  0.0226
   94CHL1   C16 9383   4.680   4.705   7.720 -0.4363  0.1816  0.5707
   94CHL1  H16A 9384   4.579   4.744   7.744 -1.0244 -1.0673  0.2453
   94CHL1  H16B 9385   4.720   4.650   7.808  0.9366  0.2458  0.0219
   94CHL1   C17 9386   4.762   4.826   7.693 -0.6535  0.0014 -0.5126
   94CHL1   H17 9387   4.865   4.793   7.716 -0.9401 -0.7834 -0.3257
   94CHL1   C13 9388   4.760   4.848   7.546 -1.3337  0.1692  0.2871
   94CHL1   C18 9389   4.612   4.910   7.508  0.3038 -0.0332 -0.2269
   94CHL1  H18A 9390   4.594   4.896   7.399  0.0862 -0.4142 -0.1468
   94CHL1  H18B 9391   4.527   4.877   7.572 -0.5634  0.7245 -0.9729
   94CHL1  H18C 9392   4.610   5.020   7.518 -2.7148 -0.0340 -0.0192
   94CHL1   C12 9393   4.872   4.930   7.474 -0.2916 -0.3082 -0.2706
   94CHL1  H12A 9394   4.870   5.037   7.501 -1.0871 -0.3576 -0.0981
   94CHL1  H12B 9395   4.978   4.901   7.492  0.0213  1.5264  1.1001
   94CHL1   C11 9396   4.857   4.926   7.322 -0.0452 -0.0804 -0.6782
   94CHL1  H11A 9397   4.761   4.979   7.304  0.1650  0.3005 -0.6911
   94CHL1  H11B 9398   4.924   4.998   7.272  0.1676 -0.4861 -0.9771
   94CHL1    C9 9399   4.856   4.787   7.260  0.5886 -0.0004  0.9138
   94CHL1    H9 9400   4.958   4.749   7.282  1.4514  1.1589 -0.8943
   94CHL1   C10 9401   4.832   4.782   7.101 -0.1469 -0.0757 -0.4506
   94CHL1   C19 9402   4.708   4.873   7.060  0.1065 -0.2567 -0.5328
   94CHL1  H19A 9403   4.625   4.853   7.132 -0.8109  0.3393 -1.3969
   94CHL1  H19B 9404   4.746   4.976   7.077 -0.7916 -0.0809  0.5115
   94CHL1  H19C 9405   4.678   4.860   6.954  2.9569  2.6574 -1.8595
   94CHL1    C1 9406   4.959   4.838   7.032  0.4915 -0.1082  0.3356
   94CHL1   H1A 9407   4.977   4.946   7.045 -0.8830  0.0896  0.7421
   94CHL1   H1B 9408   5.037   4.772   7.076 -0.3107 -1.0669  0.3638
   94CHL1    C2 9409   4.965   4.827   6.878 -0.3198  0.0003  0.2038
   94CHL1   H2A 9410   5.067   4.862   6.849  0.0591  0.0354  1.5327
   94CHL1   H2B 9411   4.880   4.879   6.828 -1.4319  0.8206  2.7596
   94CHL1   C20 9412   4.739   4.943   7.783 -0.8330 -1.1407  0.5943
   94CHL1   H20 9413   4.685   5.030   7.740 -1.6429 -1.5441  0.7753
   94CHL1   C21 9414   4.883   4.997   7.815 -0.8479  0.1772 -0.2009
   94CHL1  H21A 9415   4.920   4.931   7.896 -0.2915 -0.6833 -1.1370
   94CHL1  H21B 9416   4.872   5.103   7.848  0.2906  0.6916 -1.3823
   94CHL1  H21C 9417   4.958   4.995   7.733 -0.3607  0.0832  0.2402
   94CHL1   C22 9418   4.652   4.902   7.917  0.3972  0.1005  0.3872
   94CHL1  H22A 9419   4.551   4.869   7.884 -0.4570  2.6263  0.2570
   94CHL1  H22B 9420   4.709   4.816   7.960  1.5965  1.2901  1.2844
   94CHL1   C23 9421   4.636   5.014   8.015  0.6617  0.1306  0.0491
   94CHL1  H23A 9422   4.737   5.052   8.042  0.3383  0.7845  0.3603
   94CHL1  H23B 9423   4.566   5.083   7.965 -1.9404 -1.2494  1.5676
   94CHL1   C24 9424   4.577   4.986   8.157  0.7146 -0.3714  0.2426
   94CHL1  H24A 9425   4.507   4.901   8.141  0.4033  0.4771 -3.7502
   94CHL1  H24B 9426   4.659   4.936   8.213 -1.3372 -3.9053  0.3908
   94CHL1   C25 9427   4.513   5.104   8.234  0.3682 -0.1788  0.0271
   94CHL1   H25 9428   4.572   5.194   8.208 -3.3991  1.7884 -2.7008
   94CHL1   C26 9429   4.365   5.115   8.194 -0.0014 -0.1308  0.4228
   94CHL1  H26A 9430   4.321   5.014   8.203  0.2735 -0.2149  0.8516
   94CHL1  H26B 9431   4.313   5.191   8.256 -1.2485 -1.0553  0.5333
   94CHL1  H26C 9432   4.354   5.139   8.086 -3.1486  0.0535  0.6938
   94CHL1   C27 9433   4.531   5.085   8.385 -0.5521 -0.1730 -0.3194
   94CHL1  H27A 9434   4.633   5.123   8.403 -0.2057 -0.9765 -0.5516
   94CHL1  H27B 9435   4.458   5.140   8.448 -0.3444 -0.7711  0.4615
   94CHL1  H27C 9436   4.517   4.981   8.422 -1.5216 -0.7365 -2.1326
   95CHL1    C3 9437   3.113   4.172   6.603  0.3416  0.4296  0.5397
   95CHL1    H3 9438   3.022   4.228   6.632 -0.1141  1.9930 -3.3065
   95CHL1    O3 9439   3.122   4.177   6.461  0.1400  0.3636  0.7218
   95CHL1   H3' 9440   3.209   4.213   6.445 -0.3422  1.4156  0.3164
   95CHL1    C4 9441   3.233   4.242   6.677 -0.0538  0.6006 -0.8283
   95CHL1   H4A 9442   3.322   4.181   6.650  0.7971  0.5907  1.7071
   95CHL1   H4B 9443   3.240   4.344   6.633 -1.5786  0.8796 -0.4766
   95CHL1    C5 9444   3.233   4.240   6.829  0.2267  1.0025 -0.2727
   95CHL1    C6 9445   3.233   4.354   6.900 -0.4336  0.3261 -0.2705
   95CHL1    H6 9446   3.243   4.443   6.836 -0.4467 -0.5798 -1.5753
   95CHL1    C7 9447   3.224   4.362   7.048 -0.4079  0.1027 -0.7000
   95CHL1   H7A 9448   3.308   4.418   7.095 -0.1415 -1.7484  1.1624
   95CHL1   H7B 9449   3.129   4.413   7.074 -1.3090 -2.2634  1.0219
   95CHL1    C8 9450   3.230   4.224   7.121  0.5679  0.8324  0.4219
   95CHL1    H8 9451   3.335   4.188   7.130  1.0066  1.5735 -1.2349
   95CHL1   C14 9452   3.164   4.238   7.256 -0.4321 -1.3783  0.1578
   95CHL1   H14 9453   3.062   4.276   7.233 -0.1803 -0.2293  0.8314
   95CHL1   C15 9454   3.224   4.346   7.354 -0.4720  0.3622  0.8851
   95CHL1  H15A 9455   3.334   4.341   7.366 -0.4227 -1.4371  0.0976
   95CHL1  H15B 9456   3.191   4.447   7.321 -0.8150 -0.3278 -1.0372
   95CHL1   C16 9457   3.161   4.303   7.491 -0.1887 -0.1259 -0.2437
   95CHL1  H16A 9458   3.234   4.317   7.573 -0.3371 -0.2282 -0.0955
   95CHL1  H16B 9459   3.083   4.376   7.521 -0.4238 -0.4754 -0.0021
   95CHL1   C17 9460   3.104   4.163   7.475  0.2799 -0.2467  0.4657
   95CHL1   H17 9461   2.994   4.171   7.463  0.1076 -3.0403 -0.7922
   95CHL1   C13 9462   3.158   4.112   7.339 -0.3522 -0.4179  0.2953
   95CHL1   C18 9463   3.303   4.067   7.359 -0.3731 -0.0174 -0.3904
   95CHL1  H18A 9464   3.295   3.975   7.421 -2.3284  0.9141  0.8262
   95CHL1  H18B 9465   3.350   4.030   7.265  0.6192 -0.5415  0.2921
   95CHL1  H18C 9466   3.364   4.139   7.419  0.2514 -1.1206  0.3327
   95CHL1   C12 9467   3.073   4.013   7.255 -0.9190  0.0960 -0.0520
   95CHL1  H12A 9468   3.070   3.920   7.315 -1.8402 -0.3220 -0.7177
   95CHL1  H12B 9469   2.969   4.053   7.256 -0.3856  1.6185  2.3016
   95CHL1   C11 9470   3.132   3.985   7.116 -0.2059 -0.2129  0.5518
   95CHL1  H11A 9471   3.226   3.926   7.124 -0.0644 -0.3291 -1.5004
   95CHL1  H11B 9472   3.062   3.921   7.057 -0.1500 -0.0200  0.2777
   95CHL1    C9 9473   3.150   4.114   7.036  0.1928 -0.2072 -0.1876
   95CHL1    H9 9474   3.053   4.168   7.030  1.3498  2.1516  1.0509
   95CHL1   C10 9475   3.203   4.099   6.889 -0.2723  0.0022  0.4181
   95CHL1   C19 9476   3.342   4.019   6.888 -0.1288 -0.1078 -0.5114
   95CHL1  H19A 9477   3.418   4.072   6.949  0.6074 -1.1028 -0.5337
   95CHL1  H19B 9478   3.324   3.919   6.934 -1.4132 -0.7169 -2.2098
   95CHL1  H19C 9479   3.368   4.005   6.781  0.0053  0.5173 -0.5640
   95CHL1    C1 9480   3.098   4.022   6.803 -1.0624 -0.0197  0.3903
   95CHL1   H1A 9481   3.101   3.913   6.823 -0.9218  0.3575  2.6524
   95CHL1   H1B 9482   2.995   4.050   6.831 -1.2879 -1.9938  1.7611
   95CHL1    C2 9483   3.117   4.026   6.648 -0.0492  0.3150 -0.4813
   95CHL1   H2A 9484   3.030   3.972   6.606  0.4073  0.1042 -1.1860
   95CHL1   H2B 9485   3.209   3.969   6.622  1.0754  1.9427 -0.2226
   95CHL1   C20 9486   3.117   4.065   7.594  0.6773  0.3690 -0.2072
   95CHL1   H20 9487   3.220   4.025   7.607  0.4757  0.0794  0.4840
   95CHL1   C21 9488   3.024   3.942   7.571  0.4866 -0.3697  0.0505
   95CHL1  H21A 9489   3.075   3.863   7.511  2.9951  1.1244  0.0840
   95CHL1  H21B 9490   2.928   3.972   7.524  0.5444 -1.6829 -0.9620
   95CHL1  H21C 9491   3.003   3.902   7.672 -1.3885  0.4428  0.0261
   95CHL1   C22 9492   3.069   4.141   7.725 -0.2279  0.0494 -0.6179
   95CHL1  H22A 9493   3.133   4.230   7.737 -2.1848  1.4422 -0.1107
   95CHL1  H22B 9494   2.963   4.171   7.710 -0.7041 -0.4817  1.3769
   95CHL1   C23 9495   3.083   4.066   7.859 -0.6349 -0.4057 -0.0882
   95CHL1  H23A 9496   3.021   3.975   7.869 -0.6142 -0.4811 -0.6104
   95CHL1  H23B 9497   3.187   4.027   7.868 -0.4623  0.2579  0.9997
   95CHL1   C24 9498   3.061   4.165   7.976 -0.2623 -0.3670 -0.2873
   95CHL1  H24A 9499   3.128   4.149   8.063  0.6679 -0.2271 -0.9689
   95CHL1  H24B 9500   3.078   4.269   7.941 -0.0012 -0.6725 -1.1031
   95CHL1   C25 9501   2.918   4.145   8.034 -0.3579  0.0727 -0.3592
   95CHL1   H25 9502   2.910   4.043   8.078 -0.0455  0.1034 -0.2302
   95CHL1   C26 9503   2.891   4.248   8.145  0.2471  0.1265 -0.3598
   95CHL1  H26A 9504   2.789   4.248   8.190  0.8374  2.2291  1.1761
   95CHL1  H26B 9505   2.972   4.244   8.221  0.6299 -1.0416 -0.8097
   95CHL1  H26C 9506   2.903   4.350   8.102 -0.2692 -0.0900 -1.0385
   95CHL1   C27 9507   2.798   4.148   7.936  0.3599  0.3516  0.0268
   95CHL1  H27A 9508   2.813   4.082   7.847  0.3465 -1.5293  1.3647
   95CHL1  H27B 9509   2.703   4.112   7.979 -0.1042 -2.1463 -2.7144
   95CHL1  H27C 9510   2.761   4.244   7.894 -1.9481  0.1320  1.4102
   96CHL1    C3 9511   3.680   2.486   6.786 -0.2008  0.6479  0.1790
   96CHL1    H3 9512   3.787   2.494   6.816 -0.6783  0.2402  2.1598
   96CHL1    O3 9513   3.660   2.470   6.648  0.2333  0.3275  0.2571
   96CHL1   H3' 9514   3.564   2.477   6.637  0.4927  1.5435 -1.9221
   96CHL1    C4 9515   3.634   2.362   6.863 -0.0075 -0.2422 -0.4120
   96CHL1   H4A 9516   3.526   2.340   6.850 -0.9462  2.7756  1.3018
   96CHL1   H4B 9517   3.689   2.275   6.821  3.7218  0.5742  2.2618
   96CHL1    C5 9518   3.660   2.388   7.015  0.0819  0.0792  0.7779
   96CHL1    C6 9519   3.745   2.307   7.078 -0.1475 -0.5666 -0.4822
   96CHL1    H6 9520   3.799   2.227   7.025  0.1409  0.0759 -1.1713
   96CHL1    C7 9521   3.777   2.320   7.233  0.2627  0.0056  0.3313
   96CHL1   H7A 9522   3.775   2.217   7.275 -1.7770 -0.0459  0.1881
   96CHL1   H7B 9523   3.880   2.358   7.247  1.9579 -3.0582 -2.3210
   96CHL1    C8 9524   3.675   2.408   7.305 -0.2632  0.3602 -0.5451
   96CHL1    H8 9525   3.582   2.348   7.312  0.6422 -1.1123 -0.6769
   96CHL1   C14 9526   3.720   2.436   7.441 -0.1621 -0.1834  0.0256
   96CHL1   H14 9527   3.812   2.496   7.423  0.3226 -0.0125  2.6670
   96CHL1   C15 9528   3.754   2.318   7.528 -0.2712  0.2121  0.6272
   96CHL1  H15A 9529   3.685   2.231   7.515  3.1532 -2.7151  0.3671
   96CHL1  H15B 9530   3.855   2.281   7.500 -0.0455 -0.0672  1.7830
   96CHL1   C16 9531   3.742   2.364   7.675  0.1002  0.0790  0.7525
   96CHL1  H16A 9532   3.668   2.297   7.724 -1.1377  0.7006 -0.2189
   96CHL1  H16B 9533   3.843   2.370   7.721  1.6710 -0.5093 -2.3625
   96CHL1   C17 9534   3.686   2.506   7.670  0.4479  0.0464 -0.8707
   96CHL1   H17 9535   3.766   2.583   7.653 -0.1781  0.1931 -3.7980
   96CHL1   C13 9536   3.623   2.518   7.531  0.7184 -0.1790  0.8376
   96CHL1   C18 9537   3.478   2.463   7.529 -0.5544  0.0107 -0.0119
   96CHL1  H18A 9538   3.400   2.541   7.542 -2.3559 -1.6114 -0.6238
   96CHL1  H18B 9539   3.450   2.423   7.429  0.4458 -0.9732  0.0763
   96CHL1  H18C 9540   3.458   2.387   7.607  0.6580  0.9713  1.2870
   96CHL1   C12 9541   3.623   2.658   7.459  0.5725  0.5462 -1.2033
   96CHL1  H12A 9542   3.552   2.726   7.509 -1.2920 -2.4969  0.5598
   96CHL1  H12B 9543   3.721   2.709   7.475  0.8532 -0.7069  1.4447
   96CHL1   C11 9544   3.581   2.653   7.308 -0.6585 -0.5703  0.6635
   96CHL1  H11A 9545   3.471   2.639   7.310 -0.6046 -1.1624 -0.2137
   96CHL1  H11B 9546   3.594   2.753   7.261  1.3836 -1.0444  0.1417
   96CHL1    C9 9547   3.653   2.545   7.225 -0.3964  0.5167  0.2802
   96CHL1    H9 9548   3.753   2.588   7.207 -0.9032  1.5509 -0.1851
   96CHL1   C10 9549   3.587   2.511   7.081 -0.1800  0.1510  1.0784
   96CHL1   C19 9550   3.435   2.491   7.095  0.1074 -0.0977 -0.5553
   96CHL1  H19A 9551   3.379   2.580   7.129  0.6945 -0.1535  0.6123
   96CHL1  H19B 9552   3.388   2.462   6.999 -2.6192 -1.4322  1.0554
   96CHL1  H19C 9553   3.404   2.410   7.165 -1.3504  1.2498  0.4090
   96CHL1    C1 9554   3.623   2.634   6.990 -0.5413 -0.8644 -0.1284
   96CHL1   H1A 9555   3.586   2.733   7.023  0.9921 -0.8610  1.7497
   96CHL1   H1B 9556   3.732   2.647   7.006 -0.3179  0.5395 -2.3327
   96CHL1    C2 9557   3.610   2.615   6.839  0.6557  0.1712 -0.2069
   96CHL1   H2A 9558   3.653   2.707   6.795  1.2084 -0.0118 -0.0594
   96CHL1   H2B 9559   3.503   2.622   6.810  0.9930 -0.2868 -1.6612
   96CHL1   C20 9560   3.606   2.548   7.797  0.5916  0.2596 -0.1212
   96CHL1   H20 9561   3.524   2.476   7.818 -0.2332  1.6812  1.7273
   96CHL1   C21 9562   3.527   2.680   7.775 -0.0568  0.1925  0.2623
   96CHL1  H21A 9563   3.490   2.723   7.871  2.7432 -1.6419  2.3277
   96CHL1  H21B 9564   3.442   2.657   7.707  0.3264 -1.2626  0.2467
   96CHL1  H21C 9565   3.596   2.758   7.736 -0.0999 -0.1595 -0.5190
   96CHL1   C22 9566   3.693   2.559   7.928 -0.6003  0.2348 -0.3742
   96CHL1  H22A 9567   3.753   2.466   7.928  1.8637  1.7091 -1.0828
   96CHL1  H22B 9568   3.762   2.646   7.940 -1.5709  0.9190  0.4436
   96CHL1   C23 9569   3.612   2.562   8.058 -0.0221  0.1657 -0.0892
   96CHL1  H23A 9570   3.564   2.661   8.072  0.7044  0.5993 -0.6031
   96CHL1  H23B 9571   3.525   2.493   8.057 -1.0826  1.4094  1.5429
   96CHL1   C24 9572   3.702   2.533   8.180 -0.3794 -0.1294 -0.7075
   96CHL1  H24A 9573   3.747   2.433   8.165 -0.7066 -0.7610  1.9494
   96CHL1  H24B 9574   3.771   2.620   8.179 -2.2465  1.4131 -1.1132
   96CHL1   C25 9575   3.619   2.540   8.313 -0.3176 -0.6013  0.2052
   96CHL1   H25 9576   3.553   2.451   8.309 -0.1832 -0.6562 -1.6369
   96CHL1   C26 9577   3.711   2.521   8.432 -0.6943  0.4223 -0.9628
   96CHL1  H26A 9578   3.771   2.428   8.419 -2.2858 -0.6789 -0.7936
   96CHL1  H26B 9579   3.783   2.605   8.433  0.3816 -0.4616  0.3702
   96CHL1  H26C 9580   3.663   2.513   8.532 -0.8201 -2.5329 -1.1577
   96CHL1   C27 9581   3.537   2.660   8.347  0.1621  0.0506  0.4348
   96CHL1  H27A 9582   3.448   2.670   8.281  1.7330  3.3164 -1.3955
   96CHL1  H27B 9583   3.512   2.658   8.456 -0.9935 -0.2080  0.1874
   96CHL1  H27C 9584   3.581   2.759   8.326 -1.5917  0.9334  0.7036
   97OSM      N 9585   6.739   4.495  11.224  0.0388  0.0465 -0.0626
   97OSM    C15 9586   6.695   4.351  11.212  0.1239  0.1315  0.0285
   97OSM   H15A 9587   6.694   4.304  11.309  0.2737 -0.8827 -0.4503
   97OSM   H15B 9588   6.762   4.292  11.151 -0.5324 -2.4236  1.6370
   97OSM   H15C 9589   6.600   4.340  11.162  0.6383  2.1520 -1.5145
   97OSM    C14 9590   6.718   4.560  11.093  0.1350  0.4821  0.0863
   97OSM   H14A 9591   6.765   4.508  11.011 -1.6314  0.5840 -1.0503
   97OSM   H14B 9592   6.771   4.654  11.092  2.2329 -0.6527 -1.0784
   97OSM   H14C 9593   6.614   4.565  11.066  0.5914  0.8560 -1.6888
   97OSM    C13 9594   6.654   4.555  11.339 -0.2772 -0.4084  0.1782
   97OSM   H13A 9595   6.547   4.543  11.332 -0.1068 -1.6455 -0.5823
   97OSM   H13B 9596   6.670   4.662  11.343  2.1013 -0.5876 -1.9887
   97OSM   H13C 9597   6.704   4.523  11.430  0.2402 -0.6424 -0.1828
   97OSM    C12 9598   6.895   4.511  11.259 -0.1373  0.3455 -0.4259
   97OSM   H12A 9599   6.957   4.459  11.187  0.9343 -1.0342  1.3979
   97OSM   H12B 9600   6.916   4.448  11.344 -1.0810  0.9207  0.2526
   97OSM    C11 9601   6.943   4.661  11.292  0.2218  0.0572 -0.5614
   97OSM   H11A 9602   7.042   4.645  11.340  0.7884 -0.9529 -2.0092
   97OSM   H11B 9603   6.873   4.694  11.371  0.0585 -0.8785 -0.2987
   97OSM      P 9604   7.065   4.771  11.081 -0.2978 -0.1521  0.3237
   97OSM    O13 9605   7.104   4.918  11.081 -0.4076  0.3355 -0.2384
   97OSM    O14 9606   7.176   4.669  11.113  0.3087  0.4568  0.4828
   97OSM    O11 9607   7.008   4.741  10.940 -0.7570 -0.5689 -0.0043
   97OSM    O12 9608   6.937   4.750  11.180 -0.9399 -0.2236  0.2773
   97OSM    C1S 9609   6.922   4.825  10.865 -0.6177  0.6814 -0.7730
   97OSM    H1S 9610   6.950   4.930  10.886  1.2110 -0.4201  3.1179
   97OSM    H1T 9611   6.817   4.817  10.898 -0.4984  0.5174 -0.4331
   97OSM     NF 9612   6.886   4.915  10.639  0.1557 -0.1514 -0.6735
   97OSM    HNF 9613   6.789   4.903  10.620  0.3852 -1.0886 -1.3400
   97OSM    C2S 9614   6.941   4.800  10.710 -0.1169 -0.3405 -0.2121
   97OSM    H2S 9615   7.051   4.802  10.696 -0.2019 -0.7907 -0.9487
   97OSM    C3S 9616   6.878   4.661  10.683  1.0066  0.0235  0.5102
   97OSM    H3S 9617   6.767   4.661  10.687  0.9531 -0.8267 -0.4754
   97OSM     O3 9618   6.924   4.548  10.756  0.2114  0.3764 -0.2631
   97OSM    HO3 9619   6.986   4.586  10.819 -0.5458 -0.9783  1.4020
   97OSM    C4S 9620   6.891   4.625  10.537  0.2938 -0.0597  0.4260
   97OSM    H4S 9621   6.800   4.603  10.480  0.5674  0.7343 -0.3423
   97OSM    C5S 9622   7.005   4.585  10.476 -0.0365  0.5196  0.1222
   97OSM    H5S 9623   7.095   4.575  10.539 -0.8784  0.8176  1.4035
   97OSM    C6S 9624   7.033   4.544  10.336  0.4887  0.2851  0.5575
   97OSM    H6S 9625   7.072   4.441  10.347 -0.0283  0.1635  1.3946
   97OSM    H6T 9626   7.112   4.605  10.287 -0.0809  0.2261 -0.4793
   97OSM    C7S 9627   6.907   4.540  10.246 -0.4786 -0.4151  0.2524
   97OSM    H7S 9628   6.834   4.624  10.251  0.6515  0.5947  0.3274
   97OSM    H7T 9629   6.847   4.453  10.281 -0.6779 -0.2207  0.4032
   97OSM    C8S 9630   6.943   4.503  10.103  0.4551  0.5286  0.5145
   97OSM    H8S 9631   6.851   4.466  10.054 -0.8301  2.8181  1.0894
   97OSM    H8T 9632   7.015   4.418  10.112 -0.5414 -0.3831  0.0506
   97OSM    C9S 9633   7.016   4.613  10.017  0.4766 -0.8293 -0.1534
   97OSM    H9S 9634   7.112   4.633  10.071  1.3059 -2.0030 -1.1355
   97OSM    H9T 9635   6.950   4.701   9.999  2.2369 -0.0649 -3.8798
   97OSM   C10S 9636   7.075   4.569   9.883  0.3583 -0.1446 -0.1537
   97OSM   H10S 9637   7.128   4.472   9.891  1.8077  0.4747 -1.6692
   97OSM   H10T 9638   7.150   4.646   9.859  1.9294 -1.1325  1.3356
   97OSM   C11S 9639   6.969   4.554   9.770  0.6772  0.6269  0.3023
   97OSM   H11S 9640   6.935   4.653   9.732  3.3908  0.3823 -3.2906
   97OSM   H11T 9641   6.886   4.488   9.802  2.3230 -0.2114  3.2399
   97OSM   C12S 9642   7.036   4.493   9.644 -0.3030 -0.0358 -0.7476
   97OSM   H12S 9643   7.061   4.387   9.666  1.3822  0.3070 -0.9108
   97OSM   H12T 9644   7.127   4.553   9.624 -0.7582  0.6714 -0.7512
   97OSM   C13S 9645   6.944   4.500   9.521 -0.7704  0.5073 -0.8365
   97OSM   H13S 9646   6.914   4.605   9.500 -1.5113  0.3327 -0.6848
   97OSM   H13T 9647   6.846   4.450   9.541  0.2407 -0.9378  0.8024
   97OSM   C14S 9648   7.009   4.421   9.415 -0.0880  0.1315  0.0353
   97OSM   H14S 9649   7.012   4.314   9.447 -4.2081  0.4029  1.9055
   97OSM   H14T 9650   7.111   4.462   9.401 -0.5626  0.4850 -3.0752
   97OSM   C15S 9651   6.934   4.426   9.283  0.2374 -0.0425 -0.4708
   97OSM   H15S 9652   6.833   4.386   9.302  1.1970 -2.5160 -0.2621
   97OSM   H15T 9653   6.979   4.357   9.209  1.1803 -0.7820  0.7543
   97OSM   C16S 9654   6.916   4.569   9.219 -0.1473  0.7871  0.9615
   97OSM   H16S 9655   7.016   4.617   9.223  0.4066 -0.3514  1.1266
   97OSM   H16T 9656   6.842   4.623   9.283 -0.2089 -1.2736  2.7338
   97OSM   C17S 9657   6.870   4.561   9.072  0.0377  0.0093  0.1402
   97OSM   H17S 9658   6.772   4.508   9.063  0.9842 -2.4692  2.8053
   97OSM   H17T 9659   6.937   4.510   9.001  0.5443  2.0429 -0.9185
   97OSM   C18S 9660   6.846   4.705   9.021 -0.1931 -0.5387 -0.2144
   97OSM   H18S 9661   6.863   4.701   8.911 -1.3456  0.1885 -0.4413
   97OSM   H18T 9662   6.919   4.779   9.059  0.6078 -1.9658  1.1013
   97OSM   H18U 9663   6.743   4.733   9.053  0.8920  1.6413  1.6703
   97OSM    C1F 9664   6.945   5.042  10.637  0.1220  1.0647 -0.1035
   97OSM     OF 9665   7.060   5.062  10.676  0.5131  0.3943  0.1517
   97OSM    C2F 9666   6.866   5.163  10.593  0.2022 -0.3275 -0.0815
   97OSM    H2F 9667   6.916   5.256  10.627  1.8968 -1.6538  1.2035
   97OSM    H2G 9668   6.765   5.156  10.639  1.1731 -2.7295  1.9318
   97OSM    C3F 9669   6.833   5.173  10.446  0.3223  0.0163 -0.4336
   97OSM    H3F 9670   6.753   5.247  10.427  0.5795 -0.1867 -2.5066
   97OSM    H3G 9671   6.790   5.076  10.412 -1.3751  1.1527 -1.6771
   97OSM    C4F 9672   6.952   5.200  10.354  0.0301  0.0324  0.1317
   97OSM    H4F 9673   6.928   5.154  10.256 -2.0439 -0.3287  0.7577
   97OSM    H4G 9674   7.047   5.156  10.391 -0.2786  0.3249  1.3219
   97OSM    C5F 9675   6.973   5.348  10.324 -0.1425  0.9284  0.5368
   97OSM    H5F 9676   6.960   5.415  10.411 -0.2543  0.1408  1.1415
   97OSM    H5G 9677   6.890   5.384  10.259  1.2632  0.9314 -1.3249
   97OSM    C6F 9678   7.108   5.379  10.268  1.0693 -0.8597 -0.1474
   97OSM    H6F 9679   7.121   5.302  10.190 -1.7349 -2.2791  0.6672
   97OSM    H6G 9680   7.189   5.355  10.340 -1.3336 -0.9055  2.7100
   97OSM    C7F 9681   7.128   5.519  10.221 -0.8635 -0.5282 -0.4601
   97OSM    H7F 9682   7.236   5.543  10.233 -0.9356  0.7468 -2.0586
   97OSM    H7G 9683   7.084   5.588  10.297 -0.2748 -1.1264  0.4419
   97OSM    C8F 9684   7.070   5.551  10.081 -0.4259  0.2429  0.3048
   97OSM    H8F 9685   7.094   5.654  10.047 -0.6028  0.4035  0.6617
   97OSM    H8G 9686   6.960   5.544  10.086 -0.5886  0.6896 -1.7078
   97OSM    C9F 9687   7.124   5.450   9.982  0.1642  0.3714 -0.8751
   97OSM    H9F 9688   7.234   5.442   9.988  0.1740  0.4580  4.7782
   97OSM   C10F 9689   7.050   5.376   9.890  0.3646 -0.1645 -0.8864
   97OSM   H10F 9690   7.109   5.297   9.840  0.3138 -0.5193 -0.3890
   97OSM   C11F 9691   6.906   5.384   9.859 -0.3243 -0.9946  0.2784
   97OSM   H11F 9692   6.866   5.470   9.916  0.3376 -0.6799  0.2783
   97OSM   H11G 9693   6.857   5.298   9.909  0.4404 -1.4655  0.2206
   97OSM   C12F 9694   6.860   5.378   9.714  0.3721  0.4572 -0.3448
   97OSM   H12F 9695   6.750   5.395   9.715 -0.1141 -2.0769  2.0382
   97OSM   H12G 9696   6.881   5.283   9.660  2.0686 -0.7069  2.1965
   97OSM   C13F 9697   6.909   5.498   9.633  0.5352  0.2534 -0.1048
   97OSM   H13F 9698   7.010   5.470   9.597  0.1902 -1.6881  0.3400
   97OSM   H13G 9699   6.918   5.577   9.711  2.5424  1.2531 -1.2556
   97OSM   C14F 9700   6.809   5.539   9.519 -0.4632 -0.1108 -0.5076
   97OSM   H14F 9701   6.867   5.618   9.467  0.5173 -0.3101  0.2780
   97OSM   H14G 9702   6.713   5.583   9.555 -0.5460 -2.2641  2.2450
   97OSM   C15F 9703   6.790   5.440   9.400  0.2436  0.7758 -1.2124
   97OSM   H15F 9704   6.711   5.370   9.436  0.8603  0.9169  0.5423
   97OSM   H15G 9705   6.885   5.383   9.391  0.8445  1.3993  0.5922
   97OSM   C16F 9706   6.759   5.505   9.265 -0.2817 -0.4450  0.4302
   97OSM   H16F 9707   6.852   5.554   9.228 -0.1520 -0.3631  0.8638
   97OSM   H16G 9708   6.690   5.592   9.270  0.1951  0.0339 -0.8460
   97OSM   C17F 9709   6.710   5.412   9.155 -0.4879 -0.6831  0.1381
   97OSM   H17F 9710   6.613   5.363   9.175 -1.0353  0.5192  0.4886
   97OSM   H17G 9711   6.782   5.327   9.147 -2.1768 -2.3296  1.4194
   97OSM   C18F 9712   6.707   5.489   9.020 -0.3687 -0.1707  0.4117
   97OSM   H18F 9713   6.631   5.567   9.001 -0.3678 -0.7133 -2.1926
   97OSM   H18G 9714   6.687   5.421   8.935 -0.3343  0.7634 -0.3618
   97OSM   H18H 9715   6.807   5.535   9.004 -1.0753  1.5240  0.6384
   98OSM      N 9716   6.662   3.322  10.884 -0.4113  0.0713 -0.7071
   98OSM    C15 9717   6.664   3.421  10.998 -0.6258  0.8854  0.3775
   98OSM   H15A 9718   6.713   3.371  11.080 -0.1415  0.8432  0.0708
   98OSM   H15B 9719   6.566   3.454  11.028 -0.4606  0.6337  1.2261
   98OSM   H15C 9720   6.722   3.511  10.986  2.6269 -0.6441  3.0893
   98OSM    C14 9721   6.607   3.388  10.761 -1.0572 -0.0349 -0.0389
   98OSM   H14A 9722   6.500   3.403  10.764 -1.3402 -1.0719 -2.5738
   98OSM   H14B 9723   6.613   3.323  10.675  0.0641 -1.6363  1.1775
   98OSM   H14C 9724   6.661   3.478  10.739 -0.2263 -0.5577 -0.1634
   98OSM    C13 9725   6.805   3.279  10.856  0.2561 -0.4640 -0.1227
   98OSM   H13A 9726   6.819   3.216  10.769 -1.2152 -1.8648  0.6061
   98OSM   H13B 9727   6.843   3.216  10.935  1.0836  0.3155  0.1111
   98OSM   H13C 9728   6.868   3.366  10.849  0.9652 -0.9689 -0.0372
   98OSM    C12 9729   6.580   3.204  10.926  0.5663  0.7166  0.1395
   98OSM   H12A 9730   6.635   3.151  11.002  1.3546  1.2276 -0.0668
   98OSM   H12B 9731   6.565   3.139  10.842  0.6664  0.3663  0.3899
   98OSM    C11 9732   6.433   3.228  10.975  0.6066 -0.1987  0.1366
   98OSM   H11A 9733   6.440   3.301  11.058  1.9717 -0.7897  0.5604
   98OSM   H11B 9734   6.396   3.130  11.012  0.4969 -1.1657 -2.3568
   98OSM      P 9735   6.232   3.355  10.852  0.0194 -0.2478  0.3973
   98OSM    O13 9736   6.193   3.406  10.979  0.2820 -0.0131 -0.2237
   98OSM    O14 9737   6.272   3.460  10.756  0.1361  0.6656 -0.1399
   98OSM    O11 9738   6.119   3.262  10.791  0.6556  0.3914 -0.1414
   98OSM    O12 9739   6.354   3.260  10.866 -0.1299 -0.3089 -0.2651
   98OSM    C1S 9740   6.135   3.203  10.662 -0.1947  0.2323  0.0582
   98OSM    H1S 9741   6.174   3.278  10.589 -0.2616 -0.2773 -0.5127
   98OSM    H1T 9742   6.036   3.169  10.624 -1.4608 -0.1189  3.4173
   98OSM     NF 9743   6.229   3.018  10.525  0.3236 -0.4579  0.0992
   98OSM    HNF 9744   6.177   2.935  10.503 -1.2362  0.9754 -1.9059
   98OSM    C2S 9745   6.228   3.075  10.656  0.3441 -0.4144 -0.0900
   98OSM    H2S 9746   6.331   3.104  10.686  0.5669 -0.2949 -0.9313
   98OSM    C3S 9747   6.188   2.966  10.752  0.0426  0.3358 -1.1664
   98OSM    H3S 9748   6.082   2.942  10.729 -0.6391  1.8122  0.3046
   98OSM     O3 9749   6.173   3.005  10.894 -0.1550 -0.2936  0.4887
   98OSM    HO3 9750   6.157   3.099  10.887 -0.7263 -0.3916  0.4482
   98OSM    C4S 9751   6.281   2.849  10.753 -0.6208 -0.1882  0.2675
   98OSM    H4S 9752   6.386   2.877  10.770 -0.4392 -0.4351 -0.4350
   98OSM    C5S 9753   6.260   2.714  10.742 -0.3316 -1.2848 -0.0582
   98OSM    H5S 9754   6.158   2.676  10.723 -0.6928  0.1400 -1.1409
   98OSM    C6S 9755   6.371   2.615  10.754  0.0060 -0.1646  0.1117
   98OSM    H6S 9756   6.368   2.564  10.852 -2.2534  1.2706  0.8693
   98OSM    H6T 9757   6.466   2.671  10.755 -1.5415  2.7839 -1.7722
   98OSM    C7S 9758   6.382   2.525  10.625 -0.3796 -1.1873  0.0404
   98OSM    H7S 9759   6.296   2.455  10.626 -2.3705  1.1245  0.9443
   98OSM    H7T 9760   6.471   2.462  10.644  1.2318  1.4460  2.0467
   98OSM    C8S 9761   6.395   2.604  10.487  0.6955 -1.0058 -0.3058
   98OSM    H8S 9762   6.468   2.688  10.499 -2.3633  1.6683  1.1457
   98OSM    H8T 9763   6.300   2.659  10.467  0.9753  0.4576  1.9908
   98OSM    C9S 9764   6.443   2.520  10.372  0.2973  0.3178  0.8923
   98OSM    H9S 9765   6.376   2.432  10.371 -0.0087  0.4897 -2.1363
   98OSM    H9T 9766   6.549   2.486  10.378 -0.0742 -2.0911 -2.8328
   98OSM   C10S 9767   6.426   2.605  10.238  0.7409  0.2463  0.5317
   98OSM   H10S 9768   6.483   2.547  10.163  0.8370 -0.6818  1.2933
   98OSM   H10T 9769   6.470   2.706  10.252 -0.9849  0.8966  1.6089
   98OSM   C11S 9770   6.283   2.593  10.194 -0.5012 -0.4109  0.1631
   98OSM   H11S 9771   6.214   2.632  10.272  0.6908 -2.0399  2.1326
   98OSM   H11T 9772   6.254   2.487  10.180 -1.7429 -0.0619 -0.0812
   98OSM   C12S 9773   6.256   2.668  10.066  0.2871 -0.3645 -0.2456
   98OSM   H12S 9774   6.281   2.775  10.080 -1.7729  0.1530 -0.3101
   98OSM   H12T 9775   6.149   2.662  10.036  0.8107 -0.8738 -2.1521
   98OSM   C13S 9776   6.338   2.622   9.944 -0.1224  0.2845  0.3270
   98OSM   H13S 9777   6.301   2.520   9.918 -1.4298  1.2246 -1.7885
   98OSM   H13T 9778   6.442   2.637   9.980 -0.7283  0.9041  1.9309
   98OSM   C14S 9779   6.323   2.715   9.826 -0.5698 -0.5146 -0.4898
   98OSM   H14S 9780   6.374   2.810   9.850 -0.4889 -0.8278  0.6433
   98OSM   H14T 9781   6.215   2.732   9.804  0.1232  1.9316 -2.2916
   98OSM   C15S 9782   6.380   2.684   9.684 -0.5956 -0.3664 -0.5721
   98OSM   H15S 9783   6.314   2.610   9.635  1.6448 -1.0237 -2.8226
   98OSM   H15T 9784   6.482   2.639   9.682 -0.1497  0.5945 -3.0472
   98OSM   C16S 9785   6.386   2.795   9.581 -0.0617  0.6960 -0.0828
   98OSM   H16S 9786   6.475   2.861   9.590  0.8728 -0.2320 -1.9181
   98OSM   H16T 9787   6.293   2.854   9.591 -1.5857 -1.4272 -0.9243
   98OSM   C17S 9788   6.397   2.726   9.449 -0.5496 -0.1279  0.5496
   98OSM   H17S 9789   6.311   2.658   9.436 -1.2285  0.6284  0.9604
   98OSM   H17T 9790   6.491   2.669   9.463 -1.0279 -0.6568  1.7121
   98OSM   C18S 9791   6.414   2.815   9.322  0.5039 -0.2570 -0.3883
   98OSM   H18S 9792   6.326   2.882   9.306  1.2568  1.2882  1.6342
   98OSM   H18T 9793   6.413   2.759   9.226  1.0371  1.5599 -1.5176
   98OSM   H18U 9794   6.510   2.872   9.324  0.2911  0.2275 -2.0578
   98OSM    C1F 9795   6.275   3.088  10.423 -0.0398 -0.5538  0.0528
   98OSM     OF 9796   6.333   3.190  10.444 -0.0921  0.0271 -0.3571
   98OSM    C2F 9797   6.261   3.027  10.283  0.4350 -0.1044 -0.3070
   98OSM    H2F 9798   6.175   2.957  10.289  2.0212 -2.0582  0.9023
   98OSM    H2G 9799   6.345   2.962  10.252  1.5023  1.2576 -0.3901
   98OSM    C3F 9800   6.240   3.135  10.174  0.2595 -0.1324 -0.5013
   98OSM    H3F 9801   6.316   3.216  10.167 -1.4121  1.6344  0.7614
   98OSM    H3G 9802   6.147   3.190  10.200 -0.5256 -2.4373  1.9240
   98OSM    C4F 9803   6.242   3.071  10.037  0.6206 -0.4610  0.2109
   98OSM    H4F 9804   6.179   2.979  10.044 -1.2500  0.7310 -0.3564
   98OSM    H4G 9805   6.345   3.037  10.012  0.2079  0.0959 -2.4912
   98OSM    C5F 9806   6.193   3.162   9.931 -0.2086 -0.3369  0.5356
   98OSM    H5F 9807   6.265   3.246   9.924 -0.5317 -0.1930 -1.9058
   98OSM    H5G 9808   6.102   3.220   9.958 -1.4857 -1.9549 -0.0559
   98OSM    C6F 9809   6.190   3.090   9.794  0.0976  0.1077  0.4009
   98OSM    H6F 9810   6.113   3.011   9.777  0.7859 -0.4435 -0.2266
   98OSM    H6G 9811   6.287   3.039   9.780 -0.3362 -0.7396  0.4170
   98OSM    C7F 9812   6.164   3.192   9.685 -0.7450 -0.2469  0.6470
   98OSM    H7F 9813   6.243   3.269   9.691 -0.9317 -0.0560  0.6914
   98OSM    H7G 9814   6.065   3.242   9.697 -0.0883  1.0024  0.9249
   98OSM    C8F 9815   6.173   3.130   9.546  0.1772  0.0479  0.5773
   98OSM    H8F 9816   6.084   3.064   9.550 -1.2001  1.7299 -0.7450
   98OSM    H8G 9817   6.266   3.071   9.529 -0.4014 -0.6562 -0.1852
   98OSM    C9F 9818   6.148   3.248   9.443  0.0899  0.2580 -0.0441
   98OSM    H9F 9819   6.224   3.327   9.442  1.9065 -1.4061 -0.0472
   98OSM   C10F 9820   6.033   3.276   9.375 -0.2520  0.1472  0.5056
   98OSM   H10F 9821   6.031   3.371   9.319 -0.8272  0.0807  0.4054
   98OSM   C11F 9822   5.913   3.190   9.383  0.4836  0.0457  0.1100
   98OSM   H11F 9823   5.914   3.113   9.464 -2.1743 -2.2970 -1.9061
   98OSM   H11G 9824   5.911   3.115   9.302 -0.2971  0.6161 -0.4103
   98OSM   C12F 9825   5.777   3.252   9.401 -0.0653 -0.2333  0.0304
   98OSM   H12F 9826   5.750   3.286   9.503 -0.9097 -0.0094 -0.2569
   98OSM   H12G 9827   5.703   3.171   9.384 -0.4209 -0.0330  0.5917
   98OSM   C13F 9828   5.739   3.363   9.301 -0.3070 -0.2266 -0.8678
   98OSM   H13F 9829   5.795   3.448   9.345 -0.2260 -0.8089  0.1854
   98OSM   H13G 9830   5.633   3.392   9.316 -0.4162 -1.1564  0.3366
   98OSM   C14F 9831   5.754   3.332   9.153 -0.1965  0.3968  0.2404
   98OSM   H14F 9832   5.696   3.240   9.130  0.4996 -0.1965  0.7926
   98OSM   H14G 9833   5.863   3.316   9.146 -0.3384 -0.0952 -1.0166
   98OSM   C15F 9834   5.702   3.442   9.057  0.4499  1.4096 -0.2195
   98OSM   H15F 9835   5.762   3.534   9.069  2.6308  0.0333  0.1262
   98OSM   H15G 9836   5.594   3.457   9.076  0.0272  2.3651 -2.9318
   98OSM   C16F 9837   5.717   3.399   8.910 -1.4078  0.4450  0.1519
   98OSM   H16F 9838   5.657   3.313   8.872  0.8600 -2.1022  1.9518
   98OSM   H16G 9839   5.821   3.359   8.908 -1.9243 -0.9415 -1.2053
   98OSM   C17F 9840   5.718   3.511   8.813  0.0384 -0.1553  0.7175
   98OSM   H17F 9841   5.785   3.592   8.850  1.7340 -0.8928 -0.5807
   98OSM   H17G 9842   5.620   3.563   8.803  1.0659  1.6623 -0.6279
   98OSM   C18F 9843   5.763   3.468   8.670  0.3093 -0.2035  0.5648
   98OSM   H18F 9844   5.855   3.405   8.674  0.0333 -0.7571 -1.0438
   98OSM   H18G 9845   5.790   3.546   8.596  2.0312  0.2272  1.6073
   98OSM   H18H 9846   5.694   3.389   8.633 -0.8677 -0.1880  2.5442
   99OSM      N 9847   2.432   5.330  11.102 -0.2021  0.0860  0.1868
   99OSM    C15 9848   2.426   5.266  11.236  0.3065  1.1087  0.5099
   99OSM   H15A 9849   2.439   5.342  11.311 -2.2203  0.2534  1.9650
   99OSM   H15B 9850   2.500   5.189  11.250 -1.6210 -1.1435 -0.6927
   99OSM   H15C 9851   2.329   5.218  11.235  0.7921  0.0872 -0.2881
   99OSM    C14 9852   2.337   5.446  11.094  0.3975 -0.3324 -0.3836
   99OSM   H14A 9853   2.361   5.522  11.166 -1.2042  1.1751 -1.3446
   99OSM   H14B 9854   2.235   5.417  11.114 -0.4543  2.3006 -0.5430
   99OSM   H14C 9855   2.325   5.490  10.996  1.7496  1.5092  0.2303
   99OSM    C13 9856   2.570   5.382  11.071  0.7380  0.2553 -0.1567
   99OSM   H13A 9857   2.639   5.299  11.075  0.3213 -0.0450  2.4463
   99OSM   H13B 9858   2.594   5.472  11.126 -1.0070  1.9971 -2.0624
   99OSM   H13C 9859   2.572   5.412  10.967  2.4518  2.1344  0.3373
   99OSM    C12 9860   2.388   5.238  10.990  0.5849  0.6865 -0.0765
   99OSM   H12A 9861   2.471   5.177  10.958 -1.2167 -1.1661 -1.4638
   99OSM   H12B 9862   2.366   5.296  10.901  1.7630 -0.4757 -1.1645
   99OSM    C11 9863   2.266   5.150  11.004  0.0462 -0.2273 -0.9398
   99OSM   H11A 9864   2.290   5.092  11.096  1.0629 -0.1392 -1.1307
   99OSM   H11B 9865   2.256   5.085  10.914 -1.5541 -0.2221 -0.7886
   99OSM      P 9866   2.001   5.191  10.973 -0.4511  0.0988 -0.2905
   99OSM    O13 9867   1.976   5.050  11.004  0.4111 -0.3812 -0.2631
   99OSM    O14 9868   1.902   5.291  11.020 -0.0816 -0.1553 -0.2714
   99OSM    O11 9869   2.023   5.198  10.812  0.2553  0.7997  0.1985
   99OSM    O12 9870   2.151   5.227  11.026  0.3968 -0.3662  0.1105
   99OSM    C1S 9871   2.076   5.325  10.763 -0.3448  0.0833 -0.2651
   99OSM    H1S 9872   2.162   5.356  10.826 -1.0674  0.6655  0.4702
   99OSM    H1T 9873   2.007   5.411  10.777  1.0129  1.1103  0.3407
   99OSM     NF 9874   2.232   5.423  10.589  0.1623  0.6894 -0.4264
   99OSM    HNF 9875   2.200   5.503  10.539 -0.0168  1.6320  1.1371
   99OSM    C2S 9876   2.135   5.317  10.623 -0.3790 -0.1243 -0.1798
   99OSM    H2S 9877   2.180   5.216  10.615  1.4647  0.5250  1.2174
   99OSM    C3S 9878   2.015   5.319  10.524  0.8562 -0.5847  0.9144
   99OSM    H3S 9879   1.972   5.422  10.531  0.0231 -0.9422  1.1770
   99OSM     O3 9880   1.907   5.238  10.567 -0.5935 -0.1661 -0.5725
   99OSM    HO3 9881   1.939   5.210  10.653 -1.8442 -0.6317 -0.2338
   99OSM    C4S 9882   2.053   5.282  10.382 -0.0189  0.2827  0.0462
   99OSM    H4S 9883   2.056   5.172  10.370  0.7094  0.3948 -1.0153
   99OSM    C5S 9884   2.092   5.366  10.283  0.5105 -0.1320 -0.5527
   99OSM    H5S 9885   2.096   5.474  10.302  1.2427 -0.0254 -1.2344
   99OSM    C6S 9886   2.134   5.333  10.140 -0.3302 -0.5092  0.0461
   99OSM    H6S 9887   2.053   5.365  10.071 -0.8545 -0.1085  0.8407
   99OSM    H6T 9888   2.135   5.222  10.133  1.8860 -0.6195  1.3635
   99OSM    C7S 9889   2.259   5.393  10.078  0.0050  0.3794  0.3915
   99OSM    H7S 9890   2.354   5.355  10.121  0.8235  1.9048  0.0083
   99OSM    H7T 9891   2.269   5.500  10.106  5.7541  0.2375 -0.0648
   99OSM    C8S 9892   2.267   5.368   9.922  0.7584 -0.2639  0.1116
   99OSM    H8S 9893   2.276   5.258   9.908  2.4370  0.2037 -3.8203
   99OSM    H8T 9894   2.364   5.412   9.891 -0.3373 -0.1701 -3.6153
   99OSM    C9S 9895   2.155   5.425   9.830  0.2862  0.0555  0.3791
   99OSM    H9S 9896   2.137   5.531   9.860  1.0447  0.1917  0.3754
   99OSM    H9T 9897   2.063   5.365   9.843 -0.7049  1.2813 -0.7042
   99OSM   C10S 9898   2.200   5.417   9.685  0.0848 -0.0027 -0.3775
   99OSM   H10S 9899   2.229   5.312   9.663 -0.4430  0.0457 -1.3513
   99OSM   H10T 9900   2.286   5.485   9.674  0.7506 -0.3476  2.1306
   99OSM   C11S 9901   2.090   5.447   9.584 -0.1305  0.3908  0.4417
   99OSM   H11S 9902   2.066   5.555   9.581 -1.0202  0.1857 -0.5636
   99OSM   H11T 9903   1.992   5.404   9.615 -0.1602  0.1425  0.0052
   99OSM   C12S 9904   2.128   5.410   9.437 -0.7931 -0.3920 -0.3051
   99OSM   H12S 9905   2.199   5.484   9.395 -0.1836 -0.6798  0.2155
   99OSM   H12T 9906   2.174   5.309   9.435 -0.2623 -0.1581  0.0181
   99OSM   C13S 9907   2.002   5.400   9.340 -0.0788  0.8706 -0.7946
   99OSM   H13S 9908   1.932   5.484   9.360  1.2762  1.8821 -0.0567
   99OSM   H13T 9909   1.953   5.301   9.351 -1.1359  1.4173 -0.4418
   99OSM   C14S 9910   2.051   5.422   9.193 -0.3839 -0.0624  1.0474
   99OSM   H14S 9911   2.105   5.333   9.156  0.5415  0.5546  0.8795
   99OSM   H14T 9912   2.119   5.508   9.177 -1.7020  0.6143 -1.4972
   99OSM   C15S 9913   1.940   5.437   9.079 -0.3815 -0.5918 -0.1464
   99OSM   H15S 9914   1.882   5.531   9.071 -0.2248 -0.5477 -0.8393
   99OSM   H15T 9915   1.861   5.361   9.100  2.2386 -2.6768  3.2127
   99OSM   C16S 9916   2.000   5.419   8.938  0.8481 -0.2887  0.7835
   99OSM   H16S 9917   2.015   5.310   8.931 -1.0100 -0.6367  1.4353
   99OSM   H16T 9918   2.093   5.479   8.930  0.5866 -0.1060 -1.4057
   99OSM   C17S 9919   1.901   5.464   8.828  0.4666 -0.0181 -0.1079
   99OSM   H17S 9920   1.910   5.575   8.832  0.3300 -0.0457  1.9468
   99OSM   H17T 9921   1.795   5.432   8.842 -0.1277  2.4606  1.8877
   99OSM   C18S 9922   1.950   5.418   8.688 -0.3053  0.6161 -0.5424
   99OSM   H18S 9923   1.956   5.307   8.691  1.8984  0.6853 -0.2714
   99OSM   H18T 9924   2.048   5.459   8.654 -0.0255  1.0304  0.6977
   99OSM   H18U 9925   1.877   5.453   8.612 -2.0069 -0.2493  0.6253
   99OSM    C1F 9926   2.358   5.417  10.628 -0.2005  1.1119 -0.0216
   99OSM     OF 9927   2.395   5.332  10.709 -0.8455  0.1787 -0.4997
   99OSM    C2F 9928   2.446   5.529  10.570  0.0834 -0.5405 -0.5779
   99OSM    H2F 9929   2.538   5.486  10.527  0.0283  0.2955 -1.5963
   99OSM    H2G 9930   2.464   5.600  10.654  1.1372 -0.6938 -0.6637
   99OSM    C3F 9931   2.383   5.618  10.461  0.6138 -0.2681 -0.0778
   99OSM    H3F 9932   2.329   5.553  10.389  0.2936  0.4685 -0.5082
   99OSM    H3G 9933   2.305   5.683  10.506  1.4183 -0.2015  1.2650
   99OSM    C4F 9934   2.474   5.721  10.395  0.1636 -0.1525 -0.5455
   99OSM    H4F 9935   2.559   5.662  10.354  0.2404  0.1448 -0.8156
   99OSM    H4G 9936   2.518   5.779  10.479 -0.1293 -0.9304  0.1650
   99OSM    C5F 9937   2.425   5.799  10.279  0.5760  0.3744  0.6136
   99OSM    H5F 9938   2.473   5.896  10.255 -0.0720  0.3181 -0.9962
   99OSM    H5G 9939   2.318   5.825  10.290  0.5548  1.4934 -1.6497
   99OSM    C6F 9940   2.432   5.719  10.144 -0.4871  0.1113  0.5007
   99OSM    H6F 9941   2.355   5.749  10.070  0.5059 -0.7788 -0.9362
   99OSM    H6G 9942   2.415   5.611  10.160  2.1144 -0.9230 -2.5874
   99OSM    C7F 9943   2.565   5.738  10.067 -0.0892  0.0391 -0.6325
   99OSM    H7F 9944   2.653   5.709  10.129 -1.2783  1.2230  1.7429
   99OSM    H7G 9945   2.573   5.845  10.039  0.0661  0.0550 -0.5246
   99OSM    C8F 9946   2.574   5.670   9.930 -0.5728 -1.0289 -0.3720
   99OSM    H8F 9947   2.478   5.698   9.882 -0.0246  1.5275 -0.1135
   99OSM    H8G 9948   2.571   5.559   9.934 -2.7168 -1.1192 -2.6310
   99OSM    C9F 9949   2.698   5.709   9.855 -0.3453 -0.7770 -0.7187
   99OSM    H9F 9950   2.792   5.729   9.908 -2.5932 -0.3285  3.5147
   99OSM   C10F 9951   2.700   5.697   9.728 -0.1603 -0.3966  0.8649
   99OSM   H10F 9952   2.794   5.716   9.674 -1.4222  0.1145 -1.2833
   99OSM   C11F 9953   2.591   5.642   9.645  0.4651 -0.3885 -0.0662
   99OSM   H11F 9954   2.541   5.559   9.699 -1.7804  0.8931 -0.0621
   99OSM   H11G 9955   2.654   5.603   9.562 -0.4386 -0.5768 -0.6766
   99OSM   C12F 9956   2.486   5.738   9.588 -0.0658  0.0979 -0.3338
   99OSM   H12F 9957   2.430   5.763   9.681  1.3370 -0.8752  0.8044
   99OSM   H12G 9958   2.405   5.695   9.525 -0.5758  1.8588 -0.9620
   99OSM   C13F 9959   2.524   5.869   9.515  0.1334  0.7267 -0.1112
   99OSM   H13F 9960   2.584   5.942   9.574  0.5129 -0.5465  1.1432
   99OSM   H13G 9961   2.425   5.921   9.511  0.1683  0.7870 -0.2008
   99OSM   C14F 9962   2.579   5.826   9.375 -0.2884 -0.0340  0.7145
   99OSM   H14F 9963   2.501   5.766   9.324 -0.2225  1.5620 -1.4026
   99OSM   H14G 9964   2.666   5.759   9.390 -0.7238 -0.4452  1.4631
   99OSM   C15F 9965   2.583   5.940   9.266  0.5306 -0.0313 -0.3323
   99OSM   H15F 9966   2.684   5.986   9.270 -0.0276  1.1419  1.0512
   99OSM   H15G 9967   2.511   6.020   9.294  0.5297 -0.0187 -0.3693
   99OSM   C16F 9968   2.551   5.906   9.120 -0.3371 -0.0850 -0.4198
   99OSM   H16F 9969   2.448   5.866   9.107 -0.8794  1.3795 -0.8354
   99OSM   H16G 9970   2.625   5.832   9.082 -0.8915  0.8450 -3.5544
   99OSM   C17F 9971   2.562   6.034   9.045 -0.2499  0.0835 -0.0487
   99OSM   H17F 9972   2.653   6.095   9.067  0.3231 -1.1674  1.2630
   99OSM   H17G 9973   2.474   6.092   9.080 -2.1750 -2.7405  0.1323
   99OSM   C18F 9974   2.547   6.007   8.893  0.3909 -0.2064  0.0573
   99OSM   H18F 9975   2.555   6.111   8.854  2.3805 -0.8113 -1.2570
   99OSM   H18G 9976   2.451   5.953   8.878 -0.1655  0.6710  0.3453
   99OSM   H18H 9977   2.637   5.959   8.849  0.7461 -0.3910  0.9684
  100OSM      N 9978   4.467   5.296  10.733 -0.1870  0.5810  0.1419
  100OSM    C15 9979   4.427   5.395  10.828  0.5779  0.9845  0.3120
  100OSM   H15A 9980   4.498   5.403  10.909 -0.8018  1.3342  1.5382
  100OSM   H15B 9981   4.332   5.361  10.867  0.5205 -0.7017 -1.1723
  100OSM   H15C 9982   4.399   5.489  10.781  0.1671 -0.0470 -1.6023
  100OSM    C14 9983   4.590   5.348  10.660 -0.7488  0.0475  0.2285
  100OSM   H14A 9984   4.663   5.387  10.729  1.2397  1.2627 -2.3870
  100OSM   H14B 9985   4.569   5.437  10.603 -2.3200 -1.5733 -1.8428
  100OSM   H14C 9986   4.634   5.280  10.589 -1.3556  1.3299 -1.4351
  100OSM    C13 9987   4.507   5.168  10.801 -0.3561 -0.1088  0.7324
  100OSM   H13A 9988   4.592   5.181  10.867 -1.5467 -0.4736  2.3911
  100OSM   H13B 9989   4.529   5.090  10.729  2.3572  0.9630  0.2918
  100OSM   H13C 9990   4.420   5.135  10.856 -0.6970  1.9632  1.5395
  100OSM    C12 9991   4.351   5.271  10.632  0.2550 -0.0213  0.1542
  100OSM   H12A 9992   4.379   5.199  10.557 -1.4685 -0.0638 -0.4878
  100OSM   H12B 9993   4.327   5.362  10.579 -0.8130 -0.2812  0.1729
  100OSM    C11 9994   4.213   5.216  10.683 -1.0821  1.2226 -0.6924
  100OSM   H11A 9995   4.232   5.119  10.734 -1.7289  0.1698 -2.3950
  100OSM   H11B 9996   4.146   5.190  10.599 -0.8957 -1.1816 -0.1620
  100OSM      P 9997   4.056   5.414  10.712 -0.3951 -0.1409  0.0464
  100OSM    O13 9998   3.966   5.450  10.824  0.4953  0.1292 -0.4339
  100OSM    O14 9999   4.148   5.520  10.657 -0.4266 -0.2282 -0.0747
  100OSM    O1110000   3.977   5.344  10.597  0.3663 -0.3505  0.6258
  100OSM    O1210001   4.151   5.307  10.770  0.2626  0.2001 -0.0941
  100OSM    C1S10002   3.970   5.405  10.467 -0.3444  0.0793 -0.1286
  100OSM    H1S10003   4.076   5.409  10.434  0.0373 -1.4809  0.8369
  100OSM    H1T10004   3.929   5.508  10.474  1.7874  0.9724  0.2646
  100OSM     NF10005   3.874   5.397  10.226 -0.1358 -0.5319 -0.3155
  100OSM    HNF10006   3.789   5.445  10.207  1.0974  1.0606 -2.1168
  100OSM    C2S10007   3.890   5.331  10.354  0.5216  0.6719 -0.1475
  100OSM    H2S10008   3.954   5.241  10.340  0.0115  0.3109 -0.2249
  100OSM    C3S10009   3.755   5.280  10.415 -0.1336 -1.4622  0.2732
  100OSM    H3S10010   3.695   5.363  10.458 -0.4329 -1.0811 -0.8649
  100OSM     O310011   3.769   5.194  10.530 -0.1846 -0.2837 -0.1372
  100OSM    HO310012   3.858   5.214  10.560  0.0393  0.1385 -1.0382
  100OSM    C4S10013   3.675   5.219  10.305  0.5021  0.3211 -0.0633
  100OSM    H4S10014   3.598   5.280  10.256 -0.3389  0.8234  1.8081
  100OSM    C5S10015   3.688   5.087  10.263  0.2400 -0.4290 -0.8057
  100OSM    H5S10016   3.782   5.041  10.297  1.2016  1.9554  0.0546
  100OSM    C6S10017   3.618   5.020  10.153 -0.1388  0.8289  0.5943
  100OSM    H6S10018   3.550   4.937  10.180  0.6085 -0.8681 -2.3727
  100OSM    H6T10019   3.691   4.958  10.097  0.7387  0.6947  1.8302
  100OSM    C7S10020   3.540   5.115  10.053  0.4801  0.4424 -0.1666
  100OSM    H7S10021   3.613   5.196  10.029  1.5480 -0.3152  0.4251
  100OSM    H7T10022   3.453   5.155  10.110  0.1921 -1.4493  0.8134
  100OSM    C8S10023   3.500   5.039   9.927  0.0573  0.6371  0.2587
  100OSM    H8S10024   3.435   4.949   9.937 -0.4385  1.0023  0.3557
  100OSM    H8T10025   3.591   5.002   9.874 -1.0416 -1.7060 -0.1210
  100OSM    C9S10026   3.426   5.137   9.832 -0.4021 -0.3907 -0.6702
  100OSM    H9S10027   3.484   5.232   9.829  0.4908 -0.9354 -1.2072
  100OSM    H9T10028   3.331   5.174   9.876  0.7513  1.5504  0.3584
  100OSM   C10S10029   3.403   5.088   9.692 -0.0782  0.2297  0.2968
  100OSM   H10S10030   3.341   4.996   9.694 -1.9173  1.4264  0.5056
  100OSM   H10T10031   3.487   5.045   9.633 -1.0170 -1.6659  0.2753
  100OSM   C11S10032   3.334   5.196   9.606 -0.3547 -0.0613 -0.2175
  100OSM   H11S10033   3.411   5.276   9.600  0.1447 -0.5290 -0.1355
  100OSM   H11T10034   3.240   5.245   9.639 -0.8691 -0.0379 -1.6611
  100OSM   C12S10035   3.315   5.142   9.463  0.2389 -0.7105  0.0241
  100OSM   H12S10036   3.235   5.064   9.458 -2.5449  1.9630 -0.0431
  100OSM   H12T10037   3.408   5.087   9.437  0.1077 -0.1278 -1.8545
  100OSM   C13S10038   3.284   5.249   9.357 -0.1522  0.2054 -0.0765
  100OSM   H13S10039   3.363   5.326   9.345 -0.0529 -0.0234 -0.9539
  100OSM   H13T10040   3.184   5.292   9.377 -1.7163 -2.3430 -1.8112
  100OSM   C14S10041   3.295   5.172   9.223 -0.6322 -0.0040 -0.1294
  100OSM   H14S10042   3.238   5.077   9.227  0.0146 -0.4293 -0.6464
  100OSM   H14T10043   3.401   5.142   9.205 -0.3230  0.7271  0.4527
  100OSM   C15S10044   3.246   5.266   9.110  0.4152 -0.1961 -0.4078
  100OSM   H15S10045   3.306   5.358   9.094 -0.1420 -0.3014 -3.9933
  100OSM   H15T10046   3.145   5.298   9.141 -0.3341 -2.0378 -0.8391
  100OSM   C16S10047   3.242   5.195   8.972  0.6674 -0.7488  0.2226
  100OSM   H16S10048   3.152   5.129   8.974  1.1385 -1.4045 -0.0092
  100OSM   H16T10049   3.330   5.131   8.951  1.2602  0.6276 -1.8509
  100OSM   C17S10050   3.246   5.292   8.857 -0.2934  0.3844  0.5737
  100OSM   H17S10051   3.347   5.338   8.861  0.5078 -1.0170 -1.3873
  100OSM   H17T10052   3.166   5.368   8.861  0.7852  1.5953 -0.0573
  100OSM   C18S10053   3.227   5.215   8.717 -0.1265  0.0052  0.0694
  100OSM   H18S10054   3.124   5.180   8.693 -0.5649  1.8212 -0.9046
  100OSM   H18T10055   3.294   5.126   8.720 -1.5815 -1.1051  1.5018
  100OSM   H18U10056   3.266   5.280   8.636 -0.0116 -0.0673  0.0665
  100OSM    C1F10057   3.977   5.431  10.146 -0.0962 -0.2473  0.5685
  100OSM     OF10058   4.087   5.386  10.176  0.2640  0.6567  0.4962
  100OSM    C2F10059   3.954   5.526  10.032 -0.0601  0.2575  0.2017
  100OSM    H2F10060   4.052   5.571  10.001  0.3686  0.1295  1.3207
  100OSM    H2G10061   3.889   5.608  10.071 -0.7559  0.3250 -1.0532
  100OSM    C3F10062   3.885   5.464   9.911  0.2215 -0.4238 -0.4391
  100OSM    H3F10063   3.864   5.546   9.838  1.4226  1.8886  1.6939
  100OSM    H3G10064   3.784   5.423   9.935 -0.5833  1.4331 -0.4489
  100OSM    C4F10065   3.971   5.368   9.832  0.0728 -0.1166 -0.7518
  100OSM    H4F10066   4.050   5.340   9.905 -1.1745  0.4733  0.8880
  100OSM    H4G10067   4.021   5.419   9.747 -1.4669  0.7981 -1.1463
  100OSM    C5F10068   3.904   5.244   9.775  0.0123 -0.1672  0.3507
  100OSM    H5F10069   3.849   5.177   9.843 -1.2445  1.2029  0.7358
  100OSM    H5G10070   3.984   5.190   9.719  0.6883  0.9908  0.1559
  100OSM    C6F10071   3.799   5.269   9.659 -0.0354  0.5663 -0.4462
  100OSM    H6F10072   3.706   5.311   9.702  0.0508 -0.9598  1.4070
  100OSM    H6G10073   3.755   5.174   9.622 -5.2810  2.5110 -0.0291
  100OSM    C7F10074   3.848   5.355   9.542 -0.0718  0.9338 -0.0046
  100OSM    H7F10075   3.938   5.304   9.500 -1.0718 -0.3101 -0.7072
  100OSM    H7G10076   3.872   5.459   9.574  1.4655  0.4519  0.4797
  100OSM    C8F10077   3.735   5.380   9.434 -0.3063 -0.1905 -0.4561
  100OSM    H8F10078   3.649   5.436   9.475 -0.0633 -0.9455  1.1826
  100OSM    H8G10079   3.700   5.280   9.400  1.0532 -1.1049  0.6887
  100OSM    C9F10080   3.805   5.442   9.315 -0.2217  0.4636  0.4712
  100OSM    H9F10081   3.904   5.486   9.332  0.6123 -1.7809  1.9066
  100OSM   C10F10082   3.766   5.426   9.186 -0.4914 -0.0442 -0.3020
  100OSM   H10F10083   3.828   5.465   9.103  1.8446 -4.7033 -1.0935
  100OSM   C11F10084   3.643   5.351   9.130  0.2185  0.0428  0.2872
  100OSM   H11F10085   3.591   5.438   9.085  1.7033  0.7497 -0.1388
  100OSM   H11G10086   3.577   5.299   9.202  0.3915  2.1070  2.0141
  100OSM   C12F10087   3.670   5.251   9.009 -0.5002 -0.3407 -0.0300
  100OSM   H12F10088   3.576   5.233   8.952  0.5236  1.8982 -2.6783
  100OSM   H12G10089   3.723   5.157   9.034  1.4427  0.4854 -0.9029
  100OSM   C13F10090   3.762   5.310   8.893 -0.3605  0.0055 -0.3714
  100OSM   H13F10091   3.792   5.225   8.829  2.3966 -0.8530  1.8915
  100OSM   H13G10092   3.855   5.340   8.945 -0.8711 -2.1648  2.0055
  100OSM   C14F10093   3.705   5.423   8.808  0.2909  0.4159 -0.4848
  100OSM   H14F10094   3.649   5.496   8.871  3.2026  0.5027  2.2512
  100OSM   H14G10095   3.645   5.392   8.720  1.5209  1.2718 -1.6684
  100OSM   C15F10096   3.824   5.494   8.748 -0.0724  0.7485  0.6255
  100OSM   H15F10097   3.898   5.415   8.725 -1.9151 -0.3247 -1.9704
  100OSM   H15G10098   3.868   5.555   8.831  1.7096 -2.9798  2.6653
  100OSM   C16F10099   3.784   5.584   8.626 -0.4465 -1.2285  0.6780
  100OSM   H16F10100   3.725   5.662   8.677 -0.2914 -0.8895  0.3408
  100OSM   H16G10101   3.736   5.520   8.549  1.3830  0.7197 -2.2577
  100OSM   C17F10102   3.899   5.655   8.565 -0.2826  0.5307  0.2882
  100OSM   H17F10103   3.968   5.578   8.524  0.5679  0.9849  0.8419
  100OSM   H17G10104   3.952   5.718   8.640 -0.0542 -0.3953  0.9184
  100OSM   C18F10105   3.862   5.741   8.441 -0.8607 -0.0478 -0.2010
  100OSM   H18F10106   3.947   5.754   8.371 -0.3775 -2.7263 -0.2283
  100OSM   H18G10107   3.821   5.837   8.479 -0.3379  0.5184 -1.0363
  100OSM   H18H10108   3.785   5.694   8.375 -0.9480  1.2571 -1.0594
  101OSM      N10109   0.015   6.361  11.026  0.0734  0.7559  0.5324
  101OSM    C1510110   0.039   6.324  11.175  0.2168 -0.3153  0.1786
  101OSM   H15A10111   0.023   6.219  11.191  2.4463 -0.9942 -1.4513
  101OSM   H15B10112  -0.016   6.377  11.251 -0.0527  0.1246 -0.3189
  101OSM   H15C10113   0.144   6.335  11.198 -0.1456  1.4341  1.1706
  101OSM    C1410114  -0.132   6.342  10.998 -0.4540  0.2244  0.2245
  101OSM   H14A10115  -0.186   6.430  11.031 -0.8098 -0.1478  0.6457
  101OSM   H14B10116  -0.162   6.248  11.042  0.0685  0.7132  1.6844
  101OSM   H14C10117  -0.149   6.334  10.891 -0.4715 -1.3518  0.3190
  101OSM    C1310118   0.048   6.505  11.024 -0.1132  0.0779  0.4577
  101OSM   H13A10119  -0.024   6.555  11.087 -1.0602 -1.7926  0.9203
  101OSM   H13B10120   0.048   6.551  10.926  0.0967  0.6616  0.7272
  101OSM   H13C10121   0.150   6.511  11.060  0.4994 -2.1823 -0.7014
  101OSM    C1210122   0.089   6.276  10.928  0.6509 -0.3306 -0.3311
  101OSM   H12A10123   0.050   6.177  10.943 -3.1671  0.6810 -2.4355
  101OSM   H12B10124   0.196   6.269  10.946  0.5745 -0.3105  0.1266
  101OSM    C1110125   0.079   6.304  10.778  0.5543 -0.0740 -0.1773
  101OSM   H11A10126  -0.020   6.271  10.739  0.8570 -2.5951  0.9940
  101OSM   H11B10127   0.147   6.244  10.714  0.6712  0.4359 -0.5427
  101OSM      P10128   0.241   6.503  10.723 -0.0579 -0.0675 -0.1750
  101OSM    O1310129   0.247   6.647  10.757 -0.0746 -0.3681  0.0482
  101OSM    O1410130   0.338   6.417  10.795  0.1080  0.1430  0.2106
  101OSM    O1110131   0.276   6.486  10.574  0.0337  0.7902 -0.6156
  101OSM    O1210132   0.093   6.444  10.744 -0.2609  0.1603 -0.3050
  101OSM    C1S10133   0.249   6.371  10.502 -0.4135 -0.8528 -0.6908
  101OSM    H1S10134   0.140   6.351  10.506 -0.5788  0.1405  0.8860
  101OSM    H1T10135   0.298   6.282  10.548 -1.1918  0.2130  2.4970
  101OSM     NF10136   0.250   6.277  10.272 -1.1942 -0.1846  0.6286
  101OSM    HNF10137   0.319   6.212  10.240 -0.2282  0.4596  1.3529
  101OSM    C2S10138   0.294   6.382  10.352 -0.7972 -0.4935  0.3971
  101OSM    H2S10139   0.245   6.474  10.316 -2.2811 -1.4978 -0.2682
  101OSM    C3S10140   0.448   6.398  10.350 -0.5736 -0.9324 -0.4814
  101OSM    H3S10141   0.494   6.307  10.395  2.3307  0.1916 -0.9444
  101OSM     O310142   0.494   6.508  10.417 -0.0932 -0.2881 -0.2519
  101OSM    HO310143   0.422   6.528  10.478  0.7918 -0.1274  0.7720
  101OSM    C4S10144   0.497   6.422  10.211 -0.2170 -0.1869 -0.2722
  101OSM    H4S10145   0.478   6.518  10.160  0.8879  0.2509  0.1281
  101OSM    C5S10146   0.562   6.329  10.141  0.0879 -0.1716  0.7874
  101OSM    H5S10147   0.584   6.227  10.176  1.0920 -0.4900 -0.6704
  101OSM    C6S10148   0.598   6.354   9.999 -0.2768 -0.4540  0.1526
  101OSM    H6S10149   0.708   6.362   9.990 -0.3362 -0.5682 -0.8069
  101OSM    H6T10150   0.560   6.451   9.962  0.2579  0.1510  1.1413
  101OSM    C7S10151   0.550   6.244   9.907  0.5228 -0.3297  0.7237
  101OSM    H7S10152   0.440   6.240   9.888  0.6949 -0.3229 -0.2896
  101OSM    H7T10153   0.574   6.150   9.960 -2.3972 -0.3830  2.2311
  101OSM    C8S10154   0.614   6.251   9.767  0.3812  0.5873 -0.2041
  101OSM    H8S10155   0.722   6.226   9.771  0.0674 -0.6116  2.3875
  101OSM    H8T10156   0.619   6.359   9.738  3.0963  0.2935 -1.1596
  101OSM    C9S10157   0.542   6.157   9.659 -0.3607 -0.1233  0.1914
  101OSM    H9S10158   0.441   6.196   9.635 -0.3270  0.8137  1.4353
  101OSM    H9T10159   0.536   6.057   9.707  1.4441 -1.1557 -1.5836
  101OSM   C10S10160   0.627   6.143   9.534  0.2867  0.4711 -0.2779
  101OSM   H10S10161   0.723   6.097   9.567 -0.6004 -0.4098  1.1550
  101OSM   H10T10162   0.666   6.243   9.505  2.1858 -0.3154 -0.6204
  101OSM   C11S10163   0.570   6.058   9.425  0.2869  0.2608 -0.8652
  101OSM   H11S10164   0.483   6.111   9.381  0.1857  0.0383 -0.9346
  101OSM   H11T10165   0.544   5.956   9.459  2.9425 -0.7308 -1.5893
  101OSM   C12S10166   0.675   6.015   9.321  0.0948  0.2279 -0.2775
  101OSM   H12S10167   0.737   5.934   9.364  1.3868  1.5041  0.3350
  101OSM   H12T10168   0.732   6.109   9.306 -0.3552  0.3982 -1.0194
  101OSM   C13S10169   0.608   5.975   9.190  0.6227 -0.2328  0.8210
  101OSM   H13S10170   0.569   6.064   9.134 -0.3966  1.0335  3.3871
  101OSM   H13T10171   0.515   5.914   9.198 -0.6116  1.5178  0.6287
  101OSM   C14S10172   0.703   5.912   9.097 -0.3224 -0.0804 -0.0809
  101OSM   H14S10173   0.735   5.813   9.136  0.0697 -0.0452 -0.3093
  101OSM   H14T10174   0.799   5.967   9.101 -1.1036  1.3516 -0.3974
  101OSM   C15S10175   0.666   5.872   8.956 -0.0843 -0.5825 -0.2066
  101OSM   H15S10176   0.640   5.961   8.895 -0.7367 -0.5403  0.1201
  101OSM   H15T10177   0.574   5.809   8.948 -0.9380  0.3752  1.5415
  101OSM   C16S10178   0.776   5.792   8.878  0.6290 -0.8871  0.4976
  101OSM   H16S10179   0.810   5.697   8.925 -0.6840 -1.9184 -0.5175
  101OSM   H16T10180   0.873   5.845   8.872  0.8745 -1.3606  0.2474
  101OSM   C17S10181   0.729   5.761   8.732  0.1385  0.2697 -0.8860
  101OSM   H17S10182   0.707   5.853   8.674 -2.1493  0.4398  0.1218
  101OSM   H17T10183   0.634   5.704   8.746 -0.8284  2.1033  0.5511
  101OSM   C18S10184   0.814   5.662   8.661  0.3333 -0.4976 -0.7177
  101OSM   H18S10185   0.810   5.567   8.719 -1.2091 -0.6969 -1.1017
  101OSM   H18T10186   0.917   5.702   8.650 -0.1277  0.3729 -2.0640
  101OSM   H18U10187   0.777   5.647   8.557 -1.4721  0.7572 -0.2963
  101OSM    C1F10188   0.125   6.250  10.245 -1.1990  0.2116  0.3409
  101OSM     OF10189   0.037   6.317  10.295 -0.5566  0.7814  0.3592
  101OSM    C2F10190   0.109   6.137  10.141 -0.0605  0.8897 -0.1189
  101OSM    H2F10191   0.017   6.077  10.157 -0.1466  0.9760 -0.2932
  101OSM    H2G10192   0.198   6.069  10.145 -0.5189  0.3212  1.9057
  101OSM    C3F10193   0.089   6.195  10.001 -0.1932  0.2179  0.5538
  101OSM    H3F10194   0.174   6.256   9.964  0.2736 -0.3661  0.6588
  101OSM    H3G10195   0.002   6.265   9.999 -1.3800 -1.2323 -0.0686
  101OSM    C4F10196   0.075   6.070   9.900 -0.6259 -0.2109 -0.9976
  101OSM    H4F10197  -0.012   6.004   9.923 -0.4595 -0.1395 -0.1129
  101OSM    H4G10198   0.168   6.011   9.915 -0.0345  0.9921  0.2744
  101OSM    C5F10199   0.083   6.123   9.760  0.4123  0.4767  0.5767
  101OSM    H5F10200   0.109   6.230   9.771  1.3989  0.2821  0.2151
  101OSM    H5G10201  -0.021   6.134   9.720  1.4776  0.6032 -2.3871
  101OSM    C6F10202   0.172   6.064   9.656  0.4937  0.2514 -0.6263
  101OSM    H6F10203   0.281   6.071   9.678  1.0973 -4.2317 -1.2539
  101OSM    H6G10204   0.148   5.956   9.650  2.8641 -0.6504  3.0373
  101OSM    C7F10205   0.159   6.144   9.529  0.0427  0.5003  0.6130
  101OSM    H7F10206   0.237   6.104   9.460 -0.3720  2.0418 -0.8086
  101OSM    H7G10207   0.181   6.251   9.547 -1.3961  1.1083 -0.9923
  101OSM    C8F10208   0.028   6.114   9.455  0.2905 -0.0235 -0.6351
  101OSM    H8F10209  -0.056   6.116   9.528 -0.5736  2.1327 -1.6177
  101OSM    H8G10210   0.040   6.013   9.411  0.7120 -0.1049 -0.3413
  101OSM    C9F10211   0.007   6.227   9.363  0.2461 -0.9518 -0.8240
  101OSM    H9F10212  -0.004   6.327   9.407  1.2229 -1.0909 -0.2316
  101OSM   C10F10213   0.020   6.223   9.231  0.0738  0.4569 -0.9559
  101OSM   H10F10214   0.012   6.309   9.163  0.6320 -1.7081 -3.9804
  101OSM   C11F10215   0.038   6.096   9.155  0.3370 -0.1572 -0.0661
  101OSM   H11F10216  -0.025   6.100   9.063  0.3769 -1.6797 -0.2016
  101OSM   H11G10217  -0.009   6.010   9.207 -1.6468  1.4518  0.8815
  101OSM   C12F10218   0.190   6.077   9.116  0.3938  0.0325 -0.4849
  101OSM   H12F10219   0.256   6.071   9.206  2.3422  2.1215 -1.6727
  101OSM   H12G10220   0.216   6.161   9.048 -2.7867  0.8061 -0.9083
  101OSM   C13F10221   0.199   5.952   9.027  0.5029 -0.4792 -0.4200
  101OSM   H13F10222   0.127   5.875   9.063 -0.2373  0.1288 -0.5584
  101OSM   H13G10223   0.299   5.909   9.046 -0.0589 -1.8932 -0.5521
  101OSM   C14F10224   0.164   5.968   8.873 -0.2337 -0.4679  0.7814
  101OSM   H14F10225   0.187   6.071   8.839  0.1861 -1.4529 -2.2355
  101OSM   H14G10226   0.054   5.956   8.869 -0.5243  1.9599 -0.7742
  101OSM   C15F10227   0.236   5.869   8.783  0.2557  0.3221 -0.3461
  101OSM   H15F10228   0.208   5.765   8.808 -0.3309  0.6254  0.2676
  101OSM   H15G10229   0.346   5.875   8.794  0.1822  0.7308  0.1913
  101OSM   C16F10230   0.191   5.861   8.633 -0.8212 -0.4944  0.3470
  101OSM   H16F10231   0.225   5.953   8.581  0.7545 -0.1043  1.9661
  101OSM   H16G10232   0.080   5.864   8.632 -0.8229  1.3112 -2.0651
  101OSM   C17F10233   0.240   5.733   8.570 -0.4452  0.1825  0.3229
  101OSM   H17F10234   0.217   5.726   8.461  0.8750  2.7323 -0.1871
  101OSM   H17G10235   0.196   5.645   8.622  1.0722 -1.3988 -0.9034
  101OSM   C18F10236   0.388   5.710   8.573 -0.1280 -0.1158  0.5667
  101OSM   H18F10237   0.427   5.698   8.676 -0.0540 -2.2137  0.3420
  101OSM   H18G10238   0.441   5.791   8.518 -1.7535  1.1525  0.8170
  101OSM   H18H10239   0.400   5.609   8.528  0.4358  1.5465 -3.4602
  102OSM      N10240   2.233   0.513  10.503 -0.1514  0.2350 -0.3276
  102OSM    C1510241   2.160   0.397  10.445 -0.3530 -0.0618 -0.4524
  102OSM   H15A10242   2.200   0.302  10.478  2.2448  0.8922 -0.5747
  102OSM   H15B10243   2.185   0.397  10.340 -2.2386  0.9423 -0.9392
  102OSM   H15C10244   2.055   0.402  10.466 -0.3158  1.4581 -0.5023
  102OSM    C1410245   2.154   0.627  10.445 -0.2452 -0.2212 -0.5758
  102OSM   H14A10246   2.181   0.715  10.501 -0.0852 -0.8422  0.3437
  102OSM   H14B10247   2.048   0.613  10.456 -0.4879 -0.5385 -2.8166
  102OSM   H14C10248   2.186   0.642  10.342  2.7368 -1.6170  0.0203
  102OSM    C1310249   2.219   0.515  10.655 -0.7512  0.2381  0.1227
  102OSM   H13A10250   2.270   0.604  10.689  1.5895 -0.5417 -1.0819
  102OSM   H13B10251   2.264   0.429  10.701 -3.0877 -1.0044  0.2024
  102OSM   H13C10252   2.116   0.532  10.682 -0.6623  2.7211 -0.7871
  102OSM    C1210253   2.373   0.498  10.458  1.2492 -0.7634  0.4000
  102OSM   H12A10254   2.429   0.590  10.469  0.0322  0.1601 -0.8903
  102OSM   H12B10255   2.375   0.480  10.352 -0.9391 -1.7441  0.4852
  102OSM    C1110256   2.456   0.393  10.528 -0.0080  0.5010 -0.1236
  102OSM   H11A10257   2.539   0.338  10.480 -0.1898  0.3087 -0.2192
  102OSM   H11B10258   2.378   0.317  10.551 -2.2034  2.0957 -1.8349
  102OSM      P10259   2.607   0.547  10.687 -0.6804  0.2422  0.5777
  102OSM    O1310260   2.551   0.646  10.779 -0.4284 -0.1228 -0.0072
  102OSM    O1410261   2.731   0.483  10.735  0.2859  0.2336  0.1681
  102OSM    O1110262   2.642   0.609  10.539  0.3448  0.1542 -0.0550
  102OSM    O1210263   2.500   0.435  10.657  0.1939  0.1196 -0.5119
  102OSM    C1S10264   2.746   0.562  10.457 -0.0932  1.0983  0.3211
  102OSM    H1S10265   2.740   0.451  10.447  3.2550  0.6191  1.9958
  102OSM    H1T10266   2.848   0.587  10.494  0.8645 -0.5437 -1.0290
  102OSM     NF10267   2.829   0.550  10.228  0.2792 -0.7455  0.0744
  102OSM    HNF10268   2.920   0.589  10.225  0.3496 -0.8837  0.3891
  102OSM    C2S10269   2.733   0.621  10.310 -0.1378  0.4105 -0.0249
  102OSM    H2S10270   2.628   0.607  10.276 -0.3301  0.0208  0.6818
  102OSM    C3S10271   2.757   0.774  10.323 -0.2611 -0.0119 -0.4639
  102OSM    H3S10272   2.863   0.780  10.356  0.3040 -1.2944 -1.9114
  102OSM     O310273   2.698   0.845  10.429 -0.2047 -0.7747 -0.3157
  102OSM    HO310274   2.665   0.773  10.484 -0.5140  0.1361  0.7158
  102OSM    C4S10275   2.750   0.832  10.184  0.7302  0.0717 -0.1379
  102OSM    H4S10276   2.840   0.830  10.122 -0.3692 -1.4745 -1.7747
  102OSM    C5S10277   2.635   0.883  10.127 -0.2927  0.2994 -0.5120
  102OSM    H5S10278   2.542   0.900  10.183 -0.4561  0.9012 -0.9509
  102OSM    C6S10279   2.633   0.940   9.992 -0.2154  0.0685  0.6698
  102OSM    H6S10280   2.662   1.047   9.989  2.1868 -0.5237 -1.4533
  102OSM    H6T10281   2.527   0.944   9.961 -0.0087  0.5826  0.0198
  102OSM    C7S10282   2.726   0.875   9.881  0.3601  0.5013  0.3755
  102OSM    H7S10283   2.693   0.769   9.871  0.9388  0.2920  0.6160
  102OSM    H7T10284   2.832   0.898   9.905  0.7372 -1.0412  0.2862
  102OSM    C8S10285   2.693   0.932   9.746  0.0402 -0.7042  0.7287
  102OSM    H8S10286   2.691   1.043   9.753 -0.9693 -0.7448  1.3092
  102OSM    H8T10287   2.586   0.912   9.721 -0.7179  1.5990  1.7559
  102OSM    C9S10288   2.786   0.885   9.638 -0.0765  0.6019 -0.5755
  102OSM    H9S10289   2.823   0.782   9.656  0.2865  0.9228  0.6788
  102OSM    H9T10290   2.881   0.943   9.638  1.4581 -1.7305  1.2780
  102OSM   C10S10291   2.727   0.909   9.496 -0.8297  0.4284 -0.8791
  102OSM   H10S10292   2.753   1.017   9.488  3.1226 -0.3466 -0.5867
  102OSM   H10T10293   2.623   0.871   9.489 -1.3098  1.2192  1.1472
  102OSM   C11S10294   2.812   0.842   9.388  0.5804  1.6371  0.1089
  102OSM   H11S10295   2.802   0.732   9.394 -0.0169  1.6397 -0.7125
  102OSM   H11T10296   2.922   0.860   9.398  0.3248  2.2536  2.3727
  102OSM   C12S10297   2.769   0.889   9.249 -0.9427 -0.5595  0.3283
  102OSM   H12S10298   2.810   0.991   9.229  1.9686 -1.8221 -0.6930
  102OSM   H12T10299   2.662   0.914   9.261 -0.5635  1.1054  0.5177
  102OSM   C13S10300   2.792   0.789   9.137  0.1618  1.2439  0.5219
  102OSM   H13S10301   2.741   0.693   9.159  1.0514  0.8435  0.8911
  102OSM   H13T10302   2.902   0.770   9.139  0.4960  3.0614  1.3985
  102OSM   C14S10303   2.747   0.851   8.999 -0.4681  0.0711  0.1842
  102OSM   H14S10304   2.813   0.940   8.995  1.5891 -1.3461  0.7691
  102OSM   H14T10305   2.643   0.889   9.003 -0.0727  1.4012 -1.3148
  102OSM   C15S10306   2.783   0.760   8.890  0.3785  0.0608  0.2770
  102OSM   H15S10307   2.743   0.658   8.908 -0.6380  0.3330 -0.3452
  102OSM   H15T10308   2.893   0.748   8.888  0.7139  2.5154  0.6600
  102OSM   C16S10309   2.733   0.804   8.749  0.7396  0.2941 -0.4671
  102OSM   H16S10310   2.787   0.765   8.660 -1.4061 -1.7192 -1.0004
  102OSM   H16T10311   2.722   0.914   8.745  1.8013  0.4007 -3.6647
  102OSM   C17S10312   2.587   0.755   8.719 -0.8818 -0.2018 -0.2092
  102OSM   H17S10313   2.563   0.798   8.620 -1.9867 -0.8641 -0.2454
  102OSM   H17T10314   2.519   0.801   8.793  0.5453  0.8294  0.5214
  102OSM   C18S10315   2.560   0.605   8.731  0.0084  0.0608  0.9717
  102OSM   H18S10316   2.460   0.584   8.689  0.6728 -2.9080  0.6436
  102OSM   H18T10317   2.554   0.581   8.839 -1.6187  0.8264  1.0783
  102OSM   H18U10318   2.641   0.550   8.677  0.0897  1.5865 -0.5348
  102OSM    C1F10319   2.799   0.444  10.148  0.2963 -0.4693 -0.2714
  102OSM     OF10320   2.678   0.410  10.148 -0.0316 -0.5561  0.1463
  102OSM    C2F10321   2.901   0.359  10.080  0.0165  0.5393 -0.2872
  102OSM    H2F10322   2.850   0.295  10.006 -1.1804  0.6288  0.4258
  102OSM    H2G10323   2.931   0.286  10.158 -1.5893 -1.0933 -1.1314
  102OSM    C3F10324   3.033   0.438  10.041 -0.2326 -0.2226  0.4196
  102OSM    H3F10325   3.107   0.383   9.979  0.4750  2.8171 -1.6964
  102OSM    H3G10326   3.091   0.464  10.132  2.4800 -1.8435 -0.7230
  102OSM    C4F10327   3.014   0.565   9.962  0.2983 -0.1076 -0.5621
  102OSM    H4F10328   3.112   0.608   9.930 -0.4767 -0.3747 -3.6466
  102OSM    H4G10329   2.955   0.647  10.008  1.8500  1.5080 -1.3019
  102OSM    C5F10330   2.928   0.541   9.830  0.1743 -0.1324  0.1005
  102OSM    H5F10331   2.939   0.636   9.773 -1.0232  1.3300  2.1892
  102OSM    H5G10332   2.819   0.529   9.851  0.1429 -0.3416 -0.1772
  102OSM    C6F10333   2.977   0.428   9.744 -0.3076 -0.5330  0.6696
  102OSM    H6F10334   2.967   0.323   9.777  0.4714 -1.2520 -1.2257
  102OSM    H6G10335   3.082   0.454   9.719 -0.8753  0.3010 -0.9621
  102OSM    C7F10336   2.911   0.440   9.606  0.8197 -0.1921 -0.1119
  102OSM    H7F10337   2.919   0.546   9.574  0.3365 -0.5240 -1.3654
  102OSM    H7G10338   2.806   0.409   9.626  1.1235 -0.4839  1.1240
  102OSM    C8F10339   2.975   0.359   9.500 -0.1074 -0.2995  0.1220
  102OSM    H8F10340   2.907   0.346   9.413  1.0966 -1.2443 -0.7060
  102OSM    H8G10341   2.993   0.257   9.540  2.9570  0.6927  1.5886
  102OSM    C9F10342   3.109   0.411   9.461  0.1029  1.0399  0.0534
  102OSM    H9F10343   3.190   0.370   9.523  1.0554 -0.6354 -2.1576
  102OSM   C10F10344   3.138   0.478   9.349  0.2385 -0.4784 -0.2225
  102OSM   H10F10345   3.242   0.507   9.329  0.1222  1.1517  1.2922
  102OSM   C11F10346   3.039   0.523   9.246  0.3309 -0.3332 -0.0635
  102OSM   H11F10347   3.024   0.632   9.229 -0.3964 -0.3849  0.2230
  102OSM   H11G10348   2.938   0.482   9.269  0.2434 -0.7789 -1.2022
  102OSM   C12F10349   3.065   0.472   9.101  0.0131  0.0746  0.3707
  102OSM   H12F10350   3.168   0.505   9.075  0.7436 -1.7338  0.8289
  102OSM   H12G10351   2.985   0.522   9.043 -0.6528  0.0974  1.2877
  102OSM   C13F10352   3.061   0.318   9.093 -0.4196 -0.3055 -0.1295
  102OSM   H13F10353   2.965   0.281   9.135 -0.3625  0.1179  0.3750
  102OSM   H13G10354   3.147   0.288   9.156  0.0888  1.0077 -0.1706
  102OSM   C14F10355   3.095   0.276   8.952  0.8982 -0.7225  0.3364
  102OSM   H14F10356   3.020   0.328   8.887 -0.7457 -1.6955  1.3916
  102OSM   H14G10357   3.061   0.170   8.950  0.3480 -0.5471 -0.8594
  102OSM   C15F10358   3.235   0.281   8.901  0.2893 -0.1246 -0.1624
  102OSM   H15F10359   3.302   0.206   8.948  2.6635  0.7002 -1.9926
  102OSM   H15G10360   3.273   0.385   8.910 -0.5930  0.3277 -1.3863
  102OSM   C16F10361   3.226   0.246   8.748 -0.5456  0.5113 -0.4427
  102OSM   H16F10362   3.150   0.317   8.709 -0.3966  1.2092  0.4917
  102OSM   H16G10363   3.185   0.143   8.742  0.6734  0.0341 -0.8977
  102OSM   C17F10364   3.361   0.246   8.671  0.2567 -0.6893 -0.3652
  102OSM   H17F10365   3.395   0.350   8.648  0.8501 -0.2321  2.2582
  102OSM   H17G10366   3.334   0.196   8.575  0.9354 -1.0569 -0.3682
  102OSM   C18F10367   3.489   0.185   8.737  0.5191 -0.9965 -0.2825
  102OSM   H18F10368   3.567   0.178   8.658  0.5037 -1.6093 -0.2481
  102OSM   H18G10369   3.474   0.077   8.761  1.4995 -1.3976 -1.3828
  102OSM   H18H10370   3.531   0.243   8.822  1.6663  0.4650 -1.7777
  103OSM      N10371   1.313   3.723  11.036 -0.2848 -0.1737 -0.4760
  103OSM    C1510372   1.254   3.608  11.112  0.5023 -0.0761 -0.7877
  103OSM   H15A10373   1.240   3.514  11.061 -1.2494 -0.3027  0.0183
  103OSM   H15B10374   1.158   3.626  11.158  0.5879  1.0935 -1.0271
  103OSM   H15C10375   1.319   3.581  11.194 -0.7162  1.9076  0.9260
  103OSM    C1410376   1.299   3.848  11.122  0.6743  0.3951  0.1414
  103OSM   H14A10377   1.304   3.943  11.070  0.5464  1.2473  1.5958
  103OSM   H14B10378   1.379   3.846  11.194  0.9256 -1.7540 -0.1402
  103OSM   H14C10379   1.198   3.838  11.160  0.8290 -1.0015  0.2156
  103OSM    C1310380   1.459   3.691  10.993 -0.0309 -0.1561 -0.1492
  103OSM   H13A10381   1.461   3.587  10.967  1.1959 -0.1709 -0.0524
  103OSM   H13B10382   1.523   3.704  11.079 -0.5488 -1.9993  0.5593
  103OSM   H13C10383   1.493   3.739  10.902  1.2018 -1.9109 -0.6585
  103OSM    C1210384   1.221   3.734  10.914 -0.2534  0.0808  0.2393
  103OSM   H12A10385   1.123   3.763  10.949 -0.2498 -0.6360  0.8852
  103OSM   H12B10386   1.210   3.638  10.867  0.2536 -0.6109  1.4818
  103OSM    C1110387   1.259   3.823  10.797 -0.9413  0.0672 -0.7846
  103OSM   H11A10388   1.190   3.805  10.712 -1.4583  1.2843 -0.6379
  103OSM   H11B10389   1.355   3.782  10.760 -1.2465 -2.1388  0.6496
  103OSM      P10390   1.136   4.045  10.840 -0.0334 -0.1438  0.2224
  103OSM    O1310391   1.028   3.961  10.896  0.1927 -0.3284  0.2740
  103OSM    O1410392   1.177   4.166  10.912 -0.4668 -0.1660 -0.2647
  103OSM    O1110393   1.116   4.069  10.689  0.5253 -0.5925 -0.2321
  103OSM    O1210394   1.269   3.957  10.829 -0.0413 -0.1691 -0.2579
  103OSM    C1S10395   1.220   4.120  10.609  0.7807 -0.0627 -0.0003
  103OSM    H1S10396   1.294   4.040  10.586 -1.0295 -2.3038  1.4372
  103OSM    H1T10397   1.273   4.195  10.670 -1.1489  0.1863  1.4854
  103OSM     NF10398   1.294   4.217  10.389 -0.3499 -0.2453 -0.3719
  103OSM    HNF10399   1.295   4.311  10.357 -1.5489 -1.0146 -2.9752
  103OSM    C2S10400   1.174   4.168  10.463  0.3782 -0.1785 -0.2412
  103OSM    H2S10401   1.155   4.070  10.413 -0.7644 -1.4401  2.4598
  103OSM    C3S10402   1.055   4.265  10.468  0.3290  0.8026 -0.0972
  103OSM    H3S10403   1.084   4.358  10.522  1.3014  1.4636 -1.6562
  103OSM     O310404   0.938   4.215  10.541  0.3226  0.8278  0.5190
  103OSM    HO310405   0.966   4.134  10.584 -0.0226 -0.2125 -1.1016
  103OSM    C4S10406   1.021   4.299  10.324  0.6637  0.3178  0.4615
  103OSM    H4S10407   1.071   4.393  10.298  1.2549  0.3942  1.7779
  103OSM    C5S10408   0.946   4.240  10.235  0.3570  0.5726 -1.1087
  103OSM    H5S10409   0.902   4.143  10.263 -0.3417  1.6878  2.0194
  103OSM    C6S10410   0.922   4.300  10.100 -0.3477 -0.2932 -0.3225
  103OSM    H6S10411   1.007   4.366  10.074  0.5964 -2.3424 -2.8109
  103OSM    H6T10412   0.839   4.371  10.078  0.4868  0.6827 -0.3796
  103OSM    C7S10413   0.926   4.195   9.991 -0.3191  0.0403 -0.2782
  103OSM    H7S10414   0.852   4.119  10.025  0.6567 -0.0583  1.8434
  103OSM    H7T10415   1.023   4.143  10.001 -0.0012  0.5658 -0.6202
  103OSM    C8S10416   0.918   4.245   9.852 -0.1775 -0.3551 -0.0918
  103OSM    H8S10417   0.996   4.321   9.830 -0.5443  0.2903  0.7495
  103OSM    H8T10418   0.817   4.284   9.825 -0.1158 -0.1797 -0.0673
  103OSM    C9S10419   0.961   4.142   9.750 -0.0708 -0.7646 -0.1665
  103OSM    H9S10420   0.906   4.047   9.767 -1.0789 -0.1857 -0.1094
  103OSM    H9T10421   1.067   4.115   9.768  0.0635 -0.2643 -0.1829
  103OSM   C10S10422   0.962   4.195   9.603 -0.2808  1.1644  0.2901
  103OSM   H10S10423   1.025   4.286   9.591  0.4480  0.4518 -1.7426
  103OSM   H10T10424   0.857   4.217   9.575 -0.4786 -1.1371 -1.0893
  103OSM   C11S10425   1.011   4.091   9.500  0.2423 -0.0439  0.3429
  103OSM   H11S10426   0.930   4.016   9.488  0.0142 -0.0319  1.6799
  103OSM   H11T10427   1.106   4.038   9.521  1.2754  0.4411 -2.6101
  103OSM   C12S10428   1.020   4.155   9.358 -0.3668  0.0520 -0.3366
  103OSM   H12S10429   1.119   4.204   9.350 -0.7874  1.1606  0.8957
  103OSM   H12T10430   0.935   4.224   9.336 -0.9043 -0.5551 -0.1834
  103OSM   C13S10431   1.022   4.047   9.247  0.2346  0.5037  0.2937
  103OSM   H13S10432   0.921   4.002   9.237  0.7182 -0.1035 -3.3695
  103OSM   H13T10433   1.102   3.973   9.269 -0.7373 -0.7207 -0.1864
  103OSM   C14S10434   1.069   4.114   9.115 -0.1884  0.4754  0.2081
  103OSM   H14S10435   1.173   4.150   9.129 -0.4593  0.8796  1.2497
  103OSM   H14T10436   1.018   4.210   9.089  0.0478  0.8978  1.2597
  103OSM   C15S10437   1.072   4.009   9.000  0.2455 -0.2457  0.3007
  103OSM   H15S10438   0.974   3.959   8.985 -0.5858  1.3412  0.2886
  103OSM   H15T10439   1.142   3.926   9.022 -0.8708 -0.6468  2.6295
  103OSM   C16S10440   1.096   4.065   8.866 -0.2817  0.6340  0.6237
  103OSM   H16S10441   1.198   4.108   8.870 -0.6403  1.8375 -1.6784
  103OSM   H16T10442   1.037   4.153   8.831 -0.2592 -0.3662 -2.2235
  103OSM   C17S10443   1.106   3.958   8.753 -0.8736 -0.5225  0.1198
  103OSM   H17S10444   1.003   3.914   8.755 -0.9047 -0.4568  1.6612
  103OSM   H17T10445   1.172   3.884   8.804 -0.3185  0.9293  1.6070
  103OSM   C18S10446   1.173   3.995   8.622 -0.0207  0.3398  0.6453
  103OSM   H18S10447   1.203   3.913   8.554  0.6188  0.6247  0.5752
  103OSM   H18T10448   1.266   4.055   8.637  1.1038 -1.4760  1.2193
  103OSM   H18U10449   1.088   4.044   8.570  0.7250 -0.4987 -1.4962
  103OSM    C1F10450   1.397   4.145  10.349  0.0441  0.5239  0.2521
  103OSM     OF10451   1.389   4.026  10.362  0.2638  0.6723 -0.0633
  103OSM    C2F10452   1.503   4.221  10.282 -0.6459  0.1477 -0.6270
  103OSM    H2F10453   1.540   4.311  10.336  2.0591 -1.7686  0.9733
  103OSM    H2G10454   1.475   4.254  10.180  1.5994  2.2455 -0.6634
  103OSM    C3F10455   1.636   4.133  10.269  0.1554  0.3608 -1.0766
  103OSM    H3F10456   1.600   4.036  10.230 -3.0697  1.4413 -1.0931
  103OSM    H3G10457   1.678   4.120  10.371  0.4679 -1.0089 -1.3634
  103OSM    C4F10458   1.738   4.209  10.178  0.1065  0.5418  0.2503
  103OSM    H4F10459   1.789   4.292  10.232  0.9202  0.6628 -0.6568
  103OSM    H4G10460   1.686   4.240  10.085 -0.9679 -1.1958  0.2335
  103OSM    C5F10461   1.863   4.128  10.140  0.1797 -0.4238  0.1257
  103OSM    H5F10462   1.832   4.030  10.098  0.0901  0.1259 -1.1751
  103OSM    H5G10463   1.912   4.106  10.237 -1.2664  0.7302  1.1736
  103OSM    C6F10464   1.961   4.194  10.052  0.6045 -0.2768 -0.1372
  103OSM    H6F10465   1.899   4.224   9.964  0.4390 -0.6177 -0.1415
  103OSM    H6G10466   2.041   4.132  10.006 -0.6993 -1.9677 -0.2605
  103OSM    C7F10467   2.031   4.314  10.110 -0.6291 -0.0739 -0.0405
  103OSM    H7F10468   2.131   4.274  10.136  0.1648  1.6983 -0.2533
  103OSM    H7G10469   1.983   4.360  10.199  2.7342 -0.7079  2.2529
  103OSM    C8F10470   2.065   4.419  10.000  0.5079 -0.4304  0.5762
  103OSM    H8F10471   2.117   4.498  10.058  0.9571 -1.0736  1.0610
  103OSM    H8G10472   1.971   4.464   9.963  0.5587 -0.8790 -0.1093
  103OSM    C9F10473   2.148   4.374   9.881 -0.0677 -0.0996  0.0120
  103OSM    H9F10474   2.255   4.363   9.904  0.0674  0.8380 -0.1061
  103OSM   C10F10475   2.097   4.356   9.758  0.0844  0.2881  0.0971
  103OSM   H10F10476   2.169   4.317   9.686 -0.4135  0.5898 -0.5788
  103OSM   C11F10477   1.955   4.371   9.698 -0.1714 -0.3817  0.5764
  103OSM   H11F10478   1.881   4.384   9.780 -1.9072 -1.5761 -0.7271
  103OSM   H11G10479   1.920   4.279   9.645 -0.6404  0.9748 -1.5988
  103OSM   C12F10480   1.960   4.495   9.606  0.0304 -0.2477 -0.0843
  103OSM   H12F10481   2.040   4.477   9.530  0.1148 -1.7095  0.3185
  103OSM   H12G10482   1.999   4.578   9.669  0.3520 -2.1954  2.4409
  103OSM   C13F10483   1.826   4.522   9.535  0.9003 -0.0721 -0.2970
  103OSM   H13F10484   1.749   4.556   9.607  0.6451 -2.5306  0.7036
  103OSM   H13G10485   1.795   4.421   9.500 -1.8586  0.3790  0.6012
  103OSM   C14F10486   1.837   4.618   9.421 -0.3318 -0.3397  0.0657
  103OSM   H14F10487   1.855   4.714   9.474 -1.0556 -0.4115  0.4492
  103OSM   H14G10488   1.743   4.636   9.365 -0.2697 -3.3640 -1.1866
  103OSM   C15F10489   1.931   4.569   9.313 -0.3723 -0.4088  0.1479
  103OSM   H15F10490   2.036   4.548   9.341 -0.2337  1.3354  1.1092
  103OSM   H15G10491   1.939   4.656   9.244 -2.1396  0.7887  1.3395
  103OSM   C16F10492   1.868   4.448   9.237 -0.0316 -0.8587  0.3868
  103OSM   H16F10493   1.766   4.477   9.206 -0.0606  0.0909  1.3374
  103OSM   H16G10494   1.859   4.365   9.311 -0.6045 -0.6076  0.6037
  103OSM   C17F10495   1.966   4.387   9.130  0.0331 -0.0466  0.1448
  103OSM   H17F10496   1.932   4.286   9.097 -2.1038  1.1837 -1.6507
  103OSM   H17G10497   2.068   4.381   9.175  0.5082 -1.5973 -1.0571
  103OSM   C18F10498   1.965   4.478   9.005 -0.5370  0.4398  0.5149
  103OSM   H18F10499   1.863   4.475   8.962  0.0304  1.7113 -1.0217
  103OSM   H18G10500   2.020   4.425   8.925 -2.8814  0.0453 -0.9278
  103OSM   H18H10501   2.011   4.577   9.028  0.3479  0.2013 -0.2086
  104OSM      N10502   2.883   4.103  11.003  0.2398 -0.7361 -0.1207
  104OSM    C1510503   2.972   4.221  11.040  0.7065 -0.5028  0.5023
  104OSM   H15A10504   3.069   4.185  11.072 -0.1408 -1.5193  2.0797
  104OSM   H15B10505   2.935   4.287  11.118  1.4237  0.9021 -0.3097
  104OSM   H15C10506   2.985   4.280  10.951  0.0674  1.7691  1.8397
  104OSM    C1410507   2.878   3.992  11.114 -0.4539 -0.3520  0.5111
  104OSM   H14A10508   2.826   4.028  11.201 -1.2365 -0.8359  0.2476
  104OSM   H14B10509   2.980   3.964  11.137 -0.7858 -1.6283  0.5100
  104OSM   H14C10510   2.822   3.911  11.071  0.3279 -0.1858 -0.8719
  104OSM    C1310511   2.743   4.165  10.987  0.2575  0.1849 -0.3469
  104OSM   H13A10512   2.734   4.223  10.897  1.6697  1.1884  0.1173
  104OSM   H13B10513   2.721   4.232  11.069  2.8611  0.4800  0.2185
  104OSM   H13C10514   2.659   4.100  10.973 -0.8784  1.2901  0.9911
  104OSM    C1210515   2.929   4.040  10.874  0.1888  0.0694 -0.5316
  104OSM   H12A10516   2.920   4.120  10.802 -0.1797  1.5609  1.1017
  104OSM   H12B10517   2.860   3.959  10.851  0.2871  0.1211 -1.0141
  104OSM    C1110518   3.073   3.988  10.862  0.0752 -0.1300 -0.1353
  104OSM   H11A10519   3.065   3.923  10.772 -4.6980 -1.4522  0.9666
  104OSM   H11B10520   3.097   3.922  10.948  1.9666  0.8334  0.1176
  104OSM      P10521   3.307   4.086  10.823 -0.0384  0.0417 -0.0053
  104OSM    O1310522   3.358   4.225  10.817 -0.0791  0.0128 -0.2074
  104OSM    O1410523   3.369   3.988  10.913  0.5967 -0.2297 -0.1574
  104OSM    O1110524   3.306   4.024  10.680  0.2352  0.2507 -0.1896
  104OSM    O1210525   3.157   4.101  10.852  0.0201  0.8581 -0.6181
  104OSM    C1S10526   3.403   4.050  10.582  0.0485 -0.0973  0.1900
  104OSM    H1S10527   3.470   3.962  10.572 -3.3703 -2.8220 -0.9826
  104OSM    H1T10528   3.454   4.148  10.590 -0.7132  0.3472 -0.2636
  104OSM     NF10529   3.456   4.082  10.353 -0.5459 -0.7569 -0.1131
  104OSM    HNF10530   3.477   4.174  10.320 -0.7587 -0.0694  1.5660
  104OSM    C2S10531   3.339   4.071  10.440 -0.8028  0.0925 -0.1215
  104OSM    H2S10532   3.290   3.974  10.416 -0.0688 -0.1878 -0.5112
  104OSM    C3S10533   3.239   4.184  10.446  0.2881  0.7010 -0.0006
  104OSM    H3S10534   3.281   4.266  10.508  0.9412 -0.6918  1.4615
  104OSM     O310535   3.116   4.150  10.516  0.3535 -0.2438  0.6135
  104OSM    HO310536   3.144   4.078  10.573  2.2357  0.0323  0.1300
  104OSM    C4S10537   3.197   4.234  10.310  0.1791 -0.3099  0.1406
  104OSM    H4S10538   3.126   4.171  10.255 -1.3455 -0.8103  2.5314
  104OSM    C5S10539   3.245   4.347  10.246 -0.7798  0.1829  1.2783
  104OSM    H5S10540   3.307   4.409  10.313 -0.6119  0.8439  0.5156
  104OSM    C6S10541   3.207   4.398  10.112 -0.4326  0.1571 -0.4090
  104OSM    H6S10542   3.289   4.368  10.043  0.0337  2.1683 -0.8078
  104OSM    H6T10543   3.189   4.508  10.105 -1.3978  0.1082  0.9383
  104OSM    C7S10544   3.080   4.339  10.042  0.6914 -0.2324  0.9809
  104OSM    H7S10545   2.990   4.354  10.105 -1.0501  1.3354 -1.7053
  104OSM    H7T10546   3.080   4.230  10.019  0.6128 -0.7999  3.3610
  104OSM    C8S10547   3.058   4.401   9.898 -0.3437 -0.6193  0.4472
  104OSM    H8S10548   3.059   4.512   9.901  1.3206 -0.5294 -1.3627
  104OSM    H8T10549   2.959   4.366   9.862 -0.1124 -0.6044 -0.2109
  104OSM    C9S10550   3.159   4.364   9.788  0.1336 -0.5208 -0.4273
  104OSM    H9S10551   3.151   4.255   9.769 -3.0105 -0.1470 -1.8427
  104OSM    H9T10552   3.264   4.374   9.824 -1.3556  1.3205  4.1004
  104OSM   C10S10553   3.141   4.431   9.649  0.5048  0.4522  0.6495
  104OSM   H10S10554   3.049   4.399   9.596 -0.2912  1.5660  1.3040
  104OSM   H10T10555   3.220   4.396   9.580 -1.4647  0.3277 -1.6363
  104OSM   C11S10556   3.140   4.585   9.648  0.0740 -1.1520 -0.2341
  104OSM   H11S10557   3.206   4.613   9.733 -1.0672  0.6727  0.1092
  104OSM   H11T10558   3.044   4.638   9.657  0.7679  0.9649 -3.6748
  104OSM   C12S10559   3.193   4.657   9.520 -0.1091 -0.9533 -0.2665
  104OSM   H12S10560   3.299   4.629   9.505 -0.0509 -0.8037 -0.1391
  104OSM   H12T10561   3.199   4.764   9.549  0.0033 -0.4535 -2.0595
  104OSM   C13S10562   3.124   4.634   9.391  0.0080 -0.3669  0.0694
  104OSM   H13S10563   3.023   4.679   9.398  0.7927  1.6136 -0.4864
  104OSM   H13T10564   3.109   4.525   9.376  0.1152 -0.1854 -1.5850
  104OSM   C14S10565   3.201   4.690   9.275 -0.2067 -0.0203 -1.2073
  104OSM   H14S10566   3.305   4.652   9.282  0.1872  1.2536  1.2324
  104OSM   H14T10567   3.215   4.798   9.300  1.8007 -0.4241 -0.3765
  104OSM   C15S10568   3.142   4.680   9.139 -0.0302 -0.5705  0.8079
  104OSM   H15S10569   3.038   4.719   9.142  0.9120  2.3772 -0.7719
  104OSM   H15T10570   3.137   4.575   9.101  0.1817 -0.2940  0.0009
  104OSM   C16S10571   3.210   4.778   9.032 -0.4641  0.4481 -0.4822
  104OSM   H16S10572   3.312   4.738   9.012 -0.2108  0.0338  1.4533
  104OSM   H16T10573   3.216   4.881   9.073  1.5509  0.4972 -0.7805
  104OSM   C17S10574   3.122   4.788   8.904  0.7423  0.1052 -0.1229
  104OSM   H17S10575   3.170   4.855   8.830 -2.0770  1.4801 -0.8201
  104OSM   H17T10576   3.029   4.843   8.925  1.6065  0.9068  1.8865
  104OSM   C18S10577   3.085   4.650   8.832 -0.2887 -0.2164 -0.5872
  104OSM   H18S10578   3.001   4.605   8.890 -0.3231  0.8302  0.2126
  104OSM   H18T10579   3.167   4.575   8.833  0.1771  0.2931 -0.4321
  104OSM   H18U10580   3.043   4.674   8.732 -0.8117 -1.6539 -0.7336
  104OSM    C1F10581   3.533   3.980  10.320 -0.5715  0.2092 -0.2165
  104OSM     OF10582   3.497   3.867  10.349  0.3687 -0.8897  0.6413
  104OSM    C2F10583   3.667   4.013  10.254 -0.3959 -0.5650 -0.8646
  104OSM    H2F10584   3.738   3.951  10.312 -0.8567  0.6687  1.0913
  104OSM    H2G10585   3.699   4.116  10.282 -2.2711  0.2372 -1.4817
  104OSM    C3F10586   3.680   3.985  10.101  0.5434 -0.0046 -0.4279
  104OSM    H3F10587   3.665   3.876  10.087  1.8618 -0.2553 -0.0941
  104OSM    H3G10588   3.784   4.006  10.066  1.1256 -1.1495  0.5154
  104OSM    C4F10589   3.577   4.067  10.021  0.1080  1.5881  0.5215
  104OSM    H4F10590   3.598   4.175  10.034  1.3182  1.1968  2.0601
  104OSM    H4G10591   3.478   4.042  10.064 -0.3941  3.2557  0.4172
  104OSM    C5F10592   3.577   4.033   9.866  0.1997 -0.3165 -0.0547
  104OSM    H5F10593   3.551   3.927   9.844 -0.7373  0.0404 -0.7470
  104OSM    H5G10594   3.680   4.061   9.834  0.1833  0.0853  0.2449
  104OSM    C6F10595   3.481   4.123   9.787  0.7826 -0.3375  0.2331
  104OSM    H6F10596   3.470   4.223   9.833 -0.4740 -0.6091  0.5790
  104OSM    H6G10597   3.384   4.070   9.770  0.5533  0.8135 -2.6151
  104OSM    C7F10598   3.547   4.142   9.642  0.6462 -0.0851 -0.4112
  104OSM    H7F10599   3.559   4.047   9.586 -1.3406 -0.4872 -0.2427
  104OSM    H7G10600   3.640   4.198   9.665 -0.2160  1.1213  0.2479
  104OSM    C8F10601   3.476   4.243   9.548 -0.1565 -0.7131 -0.6434
  104OSM    H8F10602   3.545   4.291   9.475 -0.0776 -0.5803 -0.4820
  104OSM    H8G10603   3.429   4.323   9.610 -1.4868 -0.3434 -2.0780
  104OSM    C9F10604   3.364   4.165   9.475 -0.2921 -0.3287  0.4525
  104OSM    H9F10605   3.332   4.068   9.514 -1.5537 -1.4231 -2.9154
  104OSM   C10F10606   3.315   4.200   9.360  0.0987  0.7582  0.3267
  104OSM   H10F10607   3.236   4.140   9.314  0.7609  1.6799 -2.1541
  104OSM   C11F10608   3.339   4.322   9.278  0.1230  0.3275 -1.0180
  104OSM   H11F10609   3.441   4.361   9.297  0.0179 -0.5200  1.7098
  104OSM   H11G10610   3.264   4.395   9.315  0.4321 -0.4346  1.2411
  104OSM   C12F10611   3.326   4.313   9.123  0.1867 -0.3955 -0.3491
  104OSM   H12F10612   3.217   4.323   9.108  0.2898 -0.8885 -1.5449
  104OSM   H12G10613   3.354   4.212   9.085  1.9227 -0.9032  2.0326
  104OSM   C13F10614   3.391   4.422   9.051 -0.5678 -0.1151 -0.4496
  104OSM   H13F10615   3.485   4.457   9.098 -0.4733 -0.2729 -0.5210
  104OSM   H13G10616   3.324   4.509   9.032 -0.1645 -0.0420 -1.6555
  104OSM   C14F10617   3.421   4.394   8.903  0.8391 -0.7595 -0.0867
  104OSM   H14F10618   3.322   4.357   8.868 -0.2567 -0.5277  2.5609
  104OSM   H14G10619   3.503   4.319   8.894  0.2736 -1.4245  0.2649
  104OSM   C15F10620   3.453   4.527   8.819 -0.0919  0.2912  0.0818
  104OSM   H15F10621   3.561   4.543   8.840 -0.2090  0.4550  0.5758
  104OSM   H15G10622   3.387   4.609   8.854 -1.5815 -0.4001 -0.9669
  104OSM   C16F10623   3.424   4.513   8.670 -0.1222 -0.2943  0.2398
  104OSM   H16F10624   3.318   4.482   8.664 -1.0790  2.6240  0.4467
  104OSM   H16G10625   3.482   4.427   8.630  1.0933  0.1886  0.8909
  104OSM   C17F10626   3.435   4.642   8.582  0.2744 -0.0312 -0.8424
  104OSM   H17F10627   3.354   4.712   8.613  0.6315  0.0205  0.0026
  104OSM   H17G10628   3.407   4.619   8.477 -2.9590  1.4271 -0.4313
  104OSM   C18F10629   3.563   4.718   8.588 -0.2627 -0.5611 -0.1489
  104OSM   H18F10630   3.653   4.652   8.587  0.0340 -0.2649  2.1828
  104OSM   H18G10631   3.575   4.780   8.679 -0.7667  0.3008 -0.6512
  104OSM   H18H10632   3.572   4.776   8.493 -3.0814 -1.2252 -0.9324
  105OSM      N10633   5.620   5.108  10.432 -0.0388 -0.4311  0.4774
  105OSM    C1510634   5.652   5.109  10.285 -0.1554  0.4319 -0.7513
  105OSM   H15A10635   5.584   5.047  10.229 -1.1411 -0.1466  0.9820
  105OSM   H15B10636   5.752   5.071  10.282 -0.9432 -2.3296  2.1555
  105OSM   H15C10637   5.657   5.210  10.247  1.5300  0.2157 -1.1544
  105OSM    C1410638   5.616   4.965  10.479 -0.3044 -0.3563 -0.3634
  105OSM   H14A10639   5.535   4.916  10.427 -0.7443 -0.5162  0.4537
  105OSM   H14B10640   5.598   4.960  10.585 -0.4497 -0.5831 -0.3990
  105OSM   H14C10641   5.710   4.915  10.460 -0.6620 -0.6758 -1.3247
  105OSM    C1310642   5.729   5.182  10.509  0.1859  0.5995  0.3072
  105OSM   H13A10643   5.782   5.253  10.448  0.4769 -0.2789 -0.4754
  105OSM   H13B10644   5.807   5.116  10.543  0.0133  0.2488  0.0335
  105OSM   H13C10645   5.685   5.235  10.593 -0.9159  1.4499 -0.7702
  105OSM    C1210646   5.483   5.182  10.451 -0.3803 -0.5320 -0.2462
  105OSM   H12A10647   5.411   5.134  10.386 -2.8176  2.3326  0.0989
  105OSM   H12B10648   5.484   5.280  10.406  1.6791 -0.2474  0.2837
  105OSM    C1110649   5.423   5.185  10.596 -0.3710 -0.0380  0.3260
  105OSM   H11A10650   5.434   5.084  10.640 -0.1931 -0.9268 -1.6464
  105OSM   H11B10651   5.315   5.210  10.588 -0.6284 -0.8322  1.0830
  105OSM      P10652   5.479   5.426  10.707  0.1003 -0.5520  0.2837
  105OSM    O1310653   5.375   5.434  10.812 -0.2382  0.1024  0.1448
  105OSM    O1410654   5.605   5.501  10.716 -0.3168 -0.3380 -0.2574
  105OSM    O1110655   5.399   5.476  10.574 -0.4247 -0.1797 -0.1020
  105OSM    O1210656   5.501   5.274  10.678  0.2156 -0.3682  0.1399
  105OSM    C1S10657   5.477   5.522  10.459  0.4248 -0.2926  0.6410
  105OSM    H1S10658   5.548   5.445  10.422 -0.0810 -0.5130  0.1002
  105OSM    H1T10659   5.523   5.614  10.500 -1.0668  1.5333 -1.5417
  105OSM     NF10660   5.454   5.566  10.205 -0.0502 -0.1965 -0.1310
  105OSM    HNF10661   5.482   5.654  10.166  3.8943  0.4957  3.5015
  105OSM    C2S10662   5.387   5.565  10.341 -0.1261  0.2631  0.1961
  105OSM    H2S10663   5.298   5.499  10.334 -0.1292  0.3823 -1.3304
  105OSM    C3S10664   5.327   5.705  10.367 -0.0108 -0.4593 -0.3315
  105OSM    H3S10665   5.410   5.777  10.380  0.6202 -1.4186  1.1437
  105OSM     O310666   5.249   5.705  10.489 -0.1059  0.3454  0.2450
  105OSM    HO310667   5.283   5.630  10.538 -2.2281 -0.8785 -0.0544
  105OSM    C4S10668   5.230   5.759  10.255  0.0934  0.4566 -0.2754
  105OSM    H4S10669   5.136   5.704  10.245  1.0448 -1.0240 -1.5020
  105OSM    C5S10670   5.247   5.867  10.167 -0.1448 -0.1603  0.5500
  105OSM    H5S10671   5.341   5.925  10.175  1.1460 -1.9643 -0.6266
  105OSM    C6S10672   5.149   5.915  10.059  0.5146  0.1661  0.4794
  105OSM    H6S10673   5.167   6.020  10.026 -1.5156  0.9722  1.7576
  105OSM    H6T10674   5.048   5.919  10.104 -0.2600 -1.9121 -0.9009
  105OSM    C7S10675   5.126   5.834   9.930 -0.1696 -0.1615 -0.5399
  105OSM    H7S10676   5.050   5.888   9.869  0.5078  0.8439 -0.5220
  105OSM    H7T10677   5.105   5.728   9.956 -1.6773  0.4382  0.8935
  105OSM    C8S10678   5.263   5.831   9.847  0.3577  0.6603 -0.6231
  105OSM    H8S10679   5.334   5.763   9.899 -0.8028  0.3274  0.5745
  105OSM    H8T10680   5.296   5.937   9.854 -1.4557  1.1910  1.0472
  105OSM    C9S10681   5.254   5.788   9.703  0.5097  0.9515  0.1273
  105OSM    H9S10682   5.178   5.858   9.662  1.3116  2.1161  0.5711
  105OSM    H9T10683   5.227   5.680   9.704  3.1056  0.2324  1.5217
  105OSM   C10S10684   5.393   5.792   9.639 -0.7427  0.3866  0.0470
  105OSM   H10S10685   5.466   5.731   9.696  0.3866  0.5242 -1.1826
  105OSM   H10T10686   5.425   5.898   9.650 -0.5276  0.3830 -0.5089
  105OSM   C11S10687   5.396   5.758   9.486 -0.2575  0.2869  0.2784
  105OSM   H11S10688   5.309   5.809   9.440 -0.1104 -1.0872 -1.6217
  105OSM   H11T10689   5.381   5.650   9.467 -0.9765  0.8875 -3.2428
  105OSM   C12S10690   5.527   5.798   9.423 -0.0894  0.2456 -0.6832
  105OSM   H12S10691   5.611   5.738   9.466 -0.6782 -1.4010 -1.7177
  105OSM   H12T10692   5.555   5.899   9.460  1.7614 -1.0278  1.6643
  105OSM   C13S10693   5.538   5.777   9.272 -0.2779 -0.2472 -0.4294
  105OSM   H13S10694   5.557   5.674   9.236 -0.5413 -0.0466 -1.1558
  105OSM   H13T10695   5.613   5.847   9.229 -0.1349  0.5702  1.0902
  105OSM   C14S10696   5.414   5.809   9.192 -0.4004 -0.3830  0.9014
  105OSM   H14S10697   5.374   5.911   9.214 -1.3792 -0.4114 -0.5992
  105OSM   H14T10698   5.340   5.726   9.198 -0.7025 -0.4053 -1.8109
  105OSM   C15S10699   5.455   5.807   9.039  0.4029 -0.3232  0.9589
  105OSM   H15S10700   5.495   5.707   9.014  0.8204 -0.4450  2.0767
  105OSM   H15T10701   5.535   5.882   9.019 -0.9639  0.9015 -0.1444
  105OSM   C16S10702   5.328   5.831   8.951 -0.3449  0.0899 -0.3403
  105OSM   H16S10703   5.304   5.940   8.958  1.8780  0.8377 -2.8473
  105OSM   H16T10704   5.253   5.777   9.012 -0.3919  0.2997 -0.2100
  105OSM   C17S10705   5.341   5.791   8.811  0.5498 -0.6986  0.3262
  105OSM   H17S10706   5.374   5.685   8.803 -0.5818 -1.1878  1.7186
  105OSM   H17T10707   5.416   5.855   8.759 -1.0392 -0.0470 -1.2651
  105OSM   C18S10708   5.205   5.812   8.741  0.3238  0.2293 -0.3467
  105OSM   H18S10709   5.158   5.913   8.743 -0.2569  0.0058 -1.6618
  105OSM   H18T10710   5.124   5.752   8.786  0.4409  0.4732  0.2038
  105OSM   H18U10711   5.210   5.786   8.633 -1.6571  0.7395 -0.6037
  105OSM    C1F10712   5.507   5.460  10.154 -0.2391  0.2964  0.2405
  105OSM     OF10713   5.476   5.352  10.198 -0.1110 -0.1550 -0.3782
  105OSM    C2F10714   5.593   5.488  10.040  0.3168  0.5024  0.8658
  105OSM    H2F10715   5.699   5.498  10.073 -0.2132 -0.3331  3.0264
  105OSM    H2G10716   5.565   5.584   9.992  2.4442  0.1315 -1.3025
  105OSM    C3F10717   5.601   5.378   9.940  0.0805  0.0643 -0.2940
  105OSM    H3F10718   5.501   5.369   9.893  0.2850 -0.1032 -0.7031
  105OSM    H3G10719   5.616   5.277   9.983  0.3888 -0.4001 -1.4534
  105OSM    C4F10720   5.712   5.401   9.830 -0.3842 -0.3221 -0.6677
  105OSM    H4F10721   5.814   5.369   9.860  0.2986  0.9795 -1.5030
  105OSM    H4G10722   5.720   5.511   9.816  0.4563 -0.2536  0.2518
  105OSM    C5F10723   5.664   5.347   9.695  1.1563  0.2975  0.8351
  105OSM    H5F10724   5.558   5.382   9.690  1.1670  0.1171 -2.0602
  105OSM    H5G10725   5.661   5.236   9.695 -1.0788  0.3104  1.1121
  105OSM    C6F10726   5.737   5.406   9.569 -0.5820  0.9891  0.2494
  105OSM    H6F10727   5.846   5.389   9.580 -0.7950 -0.8339 -0.1006
  105OSM    H6G10728   5.721   5.516   9.566  2.3236  1.5045  0.7641
  105OSM    C7F10729   5.699   5.339   9.433  0.1823  0.0389  0.1886
  105OSM    H7F10730   5.603   5.382   9.397  0.2287 -0.8138 -1.0223
  105OSM    H7G10731   5.668   5.233   9.448  2.0141 -0.6719 -0.7711
  105OSM    C8F10732   5.812   5.350   9.324  0.1590 -0.7462  0.6640
  105OSM    H8F10733   5.901   5.326   9.386 -0.9249 -0.5805  2.3303
  105OSM    H8G10734   5.819   5.455   9.287 -3.1015 -0.2911  1.0798
  105OSM    C9F10735   5.777   5.249   9.218 -0.5861  0.2019 -0.1038
  105OSM    H9F10736   5.745   5.155   9.265  0.9254 -0.4260 -0.2678
  105OSM   C10F10737   5.769   5.256   9.081 -0.0442  0.5505  0.2045
  105OSM   H10F10738   5.720   5.172   9.030  2.0302 -1.7616  1.7991
  105OSM   C11F10739   5.792   5.377   8.996 -0.7563  0.3694  0.6927
  105OSM   H11F10740   5.868   5.344   8.922  0.2647 -1.8866  2.6209
  105OSM   H11G10741   5.829   5.462   9.058  0.3066  0.8240 -0.5107
  105OSM   C12F10742   5.670   5.405   8.922  0.3893 -0.2779  0.3908
  105OSM   H12F10743   5.594   5.447   8.992  1.6660  0.3552  1.4521
  105OSM   H12G10744   5.624   5.315   8.876 -0.3748  0.9594 -1.3985
  105OSM   C13F10745   5.686   5.507   8.802 -0.6037 -0.0583 -0.1661
  105OSM   H13F10746   5.582   5.503   8.763 -0.3188  0.8537 -1.0705
  105OSM   H13G10747   5.752   5.463   8.725 -1.5335  0.3973 -1.2526
  105OSM   C14F10748   5.738   5.647   8.824  0.1897  0.2342 -0.4320
  105OSM   H14F10749   5.844   5.651   8.857  0.2822  1.0336 -0.8019
  105OSM   H14G10750   5.678   5.678   8.912  1.4449 -0.8149  0.8484
  105OSM   C15F10751   5.710   5.740   8.706 -0.2977  0.0272 -0.1209
  105OSM   H15F10752   5.690   5.846   8.731  1.9556  0.0419  2.0604
  105OSM   H15G10753   5.629   5.700   8.641  0.9206  0.2796 -1.8664
  105OSM   C16F10754   5.821   5.761   8.603 -0.4776  0.3424  0.0223
  105OSM   H16F10755   5.874   5.664   8.590  1.5712  1.1137  1.9844
  105OSM   H16G10756   5.896   5.829   8.648 -2.5072  0.2580  3.9757
  105OSM   C17F10757   5.776   5.825   8.475  1.0551 -0.1344  0.5284
  105OSM   H17F10758   5.707   5.903   8.511  0.7512 -0.5197  0.7979
  105OSM   H17G10759   5.712   5.754   8.418 -0.7362  2.3519 -0.7161
  105OSM   C18F10760   5.885   5.887   8.389 -0.1138 -0.6507  0.0921
  105OSM   H18F10761   5.850   5.899   8.284  1.3471 -0.8458 -0.4408
  105OSM   H18G10762   5.974   5.822   8.405  0.9319  0.5795 -0.5479
  105OSM   H18H10763   5.904   5.989   8.429 -1.7451  1.1798 -3.2854
  106OSM      N10764   5.146   5.259  11.083 -0.4386  0.2640  0.0280
  106OSM    C1510765   5.074   5.337  11.189  0.0765 -0.6989 -0.2871
  106OSM   H15A10766   4.973   5.300  11.197 -0.1204 -0.6030 -1.9586
  106OSM   H15B10767   5.086   5.443  11.168  0.1774 -0.8109 -0.8085
  106OSM   H15C10768   5.116   5.326  11.288 -0.2631 -2.8528 -0.3433
  106OSM    C1410769   5.285   5.308  11.069  0.1505 -0.2346  0.2264
  106OSM   H14A10770   5.336   5.277  11.159 -0.9197 -2.5758  0.1067
  106OSM   H14B10771   5.287   5.414  11.053 -0.9646 -0.2287  0.0409
  106OSM   H14C10772   5.324   5.266  10.978  0.2810 -1.5207  0.8537
  106OSM    C1310773   5.145   5.113  11.125 -0.0156 -1.1497 -0.5308
  106OSM   H13A10774   5.199   5.050  11.055  0.1930 -2.2495  0.5864
  106OSM   H13B10775   5.040   5.090  11.130 -0.6007  1.4482  0.8270
  106OSM   H13C10776   5.193   5.102  11.221  0.1360  2.3189 -0.1005
  106OSM    C1210777   5.068   5.271  10.951  0.2809  0.0186  0.6147
  106OSM   H12A10778   5.066   5.369  10.906  0.8588 -0.9886 -1.7650
  106OSM   H12B10779   4.970   5.236  10.979  0.3951  0.0359  1.0301
  106OSM    C1110780   5.113   5.170  10.841 -0.4773 -0.0580  0.3107
  106OSM   H11A10781   5.214   5.135  10.870 -1.3011 -1.6508  1.4249
  106OSM   H11B10782   5.119   5.210  10.738  1.6776 -0.0116  0.4219
  106OSM      P10783   4.876   5.081  10.787 -0.2021  0.3683  0.4070
  106OSM    O1310784   4.809   4.949  10.764 -0.1796 -0.2841  0.4444
  106OSM    O1410785   4.802   5.172  10.873 -0.4040 -0.0496  0.4713
  106OSM    O1110786   4.897   5.144  10.644 -1.0384 -0.1929 -0.9646
  106OSM    O1210787   5.020   5.063  10.848 -0.0752  0.4341  0.0121
  106OSM    C1S10788   4.929   5.062  10.535  0.2384  0.3970  0.4130
  106OSM    H1S10789   4.853   4.982  10.525 -0.0084  0.2837  2.6735
  106OSM    H1T10790   5.031   5.018  10.540 -0.1606 -0.7411 -0.7552
  106OSM     NF10791   4.971   5.055  10.303 -0.0138  0.4783  0.2329
  106OSM    HNF10792   5.066   5.068  10.277  0.1498 -0.1374  0.5102
  106OSM    C2S10793   4.932   5.145  10.408 -0.5386 -0.0862  0.5532
  106OSM    H2S10794   4.827   5.179  10.402 -1.0925 -1.8745 -1.1286
  106OSM    C3S10795   5.024   5.271  10.415 -0.1722 -0.2363  0.6328
  106OSM    H3S10796   5.130   5.253  10.444  0.2524  1.1969  0.0568
  106OSM     O310797   4.987   5.373  10.508  0.2511 -0.1114 -0.4862
  106OSM    HO310798   4.919   5.331  10.561  0.9993 -0.8599 -0.0872
  106OSM    C4S10799   5.020   5.339  10.284  0.2726  0.1682  0.4774
  106OSM    H4S10800   4.919   5.370  10.258  0.6763 -0.6383 -2.3516
  106OSM    C5S10801   5.124   5.356  10.201  0.4324 -0.0628 -0.5703
  106OSM    H5S10802   5.225   5.321  10.229  0.0763 -0.9505 -0.3700
  106OSM    C6S10803   5.116   5.428  10.069  0.0610  0.0572 -0.1666
  106OSM    H6S10804   5.187   5.514  10.072 -0.0683  0.2998 -2.1954
  106OSM    H6T10805   5.015   5.470  10.050 -0.0254 -0.6176 -1.2861
  106OSM    C7S10806   5.157   5.340   9.944 -0.6262  0.0093  1.0005
  106OSM    H7S10807   5.080   5.261   9.939  0.2816 -0.9013  1.1140
  106OSM    H7T10808   5.252   5.283   9.958 -0.5913 -0.5034 -1.0101
  106OSM    C8S10809   5.169   5.412   9.807  0.2268  0.0223 -0.3247
  106OSM    H8S10810   5.256   5.479   9.820  1.5376 -1.9436  1.7797
  106OSM    H8T10811   5.083   5.482   9.802  2.5689  3.1131 -0.3661
  106OSM    C9S10812   5.170   5.322   9.685 -0.7028  0.2158 -0.1234
  106OSM    H9S10813   5.081   5.255   9.684  0.0930 -0.9426  1.7656
  106OSM    H9T10814   5.259   5.260   9.707 -0.6437 -0.3254 -1.7605
  106OSM   C10S10815   5.179   5.394   9.552  0.1392  0.6559 -0.1629
  106OSM   H10S10816   5.184   5.321   9.468  1.3660  0.4036  0.1046
  106OSM   H10T10817   5.270   5.456   9.565 -0.1529  0.8459  1.0968
  106OSM   C11S10818   5.069   5.502   9.525 -0.1206  0.4801 -0.2164
  106OSM   H11S10819   5.099   5.608   9.515 -2.1324  1.1840  0.5779
  106OSM   H11T10820   4.997   5.511   9.610 -0.3080 -1.3723 -0.1305
  106OSM   C12S10821   4.990   5.477   9.398  0.2319 -0.2080  0.3216
  106OSM   H12S10822   4.907   5.551   9.397  0.6356  0.2636  0.6628
  106OSM   H12T10823   4.954   5.372   9.398  2.1118 -0.8908  0.5027
  106OSM   C13S10824   5.071   5.512   9.272  0.3177  0.7803 -0.3562
  106OSM   H13S10825   5.169   5.460   9.284  0.3568  1.0358  0.4826
  106OSM   H13T10826   5.095   5.620   9.265  1.1695  0.7691  1.6662
  106OSM   C14S10827   4.990   5.476   9.141 -0.2433  0.5631  0.9225
  106OSM   H14S10828   4.904   5.548   9.141  0.3424  1.2767  1.1646
  106OSM   H14T10829   4.958   5.371   9.153 -0.5020  0.6541  1.0433
  106OSM   C15S10830   5.059   5.512   9.012  0.0498  0.3396 -0.8258
  106OSM   H15S10831   5.156   5.457   9.004 -0.4442 -0.6361 -0.3511
  106OSM   H15T10832   5.090   5.618   9.008  1.5576 -0.0615 -0.6608
  106OSM   C16S10833   4.974   5.470   8.883  0.0089 -0.6069  0.3751
  106OSM   H16S10834   4.944   5.364   8.895  2.1533 -1.2064  0.9878
  106OSM   H16T10835   5.034   5.482   8.790 -1.9755  0.1181 -0.8765
  106OSM   C17S10836   4.853   5.555   8.878  0.0987 -0.4933  0.1846
  106OSM   H17S10837   4.883   5.663   8.872 -0.1401 -0.4960 -2.4057
  106OSM   H17T10838   4.799   5.552   8.974  0.5027  1.9656  0.5677
  106OSM   C18S10839   4.766   5.504   8.772 -0.5645 -0.6227 -0.6469
  106OSM   H18S10840   4.814   5.522   8.674  1.3302  1.7169  0.5836
  106OSM   H18T10841   4.673   5.563   8.764  1.0757  2.5676  1.4269
  106OSM   H18U10842   4.733   5.399   8.780 -0.7592 -0.6279 -1.4997
  106OSM    C1F10843   4.881   4.968  10.251  0.2069  0.5367 -0.8450
  106OSM     OF10844   4.762   4.974  10.286 -0.2419 -0.3784 -0.1873
  106OSM    C2F10845   4.937   4.856  10.160  0.1775 -0.3459 -0.2593
  106OSM    H2F10846   4.894   4.763  10.203 -1.7135  0.4110 -0.4111
  106OSM    H2G10847   5.048   4.862  10.158  0.2805 -0.2754 -4.6164
  106OSM    C3F10848   4.892   4.876  10.018  1.0524 -0.0275  0.2005
  106OSM    H3F10849   4.785   4.901  10.033  1.2041 -0.3429  2.0664
  106OSM    H3G10850   4.897   4.779   9.963 -0.8611  0.7338 -1.4420
  106OSM    C4F10851   4.959   4.993   9.945  0.1269  0.3150 -0.7127
  106OSM    H4F10852   5.059   4.958   9.909  1.3829  2.4490  0.5133
  106OSM    H4G10853   4.972   5.080  10.013  3.4190  0.8844 -1.8951
  106OSM    C5F10854   4.875   5.053   9.829  0.6521  0.3046  0.1420
  106OSM    H5F10855   4.912   5.155   9.804 -1.0320  1.3846  1.8295
  106OSM    H5G10856   4.766   5.056   9.848  0.4071  0.4873 -1.1692
  106OSM    C6F10857   4.891   4.966   9.704  0.5612  0.3035  0.5720
  106OSM    H6F10858   4.867   4.861   9.729  1.1505  0.1938  0.6999
  106OSM    H6G10859   4.996   4.969   9.665  0.0791  1.4636 -0.7147
  106OSM    C7F10860   4.792   5.002   9.587  1.0971  0.0054  0.2269
  106OSM    H7F10861   4.695   5.025   9.635  0.6903 -0.0616 -0.5481
  106OSM    H7G10862   4.777   4.911   9.526 -2.0132  1.0915 -0.7870
  106OSM    C8F10863   4.840   5.116   9.496 -0.2523  0.0088  0.1647
  106OSM    H8F10864   4.845   5.209   9.557  1.0149  0.4786 -0.6275
  106OSM    H8G10865   4.750   5.129   9.432 -0.5702  0.8851  0.7721
  106OSM    C9F10866   4.965   5.102   9.416  0.5649 -0.0764 -0.0748
  106OSM    H9F10867   5.061   5.089   9.469  1.6220  0.6090 -1.7579
  106OSM   C10F10868   4.968   5.108   9.286  0.1971  0.3341  1.0652
  106OSM   H10F10869   5.061   5.080   9.235  0.4681 -0.4809  1.9898
  106OSM   C11F10870   4.845   5.129   9.198 -0.2685  0.5637 -0.3236
  106OSM   H11F10871   4.815   5.235   9.211  0.2247  0.7319 -0.5252
  106OSM   H11G10872   4.764   5.062   9.233  0.5236 -0.1188  0.2441
  106OSM   C12F10873   4.877   5.113   9.046 -0.0439 -1.2113  0.3418
  106OSM   H12F10874   4.963   5.175   9.012 -0.0253 -1.9300 -0.9527
  106OSM   H12G10875   4.787   5.148   8.991  2.1036  0.8368 -2.1605
  106OSM   C13F10876   4.913   4.970   9.000 -0.4104  0.2989 -0.4114
  106OSM   H13F10877   4.863   4.897   9.066  2.9044 -1.0680  0.8108
  106OSM   H13G10878   5.021   4.945   9.013 -0.2060  1.8500  1.3765
  106OSM   C14F10879   4.869   4.947   8.854 -0.9868  0.3787  1.3353
  106OSM   H14F10880   4.759   4.962   8.854 -0.5947  4.3938  1.3147
  106OSM   H14G10881   4.895   4.846   8.818  2.3641  1.2282  1.0756
  106OSM   C15F10882   4.934   5.050   8.756  0.0706  0.5296 -0.1559
  106OSM   H15F10883   5.043   5.048   8.781  0.3549  0.5330 -1.3515
  106OSM   H15G10884   4.905   5.151   8.791  1.2744  0.7096  0.3699
  106OSM   C16F10885   4.897   5.033   8.607  0.7351 -0.0494 -0.2685
  106OSM   H16F10886   4.901   5.132   8.556 -1.1674  0.9874  1.4482
  106OSM   H16G10887   4.788   5.012   8.608  0.5904  0.5083 -1.6195
  106OSM   C17F10888   4.973   4.922   8.541  0.3521  0.0496 -0.6316
  106OSM   H17F10889   4.945   4.824   8.584 -0.6461  0.5756 -0.0487
  106OSM   H17G10890   5.083   4.940   8.536  0.6569  1.8417  5.3518
  106OSM   C18F10891   4.922   4.903   8.393 -0.9576  0.1396  0.6718
  106OSM   H18F10892   4.990   4.828   8.347 -0.3803  0.1615  1.4664
  106OSM   H18G10893   4.935   5.000   8.342 -0.8643 -0.8565 -1.3119
  106OSM   H18H10894   4.815   4.877   8.382 -0.1485 -3.1082 -1.1241
  107OSM      N10895   1.010   3.016  10.702 -0.0404  0.2130  0.3811
  107OSM    C1510896   1.062   3.017  10.565  0.6961  0.4113  0.2071
  107OSM   H15A10897   1.083   2.916  10.534 -0.4618  0.1571  0.2323
  107OSM   H15B10898   1.155   3.072  10.556  0.4545  0.8338  0.2543
  107OSM   H15C10899   0.995   3.050  10.487 -0.9229 -1.7976  0.5657
  107OSM    C1410900   0.868   2.962  10.691  0.2680 -0.1033  0.1048
  107OSM   H14A10901   0.828   2.931  10.786 -3.9848 -1.2014 -1.8293
  107OSM   H14B10902   0.863   2.874  10.628  0.3331  0.1979 -0.3285
  107OSM   H14C10903   0.801   3.036  10.650 -0.8973 -0.4863  1.2396
  107OSM    C1310904   1.083   2.917  10.775 -0.2566  0.4855 -0.6363
  107OSM   H13A10905   1.042   2.903  10.874  0.7568 -0.8841 -0.3797
  107OSM   H13B10906   1.188   2.942  10.781 -0.1059 -0.4051  1.0506
  107OSM   H13C10907   1.084   2.822  10.724 -0.8794  0.7952 -1.2503
  107OSM    C1210908   1.025   3.155  10.765  0.7063  0.0810 -0.1787
  107OSM   H12A10909   0.926   3.198  10.754  0.3447 -1.1310 -2.1703
  107OSM   H12B10910   1.082   3.217  10.698  0.4102  1.5191  0.8466
  107OSM    C1110911   1.067   3.175  10.910 -0.5127 -0.5706 -0.0967
  107OSM   H11A10912   0.995   3.115  10.970  0.0307 -1.5664 -0.4075
  107OSM   H11B10913   1.053   3.283  10.930  1.0325 -0.4053  0.2199
  107OSM      P10914   1.320   3.247  10.873 -0.2152 -0.1192 -0.2845
  107OSM    O1310915   1.338   3.350  10.979  0.7867  0.0249 -0.0786
  107OSM    O1410916   1.429   3.158  10.828 -0.5312 -0.5788  0.0282
  107OSM    O1110917   1.255   3.312  10.753 -0.3032 -0.4984  0.5722
  107OSM    O1210918   1.207   3.159  10.926 -0.7786  1.0207  0.0134
  107OSM    C1S10919   1.322   3.339  10.632 -0.9325 -0.3230  0.6038
  107OSM    H1S10920   1.363   3.240  10.601  1.4575  0.6461  0.4264
  107OSM    H1T10921   1.404   3.414  10.636 -0.4158 -0.8191 -0.3423
  107OSM     NF10922   1.270   3.393  10.389 -0.3976  0.3598  0.6816
  107OSM    HNF10923   1.289   3.472  10.331 -0.2628  0.2420  0.5648
  107OSM    C2S10924   1.221   3.400  10.532  0.4632  0.6580 -0.1726
  107OSM    H2S10925   1.126   3.343  10.525  0.5290  0.5154  0.0791
  107OSM    C3S10926   1.173   3.541  10.576 -0.0936 -0.3461  0.1498
  107OSM    H3S10927   1.263   3.606  10.579 -0.8855  0.8945 -1.5714
  107OSM     O310928   1.134   3.541  10.709  0.5486  0.0766  0.4830
  107OSM    HO310929   1.147   3.449  10.731 -1.6783 -0.7721 -1.3603
  107OSM    C4S10930   1.068   3.599  10.484 -0.3220  0.2122 -0.5558
  107OSM    H4S10931   0.981   3.532  10.475  1.6607 -2.5963 -0.2817
  107OSM    C5S10932   1.074   3.729  10.445  0.2412  0.4646 -0.5377
  107OSM    H5S10933   1.154   3.785  10.496  0.4852 -0.5936  0.2691
  107OSM    C6S10934   0.979   3.813  10.372  0.5475  0.1882 -0.6701
  107OSM    H6S10935   1.033   3.894  10.319  3.8938 -1.6865 -0.3683
  107OSM    H6T10936   0.913   3.853  10.453  2.3028 -1.3996  1.6950
  107OSM    C7S10937   0.889   3.751  10.266 -0.2861 -0.5366  0.3251
  107OSM    H7S10938   0.807   3.824  10.251  0.5386  0.6069  1.1246
  107OSM    H7T10939   0.845   3.656  10.303 -1.8444 -0.4107 -1.1278
  107OSM    C8S10940   0.968   3.732  10.131  0.2268  0.0080 -0.1539
  107OSM    H8S10941   1.045   3.654  10.146 -2.1871 -2.0037  3.2995
  107OSM    H8T10942   1.018   3.827  10.101 -1.3682  1.0475  0.3318
  107OSM    C9S10943   0.867   3.692  10.022  0.8761 -0.2073 -0.1934
  107OSM    H9S10944   0.779   3.757  10.040  0.6534 -0.2690 -1.0298
  107OSM    H9T10945   0.844   3.583  10.029 -0.1161 -0.1881 -2.5516
  107OSM   C10S10946   0.932   3.718   9.884  0.1357  0.8397 -0.1174
  107OSM   H10S10947   1.012   3.643   9.868 -0.5781 -0.8618  3.3042
  107OSM   H10T10948   0.968   3.823   9.883  0.7721  0.6328  0.5491
  107OSM   C11S10949   0.837   3.696   9.771  0.3402  0.1329  0.0556
  107OSM   H11S10950   0.744   3.757   9.767 -0.1814 -0.6836 -0.5425
  107OSM   H11T10951   0.802   3.591   9.781 -1.6709  0.5431 -1.9333
  107OSM   C12S10952   0.909   3.714   9.636 -0.3593 -1.0464 -0.1929
  107OSM   H12S10953   1.015   3.682   9.643 -0.6224 -1.9116 -0.1255
  107OSM   H12T10954   0.915   3.823   9.613 -0.2277 -1.3225 -1.5426
  107OSM   C13S10955   0.822   3.652   9.529 -0.2048  0.2901 -0.5114
  107OSM   H13S10956   0.719   3.692   9.542  0.1236  1.4495 -1.2509
  107OSM   H13T10957   0.836   3.543   9.538 -0.3914  0.4237  1.7811
  107OSM   C14S10958   0.867   3.686   9.387 -0.2280 -0.6254  0.8322
  107OSM   H14S10959   0.820   3.777   9.342 -1.9112 -2.8514 -2.2868
  107OSM   H14T10960   0.831   3.603   9.323 -1.9923  1.2536 -0.7900
  107OSM   C15S10961   1.022   3.688   9.364 -0.0571  0.4881  0.5444
  107OSM   H15S10962   1.075   3.618   9.432  2.1083  0.4040 -1.1215
  107OSM   H15T10963   1.070   3.786   9.383  1.5028 -0.2955  0.7962
  107OSM   C16S10964   1.049   3.662   9.214  0.6580  0.0598  0.1189
  107OSM   H16S10965   0.992   3.740   9.159 -1.2696 -0.0188  1.9026
  107OSM   H16T10966   0.997   3.567   9.188  0.0633  0.0196  1.3819
  107OSM   C17S10967   1.196   3.654   9.184  0.4979 -0.7977 -0.2950
  107OSM   H17S10968   1.248   3.589   9.257 -0.5209 -0.5431  0.6826
  107OSM   H17T10969   1.242   3.755   9.178  1.1394 -1.1281 -1.1744
  107OSM   C18S10970   1.233   3.603   9.046 -0.0571  0.7197  0.1036
  107OSM   H18S10971   1.202   3.498   9.027 -0.2213  1.0947 -1.9882
  107OSM   H18T10972   1.344   3.594   9.045 -0.1744 -1.0853 -1.2620
  107OSM   H18U10973   1.198   3.669   8.963 -2.1343  0.0945  0.4249
  107OSM    C1F10974   1.293   3.279  10.332 -0.0636  0.1846  0.0163
  107OSM     OF10975   1.253   3.175  10.384  0.2048  0.3237 -0.8600
  107OSM    C2F10976   1.357   3.277  10.193  0.3164 -0.7213 -0.2956
  107OSM    H2F10977   1.460   3.316  10.205 -0.3039  1.0616 -0.5476
  107OSM    H2G10978   1.300   3.337  10.119  1.2070 -1.4712 -1.6320
  107OSM    C3F10979   1.372   3.135  10.125 -0.0242  0.3437  0.1110
  107OSM    H3F10980   1.270   3.105  10.091 -1.2482  1.8197  2.1795
  107OSM    H3G10981   1.405   3.057  10.197  1.2614 -1.4059 -2.2508
  107OSM    C4F10982   1.479   3.138  10.013 -0.4765 -0.2564  0.0803
  107OSM    H4F10983   1.577   3.150  10.064 -0.7940  1.5643  0.3242
  107OSM    H4G10984   1.461   3.226   9.947  1.6712  1.5586  1.8003
  107OSM    C5F10985   1.482   3.010   9.935  0.2877 -0.0145  1.3761
  107OSM    H5F10986   1.379   2.986   9.900  1.1056 -0.1075 -1.1979
  107OSM    H5G10987   1.496   2.920   9.998  1.1087 -0.7330  0.1999
  107OSM    C6F10988   1.559   3.013   9.799 -0.1996  0.4073 -0.0831
  107OSM    H6F10989   1.567   2.915   9.747  1.4436  0.7898 -0.6231
  107OSM    H6G10990   1.664   3.049   9.808  0.5608 -0.9486 -2.6539
  107OSM    C7F10991   1.500   3.097   9.684  0.4738 -1.0974  0.3957
  107OSM    H7F10992   1.520   3.206   9.694 -1.6166 -0.7129  0.7981
  107OSM    H7G10993   1.391   3.092   9.704  0.7520  0.5514  2.9379
  107OSM    C8F10994   1.536   3.058   9.536  0.3811  0.1388  0.2964
  107OSM    H8F10995   1.490   3.130   9.464  0.6679 -0.7277 -0.7780
  107OSM    H8G10996   1.467   2.972   9.522  2.0877 -1.7532  2.7270
  107OSM    C9F10997   1.678   3.025   9.508  0.4424  0.3264 -0.1849
  107OSM    H9F10998   1.750   3.026   9.590 -0.1328  0.5587  0.3263
  107OSM   C10F10999   1.734   3.001   9.391  1.5597 -0.3663 -0.5327
  107OSM   H10F11000   1.842   2.982   9.379  1.6132  0.5572 -1.7292
  107OSM   C11F11001   1.649   2.992   9.266  0.2581  0.4747  0.5690
  107OSM   H11F11002   1.668   3.077   9.197 -1.9130  0.7953  0.3135
  107OSM   H11G11003   1.542   2.982   9.293 -0.0625  0.2019 -0.7677
  107OSM   C12F11004   1.685   2.863   9.187 -0.4562  0.0814 -0.1387
  107OSM   H12F11005   1.620   2.853   9.097  0.8879  1.5757 -1.3399
  107OSM   H12G11006   1.665   2.772   9.247 -1.0624  0.4506  0.2442
  107OSM   C13F11007   1.819   2.870   9.118 -0.2339  0.9652  0.5718
  107OSM   H13F11008   1.908   2.864   9.184  0.0077 -1.4246  0.1189
  107OSM   H13G11009   1.823   2.965   9.059  0.6834 -0.6167 -2.0775
  107OSM   C14F11010   1.835   2.759   9.007  0.1977 -0.0839  0.1082
  107OSM   H14F11011   1.739   2.749   8.951 -0.3916 -1.0491  1.2376
  107OSM   H14G11012   1.848   2.660   9.056 -0.8437 -0.9083 -1.2261
  107OSM   C15F11013   1.957   2.788   8.918 -0.2659  0.1399 -0.4099
  107OSM   H15F11014   2.044   2.806   8.985 -0.2040  0.8757 -0.6750
  107OSM   H15G11015   1.955   2.872   8.845  3.3455  0.3872 -0.4249
  107OSM   C16F11016   1.990   2.662   8.836  0.8753 -0.1702 -0.4078
  107OSM   H16F11017   1.919   2.649   8.751  0.2905 -1.3617  0.2408
  107OSM   H16G11018   1.979   2.570   8.897  0.2519  0.1647 -0.0047
  107OSM   C17F11019   2.136   2.659   8.783 -0.1016  0.5622 -1.0229
  107OSM   H17F11020   2.199   2.617   8.864 -1.3831 -0.9244 -0.7615
  107OSM   H17G11021   2.166   2.765   8.766 -2.8692  2.1224  2.3617
  107OSM   C18F11022   2.175   2.583   8.659  0.4597  0.3432 -0.4875
  107OSM   H18F11023   2.088   2.587   8.590 -1.0009 -0.4301  1.2303
  107OSM   H18G11024   2.181   2.475   8.683 -0.7019  0.3266 -0.2165
  107OSM   H18H11025   2.266   2.614   8.603  0.9940  0.4921  0.4444
  108OSM      N11026   5.965   4.388  10.757 -0.0409 -0.5182 -0.0491
  108OSM    C1511027   6.090   4.460  10.746 -0.9774  0.3156  0.0091
  108OSM   H15A11028   6.077   4.565  10.722 -0.6202  0.0603 -1.4168
  108OSM   H15B11029   6.154   4.412  10.674 -0.4928 -1.5307  1.6094
  108OSM   H15C11030   6.155   4.468  10.831  0.7573 -0.1398 -1.2265
  108OSM    C1411031   6.006   4.249  10.779 -0.3776 -0.4497  0.3625
  108OSM   H14A11032   6.084   4.238  10.854  1.5457  1.5042 -1.2243
  108OSM   H14B11033   6.055   4.206  10.693  1.7680  0.4897  1.0302
  108OSM   H14C11034   5.920   4.190  10.805 -1.4926  1.2951  0.8344
  108OSM    C1311035   5.883   4.434  10.875 -0.1321  0.0132 -0.7719
  108OSM   H13A11036   5.791   4.378  10.873  0.9128 -1.8440  0.3464
  108OSM   H13B11037   5.852   4.537  10.872 -1.8815 -0.3920  0.9316
  108OSM   H13C11038   5.928   4.424  10.973 -0.4900  2.1682 -0.3313
  108OSM    C1211039   5.884   4.404  10.633  0.3843  0.7169  0.5058
  108OSM   H12A11040   5.950   4.366  10.556  1.7735  2.3231  0.8419
  108OSM   H12B11041   5.871   4.508  10.610  1.0239  0.3166 -1.9732
  108OSM    C1111042   5.749   4.345  10.638  0.4292  0.4036 -0.0699
  108OSM   H11A11043   5.729   4.244  10.681 -3.3554  0.7494 -0.6788
  108OSM   H11B11044   5.709   4.335  10.535 -0.5604  1.5622  0.1860
  108OSM      P11045   5.596   4.555  10.649  0.0415  0.2565  0.0537
  108OSM    O1311046   5.483   4.600  10.732  0.4299  0.2535  0.3753
  108OSM    O1411047   5.705   4.654  10.629 -0.2411  0.4687  0.0367
  108OSM    O1111048   5.543   4.525  10.504  0.2990  0.4255 -0.0463
  108OSM    O1211049   5.651   4.422  10.714  0.3638 -0.0478  0.1304
  108OSM    C1S11050   5.439   4.431  10.490  0.2490 -0.6224 -0.4850
  108OSM    H1S11051   5.347   4.471  10.539  0.1358 -1.6568  0.1739
  108OSM    H1T11052   5.461   4.329  10.526 -0.1326 -0.4172  0.3449
  108OSM     NF11053   5.267   4.365  10.315  0.1787  0.0490 -0.2136
  108OSM    HNF11054   5.256   4.266  10.304 -0.2945  0.0819 -0.0539
  108OSM    C2S11055   5.401   4.420  10.338 -0.3711  0.6262 -0.4119
  108OSM    H2S11056   5.401   4.521  10.292 -1.1615  0.2325 -1.3069
  108OSM    C3S11057   5.512   4.345  10.265 -0.0118  0.3496 -0.0575
  108OSM    H3S11058   5.521   4.244  10.311 -1.7706  0.7458  1.2514
  108OSM     O311059   5.635   4.407  10.281 -0.3889 -0.7849 -0.9607
  108OSM    HO311060   5.626   4.445  10.369  0.8074 -2.4412 -0.0519
  108OSM    C4S11061   5.484   4.318  10.120 -0.4021  0.4398  0.3886
  108OSM    H4S11062   5.445   4.216  10.111 -0.3684  0.2943  1.7802
  108OSM    C5S11063   5.518   4.393  10.014  0.1925  0.0582 -0.2317
  108OSM    H5S11064   5.584   4.477  10.042 -0.2178  0.4984 -0.5888
  108OSM    C6S11065   5.496   4.360   9.871  0.4843  0.5266 -0.2748
  108OSM    H6S11066   5.584   4.318   9.817 -0.1613 -1.0796 -0.1225
  108OSM    H6T11067   5.473   4.458   9.824  1.1306  3.0850  4.2083
  108OSM    C7S11068   5.380   4.259   9.851  0.2359 -0.2913 -0.3721
  108OSM    H7S11069   5.281   4.296   9.883 -0.3373 -2.9505  1.2539
  108OSM    H7T11070   5.405   4.161   9.897 -0.8551 -1.5860 -2.3861
  108OSM    C8S11071   5.358   4.218   9.702 -0.4753  0.4057  0.1549
  108OSM    H8S11072   5.284   4.136   9.704 -0.1164  0.0692 -0.2410
  108OSM    H8T11073   5.459   4.186   9.669 -1.4173 -1.7406 -0.8158
  108OSM    C9S11074   5.306   4.330   9.616  0.1485  0.0433  0.7328
  108OSM    H9S11075   5.378   4.415   9.620  0.4280 -0.1910  0.6586
  108OSM    H9T11076   5.215   4.380   9.657 -0.0106  1.5909 -1.3617
  108OSM   C10S11077   5.278   4.272   9.480 -0.8806  0.1580 -0.9652
  108OSM   H10S11078   5.182   4.216   9.487 -0.4860 -0.3421  1.0079
  108OSM   H10T11079   5.361   4.200   9.462 -1.2326 -1.1968  2.0771
  108OSM   C11S11080   5.260   4.374   9.369  0.1336  0.2878  0.2320
  108OSM   H11S11081   5.350   4.433   9.342  0.0168 -0.2535 -1.4806
  108OSM   H11T11082   5.186   4.457   9.375 -0.6219 -0.1965 -1.6658
  108OSM   C12S11083   5.212   4.319   9.237 -0.4232  0.1560 -0.6979
  108OSM   H12S11084   5.101   4.313   9.248 -0.5198 -0.0802 -1.6533
  108OSM   H12T11085   5.252   4.218   9.215 -3.0076 -1.8676  2.7823
  108OSM   C13S11086   5.248   4.408   9.114 -0.1500  0.0844  0.0109
  108OSM   H13S11087   5.354   4.443   9.118 -0.0464 -0.2631  0.3749
  108OSM   H13T11088   5.183   4.497   9.126 -1.5970 -0.8354 -0.8021
  108OSM   C14S11089   5.213   4.346   8.977 -0.7998  0.0971  0.0234
  108OSM   H14S11090   5.110   4.305   8.968 -0.3862 -0.6191 -1.8578
  108OSM   H14T11091   5.282   4.261   8.962  2.3307  2.7530 -2.0064
  108OSM   C15S11092   5.234   4.436   8.856 -0.7786  0.9650 -0.4586
  108OSM   H15S11093   5.218   4.367   8.771 -0.2257  1.0967 -0.6705
  108OSM   H15T11094   5.334   4.483   8.846 -0.6568  1.3028  1.7598
  108OSM   C16S11095   5.127   4.548   8.844 -0.1565  0.2518  0.2065
  108OSM   H16S11096   5.129   4.618   8.931  1.3209  1.4311 -0.7220
  108OSM   H16T11097   5.029   4.496   8.846  1.1132 -2.2912 -0.1179
  108OSM   C17S11098   5.127   4.637   8.721 -0.1395 -0.1828 -0.6749
  108OSM   H17S11099   5.225   4.679   8.693  0.4069 -1.6402 -0.9993
  108OSM   H17T11100   5.060   4.724   8.739  1.5068  0.7605  1.2549
  108OSM   C18S11101   5.074   4.548   8.607  0.1261  0.8427 -0.5470
  108OSM   H18S11102   5.034   4.615   8.528 -0.8792  0.0390 -0.7283
  108OSM   H18T11103   4.994   4.478   8.635  0.0164  1.3453  0.4303
  108OSM   H18U11104   5.159   4.486   8.571 -1.4601 -2.8288  1.5804
  108OSM    C1F11105   5.152   4.422  10.357 -0.1886 -0.7341  0.0356
  108OSM     OF11106   5.151   4.527  10.421 -0.6042  0.6291  0.1723
  108OSM    C2F11107   5.025   4.365  10.299 -0.0861  0.4118 -0.0498
  108OSM    H2F11108   4.949   4.435  10.341  2.3075  1.8351  2.1905
  108OSM    H2G11109   5.014   4.260  10.335  0.8480 -0.3267 -1.8289
  108OSM    C3F11110   5.030   4.355  10.149 -0.4839 -0.2770 -0.0155
  108OSM    H3F11111   4.927   4.323  10.123  0.1619 -1.4310 -1.3330
  108OSM    H3G11112   5.089   4.267  10.114  1.0371  0.9438 -0.6272
  108OSM    C4F11113   5.082   4.467  10.075 -0.5809 -0.3277 -0.0966
  108OSM    H4F11114   5.186   4.435  10.053 -0.8210 -1.6684  0.6241
  108OSM    H4G11115   5.095   4.565  10.125  1.2090  1.0484 -2.9697
  108OSM    C5F11116   5.013   4.502   9.943  0.0011 -0.6893 -0.6642
  108OSM    H5F11117   5.074   4.571   9.881  0.1184  3.1620  3.2453
  108OSM    H5G11118   4.935   4.575   9.975 -0.0728 -0.6567 -0.9127
  108OSM    C6F11119   4.958   4.394   9.855  0.0804  0.3159 -0.1272
  108OSM    H6F11120   4.863   4.363   9.903  0.0382 -0.5913 -0.7661
  108OSM    H6G11121   5.030   4.309   9.856  2.8948  2.4310  3.3913
  108OSM    C7F11122   4.917   4.437   9.715  0.1975  0.3184 -0.1764
  108OSM    H7F11123   4.874   4.347   9.665 -0.8762 -0.4065  1.9491
  108OSM    H7G11124   5.013   4.453   9.662 -0.1500 -0.1495 -0.9687
  108OSM    C8F11125   4.813   4.555   9.702 -0.1766  0.0154 -0.2483
  108OSM    H8F11126   4.840   4.628   9.782 -0.4961  0.8007 -0.8366
  108OSM    H8G11127   4.711   4.517   9.721 -0.7289 -0.4035 -3.5311
  108OSM    C9F11128   4.840   4.629   9.566  0.4474 -0.0629 -0.0548
  108OSM    H9F11129   4.934   4.686   9.562 -0.1929  1.0567  0.3018
  108OSM   C10F11130   4.756   4.625   9.461  0.2930  0.3482  0.1895
  108OSM   H10F11131   4.781   4.665   9.361  2.9841 -1.8283 -0.1459
  108OSM   C11F11132   4.628   4.542   9.457  0.9366  0.0915  0.3817
  108OSM   H11F11133   4.632   4.454   9.525 -2.4114 -1.1537 -0.8220
  108OSM   H11G11134   4.627   4.489   9.360  0.3434 -0.7833  0.8455
  108OSM   C12F11135   4.503   4.620   9.486 -0.3297  0.3086  0.2892
  108OSM   H12F11136   4.414   4.555   9.479  1.3834 -2.2536  0.7964
  108OSM   H12G11137   4.499   4.710   9.422  0.9621 -2.0088 -3.3520
  108OSM   C13F11138   4.503   4.676   9.633  0.0672 -0.6068  0.1231
  108OSM   H13F11139   4.597   4.724   9.668 -0.2581 -2.3001  3.7647
  108OSM   H13G11140   4.493   4.585   9.696  1.8225 -0.1689  1.1138
  108OSM   C14F11141   4.387   4.773   9.669  0.1991 -0.5220 -0.3407
  108OSM   H14F11142   4.290   4.745   9.622 -0.2638  0.6822 -0.1298
  108OSM   H14G11143   4.411   4.868   9.618 -1.2827 -0.6428 -1.3343
  108OSM   C15F11144   4.370   4.798   9.823  0.0840 -0.1363  0.6391
  108OSM   H15F11145   4.385   4.698   9.869  0.7767 -0.9679 -1.3189
  108OSM   H15G11146   4.265   4.828   9.846 -0.0291 -1.0043  1.2888
  108OSM   C16F11147   4.470   4.896   9.891  0.3157  0.2551  0.4106
  108OSM   H16F11148   4.576   4.866   9.875  0.9602  2.2345  0.6836
  108OSM   H16G11149   4.464   4.901  10.001  0.2508  0.1301  0.4131
  108OSM   C17F11150   4.463   5.041   9.854  0.3837 -0.2901 -0.5134
  108OSM   H17F11151   4.492   5.060   9.748 -1.9834  1.3626 -0.9369
  108OSM   H17G11152   4.536   5.100   9.914  1.7615  0.8995 -3.1693
  108OSM   C18F11153   4.335   5.106   9.886  1.0417 -0.1256 -0.3062
  108OSM   H18F11154   4.251   5.047   9.842 -0.3131  1.1858  0.4110
  108OSM   H18G11155   4.323   5.210   9.850  0.1757 -0.7390 -1.8968
  108OSM   H18H11156   4.321   5.098   9.996  2.7159 -1.5263 -0.1599
  109OSM      N11157   2.457   2.024  11.177 -0.7608 -0.1386 -0.2538
  109OSM    C1511158   2.568   2.094  11.256  0.0597  0.2062 -0.0578
  109OSM   H15A11159   2.570   2.197  11.224 -1.0480  0.8573  1.7898
  109OSM   H15B11160   2.666   2.048  11.257 -0.0407 -0.0750  2.1692
  109OSM   H15C11161   2.541   2.100  11.360 -3.2234 -1.1992 -0.6732
  109OSM    C1411162   2.437   1.883  11.217 -0.7171  0.5309 -0.5686
  109OSM   H14A11163   2.352   1.834  11.173  0.6403 -1.8274 -0.7675
  109OSM   H14B11164   2.423   1.884  11.324 -1.8329  1.2490 -0.7026
  109OSM   H14C11165   2.523   1.819  11.201 -2.5409 -2.0469 -0.5917
  109OSM    C1311166   2.333   2.102  11.206 -0.1415 -0.2030  0.5307
  109OSM   H13A11167   2.247   2.048  11.169  1.1665 -1.4215 -0.8581
  109OSM   H13B11168   2.334   2.193  11.149  4.8251  0.0066  0.5357
  109OSM   H13C11169   2.317   2.128  11.310 -0.6676  1.0763  0.1489
  109OSM    C1211170   2.496   2.029  11.022 -0.3310  0.5938 -0.4019
  109OSM   H12A11171   2.414   1.977  10.973 -1.3763 -0.2482  2.0594
  109OSM   H12B11172   2.588   1.972  11.017 -1.4124 -1.2519 -0.4197
  109OSM    C1111173   2.533   2.161  10.950  0.3543 -0.6464 -0.4726
  109OSM   H11A11174   2.443   2.226  10.958  1.6820  1.1114  1.0852
  109OSM   H11B11175   2.546   2.140  10.842  0.1777 -3.9561  0.0568
  109OSM      P11176   2.787   2.194  10.978 -0.2746 -0.1954 -0.0076
  109OSM    O1311177   2.872   2.285  11.058 -0.0201 -0.1928 -0.2179
  109OSM    O1411178   2.800   2.046  10.994  0.3600  0.3986 -0.8250
  109OSM    O1111179   2.802   2.236  10.831 -0.3274 -0.1184 -0.1402
  109OSM    O1211180   2.641   2.237  11.011 -0.3923 -0.8422 -0.3238
  109OSM    C1S11181   2.764   2.363  10.769  0.0509  0.5061  0.2280
  109OSM    H1S11182   2.807   2.445  10.830  2.4564 -0.0893 -0.5467
  109OSM    H1T11183   2.654   2.362  10.754  0.4475 -0.6278 -3.5585
  109OSM     NF11184   2.796   2.489  10.562 -1.0275 -0.8253 -0.1731
  109OSM    HNF11185   2.752   2.487  10.473 -0.6036 -1.0469 -0.3757
  109OSM    C2S11186   2.822   2.363  10.622  0.2777 -0.7842 -0.1660
  109OSM    H2S11187   2.932   2.352  10.633  0.2477 -0.6679  0.2897
  109OSM    C3S11188   2.777   2.242  10.535  0.5446  0.4901  0.4044
  109OSM    H3S11189   2.668   2.244  10.517  0.4958 -0.8381  0.4344
  109OSM     O311190   2.798   2.108  10.587  0.0811  0.1499 -0.1697
  109OSM    HO311191   2.819   2.129  10.678 -0.6387 -1.2395  0.3359
  109OSM    C4S11192   2.850   2.243  10.408  0.2334  0.2726  0.0889
  109OSM    H4S11193   2.946   2.296  10.403  1.5301 -1.7237  2.0448
  109OSM    C5S11194   2.806   2.201  10.287  0.1363  0.0438 -0.1266
  109OSM    H5S11195   2.701   2.177  10.263  0.6743 -0.3468 -2.2592
  109OSM    C6S11196   2.894   2.211  10.163 -0.0270  0.2617  0.4907
  109OSM    H6S11197   2.923   2.110  10.127 -1.9175 -0.7990  1.7574
  109OSM    H6T11198   2.991   2.265  10.170 -0.8837  1.6548  2.7633
  109OSM    C7S11199   2.812   2.265  10.042  0.6662 -0.6778 -0.6238
  109OSM    H7S11200   2.794   2.372  10.067  2.4534 -0.2522 -1.0722
  109OSM    H7T11201   2.718   2.206  10.039  0.6283 -0.8015  1.5982
  109OSM    C8S11202   2.896   2.249   9.905  0.9461  0.3848  0.1578
  109OSM    H8S11203   2.910   2.141   9.885  1.9992  1.0126 -2.9381
  109OSM    H8T11204   2.998   2.281   9.933  0.8082 -0.3387  1.5493
  109OSM    C9S11205   2.846   2.335   9.797  0.4715 -0.2571  0.4419
  109OSM    H9S11206   2.830   2.440   9.830  2.3605  0.8094 -1.7193
  109OSM    H9T11207   2.748   2.292   9.766  1.3474 -0.7830 -1.8112
  109OSM   C10S11208   2.937   2.329   9.677  0.1920 -0.3872 -0.2468
  109OSM   H10S11209   2.951   2.225   9.641 -1.9773 -0.4727 -1.0471
  109OSM   H10T11210   3.034   2.375   9.703 -0.5129  1.5782 -0.8953
  109OSM   C11S11211   2.880   2.410   9.557 -0.9966 -0.2054  0.7748
  109OSM   H11S11212   2.769   2.413   9.548 -0.8577  0.7845 -1.0218
  109OSM   H11T11213   2.901   2.372   9.455 -3.0179  0.2391  0.1361
  109OSM   C12S11214   2.918   2.561   9.561  0.1375  0.3594 -0.8728
  109OSM   H12S11215   3.025   2.563   9.531  0.8769  0.9657  1.5831
  109OSM   H12T11216   2.895   2.612   9.657  1.2209  0.3420 -0.5902
  109OSM   C13S11217   2.846   2.652   9.464 -0.1361  0.7895  0.0931
  109OSM   H13S11218   2.742   2.670   9.501 -0.1805  2.2996 -0.7004
  109OSM   H13T11219   2.836   2.598   9.368 -0.0060 -2.0811  1.5973
  109OSM   C14S11220   2.928   2.782   9.432 -0.3585 -0.0822 -0.0727
  109OSM   H14S11221   3.020   2.759   9.373 -0.3907  1.7388 -0.9040
  109OSM   H14T11222   2.955   2.844   9.519  3.1164  0.8771 -1.6569
  109OSM   C15S11223   2.847   2.865   9.341  0.3647  0.8259 -0.2636
  109OSM   H15S11224   2.760   2.897   9.403 -1.1023 -1.2921 -1.1216
  109OSM   H15T11225   2.805   2.798   9.263  1.8361  0.2120 -0.5579
  109OSM   C16S11226   2.926   2.984   9.290  0.0021  0.3121 -1.2338
  109OSM   H16S11227   3.002   2.940   9.222 -1.1592 -5.4665  0.6077
  109OSM   H16T11228   2.978   3.050   9.363 -0.3070 -0.4784 -0.2712
  109OSM   C17S11229   2.832   3.088   9.217 -0.3597 -0.4641  0.3219
  109OSM   H17S11230   2.772   3.135   9.298  0.5937 -0.2257  0.9044
  109OSM   H17T11231   2.776   3.017   9.153  3.6550 -3.3250 -0.4018
  109OSM   C18S11232   2.912   3.183   9.132 -0.3840  0.1798  0.1276
  109OSM   H18S11233   3.010   3.214   9.174  0.2131  1.4381 -2.0312
  109OSM   H18T11234   2.849   3.274   9.118 -1.5163 -0.9164 -2.5847
  109OSM   H18U11235   2.926   3.144   9.029 -1.3430  3.5847 -1.4399
  109OSM    C1F11236   2.838   2.603  10.610  0.1646 -0.2017  0.7652
  109OSM     OF11237   2.911   2.619  10.705  0.2774 -0.0549 -0.5326
  109OSM    C2F11238   2.795   2.723  10.531 -0.0943  0.2336 -0.0316
  109OSM    H2F11239   2.701   2.765  10.574 -1.5262 -1.6440 -1.1621
  109OSM    H2G11240   2.768   2.683  10.431  0.2769 -1.7119  0.5863
  109OSM    C3F11241   2.906   2.829  10.524  0.5535 -0.1991  0.4771
  109OSM    H3F11242   3.007   2.784  10.538  1.1801  0.7759 -0.6884
  109OSM    H3G11243   2.904   2.901  10.608  1.5116 -0.0623  0.3983
  109OSM    C4F11244   2.898   2.906  10.401  0.7663  0.6705  0.6684
  109OSM    H4F11245   2.803   2.963  10.398  1.3723  1.6617 -0.3296
  109OSM    H4G11246   2.896   2.838  10.314 -2.0933 -1.2547  2.1126
  109OSM    C5F11247   3.010   3.015  10.367 -0.4287  0.7508 -0.3246
  109OSM    H5F11248   3.099   2.948  10.372 -1.4823 -0.6569  0.6902
  109OSM    H5G11249   3.010   3.083  10.454 -2.4058  1.7457 -1.0356
  109OSM    C6F11250   2.986   3.108  10.254 -0.4465 -0.3086  0.4059
  109OSM    H6F11251   2.896   3.172  10.268  1.1657  1.6876  2.2599
  109OSM    H6G11252   2.984   3.046  10.161  1.3045 -2.4799  1.7244
  109OSM    C7F11253   3.106   3.207  10.233  0.1152  0.2872  0.6028
  109OSM    H7F11254   3.200   3.166  10.275  0.1762 -0.7422 -0.4710
  109OSM    H7G11255   3.077   3.299  10.288 -0.6299  0.3270  0.1565
  109OSM    C8F11256   3.125   3.243  10.079  0.2391  0.4440 -0.3920
  109OSM    H8F11257   3.032   3.264  10.023  0.9565  1.9619 -1.0973
  109OSM    H8G11258   3.157   3.145  10.038 -2.9317  0.4873 -3.4316
  109OSM    C9F11259   3.221   3.357  10.052  0.0235 -0.1907 -0.2373
  109OSM    H9F11260   3.278   3.406  10.132 -0.9627 -0.1320  0.4424
  109OSM   C10F11261   3.219   3.421   9.936 -0.4193  0.6428 -0.5470
  109OSM   H10F11262   3.290   3.505   9.935  0.7989 -0.3443 -0.0248
  109OSM   C11F11263   3.136   3.384   9.810 -0.0786  0.1910 -0.6449
  109OSM   H11F11264   3.056   3.457   9.786  0.2389  1.0214  0.6979
  109OSM   H11G11265   3.100   3.280   9.821 -0.2818  0.3956  0.8476
  109OSM   C12F11266   3.243   3.381   9.698  0.0152 -0.1648  0.5732
  109OSM   H12F11267   3.304   3.289   9.709  1.0359  0.4546  0.2253
  109OSM   H12G11268   3.299   3.476   9.707 -0.3632  0.0853  0.3377
  109OSM   C13F11269   3.172   3.385   9.564  0.7952  0.1754  0.5715
  109OSM   H13F11270   3.119   3.481   9.548  0.3951 -0.1746 -0.2341
  109OSM   H13G11271   3.108   3.296   9.545  1.0183 -0.3879  2.2980
  109OSM   C14F11272   3.277   3.384   9.449  0.5118 -0.1362 -0.1312
  109OSM   H14F11273   3.352   3.305   9.467 -0.9507 -1.3538  0.7558
  109OSM   H14G11274   3.329   3.482   9.458  1.7568 -0.7071 -0.8602
  109OSM   C15F11275   3.220   3.380   9.305 -0.0195 -0.1804 -0.4531
  109OSM   H15F11276   3.123   3.435   9.299  0.5919  0.9106 -0.7043
  109OSM   H15G11277   3.205   3.273   9.281 -1.5221  0.1466 -1.0966
  109OSM   C16F11278   3.316   3.447   9.207 -0.2309 -0.5955 -0.2226
  109OSM   H16F11279   3.408   3.385   9.198  0.2346  0.2163 -1.2310
  109OSM   H16G11280   3.350   3.546   9.245  0.8802 -1.2063  0.4440
  109OSM   C17F11281   3.264   3.447   9.063  0.3106  0.1675 -0.4137
  109OSM   H17F11282   3.325   3.521   9.008  2.1706 -0.4948  0.6535
  109OSM   H17G11283   3.160   3.487   9.062  1.3855  3.2640 -1.6125
  109OSM   C18F11284   3.269   3.320   8.993 -0.6126 -0.6808  0.3676
  109OSM   H18F11285   3.373   3.280   8.993 -0.1404  0.3702 -2.2022
  109OSM   H18G11286   3.242   3.339   8.887 -3.0663  1.4900  1.2733
  109OSM   H18H11287   3.203   3.240   9.035 -1.4684  0.6918  1.7645
  110OSM      N11288   5.634   0.880  11.223  0.0348  0.4972 -0.6107
  110OSM    C1511289   5.740   0.977  11.233 -0.8231  0.1639  0.3803
  110OSM   H15A11290   5.804   0.959  11.318 -1.1177  0.6221  0.7067
  110OSM   H15B11291   5.704   1.078  11.249 -0.5137  0.4788 -0.8104
  110OSM   H15C11292   5.793   0.981  11.139 -1.3747  1.3187  0.0907
  110OSM    C1411293   5.673   0.736  11.221 -0.8044 -0.2245  0.2297
  110OSM   H14A11294   5.577   0.686  11.220 -1.4423  0.9465  0.3074
  110OSM   H14B11295   5.729   0.708  11.308 -1.0239  1.8729  1.1100
  110OSM   H14C11296   5.730   0.711  11.132 -0.7637  3.0059 -0.7914
  110OSM    C1311297   5.547   0.895  11.348  0.3420  0.1008  0.3791
  110OSM   H13A11298   5.594   0.874  11.442 -2.0272  1.2754  1.9213
  110OSM   H13B11299   5.466   0.825  11.333 -0.9627  2.0260 -2.6168
  110OSM   H13C11300   5.516   0.998  11.350 -0.5034 -0.1420  0.3344
  110OSM    C1211301   5.557   0.911  11.098  0.3494 -0.4722  0.0699
  110OSM   H12A11302   5.465   0.856  11.085  0.9088 -1.0594 -1.7196
  110OSM   H12B11303   5.614   0.879  11.011 -2.4479  0.3338 -2.2125
  110OSM    C1111304   5.517   1.064  11.066  0.1928 -0.7299 -0.3623
  110OSM   H11A11305   5.476   1.081  10.964  0.7153 -2.0619 -0.8155
  110OSM   H11B11306   5.607   1.128  11.056  1.0091 -1.7582  0.1815
  110OSM      P11307   5.289   1.130  11.160  0.0912 -0.3507 -0.1436
  110OSM    O1311308   5.231   0.997  11.129 -0.1697  0.3643 -0.3222
  110OSM    O1411309   5.247   1.198  11.285  0.3174 -0.2661 -0.4545
  110OSM    O1111310   5.256   1.224  11.042  0.1028  0.4059 -0.0805
  110OSM    O1211311   5.439   1.118  11.171 -0.0808  0.0308  0.1853
  110OSM    C1S11312   5.312   1.351  11.042 -0.1184 -0.1951 -0.0412
  110OSM    H1S11313   5.421   1.343  11.062 -0.1090 -1.1101 -0.4522
  110OSM    H1T11314   5.262   1.414  11.120 -0.0762 -1.8426  1.3782
  110OSM     NF11315   5.390   1.533  10.881  0.0633 -0.6812  0.3620
  110OSM    HNF11316   5.345   1.621  10.889  0.5659 -0.4459  0.6131
  110OSM    C2S11317   5.292   1.424  10.906  0.4834  0.6459  0.8589
  110OSM    H2S11318   5.305   1.348  10.826 -2.2297  1.0562 -0.0831
  110OSM    C3S11319   5.152   1.464  10.892  0.7544 -0.2863  0.6553
  110OSM    H3S11320   5.120   1.545  10.961 -0.1964  1.5147 -1.7565
  110OSM     O311321   5.049   1.366  10.919 -0.7457  0.5642 -0.2315
  110OSM    HO311322   5.103   1.301  10.964 -0.7064  1.4745  1.0650
  110OSM    C4S11323   5.121   1.517  10.755 -0.9084 -0.2191 -0.2706
  110OSM    H4S11324   5.138   1.626  10.756  2.2745 -0.6136 -1.0546
  110OSM    C5S11325   5.094   1.444  10.646 -0.1848 -0.5472  0.0592
  110OSM    H5S11326   5.098   1.334  10.651 -1.2041 -0.6811 -1.5074
  110OSM    C6S11327   5.071   1.507  10.517  0.0044  0.2579 -0.0375
  110OSM    H6S11328   5.112   1.609  10.503  0.2346  0.5160  2.2214
  110OSM    H6T11329   4.966   1.504  10.480 -0.6043  1.5350  1.4391
  110OSM    C7S11330   5.149   1.429  10.396 -0.2523 -0.0796 -0.5838
  110OSM    H7S11331   5.116   1.323  10.382  2.0639 -0.5506 -3.6403
  110OSM    H7T11332   5.256   1.439  10.426  0.1794  2.1200 -2.5422
  110OSM    C8S11333   5.116   1.503  10.265 -0.1809  0.2025 -0.0979
  110OSM    H8S11334   5.137   1.611  10.278 -2.3311  0.3682  3.2520
  110OSM    H8T11335   5.006   1.489  10.260 -0.0584 -1.4469  0.9274
  110OSM    C9S11336   5.178   1.445  10.133 -0.4933 -0.1487 -0.0986
  110OSM    H9S11337   5.134   1.345  10.113 -0.6749  0.2229 -1.7537
  110OSM    H9T11338   5.289   1.434  10.132 -0.3311  1.2405  0.5832
  110OSM   C10S11339   5.147   1.535  10.013 -0.0168 -0.7934  0.0913
  110OSM   H10S11340   5.213   1.623  10.027  0.0527 -1.2633  3.8386
  110OSM   H10T11341   5.039   1.560  10.023 -0.1046  0.0087 -2.2753
  110OSM   C11S11342   5.170   1.465   9.884  0.1547  0.5853 -0.0870
  110OSM   H11S11343   5.124   1.364   9.890  0.4965  0.3584 -1.1216
  110OSM   H11T11344   5.280   1.453   9.878  0.1026 -0.7329  1.1505
  110OSM   C12S11345   5.100   1.540   9.765 -0.3793 -0.3410 -0.1340
  110OSM   H12S11346   5.163   1.626   9.734  0.4611  0.6564  3.7722
  110OSM   H12T11347   5.007   1.583   9.809  0.0106 -0.1706  0.5416
  110OSM   C13S11348   5.062   1.453   9.646  0.8944 -0.0515  0.1580
  110OSM   H13S11349   5.014   1.524   9.576  0.1319 -0.4438  0.2701
  110OSM   H13T11350   4.982   1.382   9.676  0.8729 -0.5864 -1.0966
  110OSM   C14S11351   5.184   1.373   9.581  0.7130 -0.2081 -0.3482
  110OSM   H14S11352   5.233   1.307   9.656  0.7278 -2.5647 -2.3075
  110OSM   H14T11353   5.251   1.456   9.551  0.8020 -0.3490 -0.5401
  110OSM   C15S11354   5.145   1.306   9.458 -0.9099 -0.4717 -0.4948
  110OSM   H15S11355   5.058   1.240   9.477 -0.8413 -0.3392  0.3021
  110OSM   H15T11356   5.224   1.237   9.421 -1.2070 -0.5707 -0.9438
  110OSM   C16S11357   5.104   1.402   9.345  0.0810  0.5006  0.4564
  110OSM   H16S11358   5.178   1.475   9.308  1.2488 -0.1826  1.3969
  110OSM   H16T11359   5.009   1.453   9.374 -0.6240 -0.0875 -0.7439
  110OSM   C17S11360   5.070   1.309   9.227  0.1152  0.6764 -0.2372
  110OSM   H17S11361   5.003   1.224   9.253  1.0045  0.6810  2.3843
  110OSM   H17T11362   5.166   1.262   9.198  0.9168  2.1501 -0.0698
  110OSM   C18S11363   5.023   1.390   9.108 -0.4596 -0.2394 -0.7724
  110OSM   H18S11364   4.925   1.438   9.129  0.2094  1.2148 -0.8318
  110OSM   H18T11365   5.016   1.331   9.015 -1.4801 -0.0906 -0.7959
  110OSM   H18U11366   5.086   1.480   9.094 -2.7861  1.3870 -1.4085
  110OSM    C1F11367   5.520   1.511  10.864  0.2828 -0.0092 -0.4440
  110OSM     OF11368   5.577   1.412  10.905  0.0920 -0.0969  0.4685
  110OSM    C2F11369   5.607   1.627  10.824 -0.1140 -0.7660  0.8234
  110OSM    H2F11370   5.717   1.606  10.826  0.0668 -0.2006 -1.0711
  110OSM    H2G11371   5.593   1.705  10.902  0.4301  1.5413 -1.2657
  110OSM    C3F11372   5.568   1.677  10.681  0.0319  0.6777  0.3059
  110OSM    H3F11373   5.622   1.772  10.661 -0.4674  1.1245  1.0266
  110OSM    H3G11374   5.461   1.707  10.681 -0.5601 -1.2373  1.1911
  110OSM    C4F11375   5.599   1.593  10.564  0.7336  0.1111 -0.9326
  110OSM    H4F11376   5.587   1.485  10.589 -0.2886  0.2981 -0.5764
  110OSM    H4G11377   5.707   1.610  10.547  0.9261 -0.2743 -0.1566
  110OSM    C5F11378   5.536   1.635  10.433  0.1245 -0.4940 -0.9904
  110OSM    H5F11379   5.561   1.743  10.437  1.4060 -0.7775 -0.6443
  110OSM    H5G11380   5.425   1.634  10.438  0.0085  3.2233  0.9104
  110OSM    C6F11381   5.598   1.581  10.312 -0.1873 -0.2442 -0.4777
  110OSM    H6F11382   5.589   1.470  10.306  0.1294 -0.1885 -2.2429
  110OSM    H6G11383   5.708   1.588  10.324 -0.0990 -1.7630 -0.0886
  110OSM    C7F11384   5.560   1.658  10.187  0.5436  0.6730 -0.6844
  110OSM    H7F11385   5.577   1.762  10.220 -2.3032  0.7282  0.9016
  110OSM    H7G11386   5.450   1.653  10.177  0.5801 -0.9346 -0.5718
  110OSM    C8F11387   5.622   1.634  10.046 -0.5900 -0.1759 -0.0508
  110OSM    H8F11388   5.733   1.637  10.056 -0.6183  0.7635  0.0033
  110OSM    H8G11389   5.587   1.729  10.001  0.5041  0.6310  0.7578
  110OSM    C9F11390   5.585   1.513   9.960  0.4398 -0.4475 -1.1327
  110OSM    H9F11391   5.596   1.410   9.996 -2.0395 -1.0244 -1.8290
  110OSM   C10F11392   5.542   1.519   9.834 -0.4895 -0.2664 -0.8247
  110OSM   H10F11393   5.507   1.423   9.794  1.1133 -1.8913  1.4643
  110OSM   C11F11394   5.515   1.637   9.751  0.6718 -0.1448  0.7478
  110OSM   H11F11395   5.557   1.728   9.800 -0.6434  1.1112 -0.3587
  110OSM   H11G11396   5.406   1.637   9.731  0.8112  0.1590 -0.0796
  110OSM   C12F11397   5.581   1.647   9.610 -0.2941 -0.0568 -1.0900
  110OSM   H12F11398   5.688   1.618   9.624 -0.6340 -0.3630  1.4203
  110OSM   H12G11399   5.585   1.755   9.586 -0.0677  0.4956  1.1462
  110OSM   C13F11400   5.513   1.570   9.495 -0.2138 -0.4567 -0.5283
  110OSM   H13F11401   5.486   1.471   9.539  0.2110  0.4128  1.8339
  110OSM   H13G11402   5.594   1.555   9.421 -0.4934  1.1312 -1.1775
  110OSM   C14F11403   5.389   1.638   9.430  0.4765 -0.1285 -0.7045
  110OSM   H14F11404   5.320   1.664   9.513  1.1782 -1.6677  0.3991
  110OSM   H14G11405   5.343   1.559   9.366 -0.3953 -0.8181  0.7379
  110OSM   C15F11406   5.425   1.755   9.332  0.3054 -1.3430  0.4621
  110OSM   H15F11407   5.490   1.716   9.251  1.0704  0.8098 -0.0339
  110OSM   H15G11408   5.495   1.825   9.384 -1.4561 -0.3723  1.6346
  110OSM   C16F11409   5.306   1.830   9.271  0.1588 -1.1759  0.8212
  110OSM   H16F11410   5.344   1.915   9.211 -1.3242 -0.2695  1.1199
  110OSM   H16G11411   5.252   1.877   9.356  0.2873  1.4724 -0.4640
  110OSM   C17F11412   5.211   1.738   9.187 -0.3235  0.2540 -0.0914
  110OSM   H17F11413   5.253   1.637   9.163 -0.1505 -0.1629  1.8013
  110OSM   H17G11414   5.188   1.780   9.087 -1.4680 -0.0699  0.0199
  110OSM   C18F11415   5.073   1.728   9.263 -0.4786  0.5498 -0.4203
  110OSM   H18F11416   5.095   1.694   9.366 -1.7570  1.6359  0.2273
  110OSM   H18G11417   5.008   1.649   9.221 -2.2038  1.2986  0.7401
  110OSM   H18H11418   5.019   1.825   9.269  0.1492  0.8658  0.4610
  111OSM      N11419   5.382   5.787  10.961 -0.3206  0.3720  0.6818
  111OSM    C1511420   5.387   5.925  11.024 -0.5900  0.8334 -0.3977
  111OSM   H15A11421   5.375   5.998  10.944  0.2100 -1.3445 -2.6423
  111OSM   H15B11422   5.487   5.945  11.059 -0.6689  1.0533 -0.2986
  111OSM   H15C11423   5.313   5.939  11.101 -0.4046 -1.4197  0.2557
  111OSM    C1411424   5.406   5.685  11.068 -0.5240 -0.1269  0.3955
  111OSM   H14A11425   5.429   5.587  11.028  1.8376 -0.5588  2.5149
  111OSM   H14B11426   5.333   5.681  11.147 -0.6407  3.0030  0.5786
  111OSM   H14C11427   5.501   5.705  11.117 -0.9952  1.0691  0.8614
  111OSM    C1311428   5.239   5.772  10.900 -0.3425  0.3660 -0.4905
  111OSM   H13A11429   5.216   5.670  10.872  3.0715 -0.8728  0.8231
  111OSM   H13B11430   5.230   5.834  10.812  0.1792  1.1056 -0.0373
  111OSM   H13C11431   5.158   5.791  10.970 -1.0636 -1.7762 -0.6618
  111OSM    C1211432   5.499   5.772  10.856 -0.4540 -0.1213  0.6805
  111OSM   H12A11433   5.518   5.668  10.838 -2.3300 -0.4065  0.1298
  111OSM   H12B11434   5.590   5.808  10.901  0.0259 -1.3762  0.7275
  111OSM    C1111435   5.489   5.836  10.720 -0.1761 -0.8293  0.3775
  111OSM   H11A11436   5.394   5.824  10.665  0.4827 -0.9305 -0.7748
  111OSM   H11B11437   5.551   5.777  10.649  0.7960 -1.3260  1.5907
  111OSM      P11438   5.668   6.030  10.714 -0.1565  0.0274 -0.2160
  111OSM    O1311439   5.682   6.142  10.806  0.2306  0.0957  0.1766
  111OSM    O1411440   5.760   5.914  10.730  0.3758  0.5774  0.3064
  111OSM    O1111441   5.677   6.081  10.563  0.2247 -0.4811  0.1138
  111OSM    O1211442   5.520   5.970  10.726  0.5844  0.1825 -0.0178
  111OSM    C1S11443   5.632   6.219  10.545 -0.4403 -0.3781  0.5606
  111OSM    H1S11444   5.708   6.284  10.594  0.5829 -0.9268 -0.2690
  111OSM    H1T11445   5.537   6.235  10.601 -0.5728  0.0024  0.2300
  111OSM     NF11446   5.537   6.381  10.393  0.6047  0.0282 -0.6612
  111OSM    HNF11447   5.442   6.350  10.386  0.7393 -1.8384  3.1311
  111OSM    C2S11448   5.617   6.268  10.394  0.3732 -0.1248 -0.0580
  111OSM    H2S11449   5.721   6.296  10.366  0.5896 -1.3157 -0.4771
  111OSM    C3S11450   5.573   6.150  10.307  0.3554  0.1978 -0.6617
  111OSM    H3S11451   5.485   6.097  10.350  1.1218 -2.4520 -2.0810
  111OSM     O311452   5.675   6.047  10.305 -0.2316 -0.5361 -0.1036
  111OSM    HO311453   5.701   6.057  10.397 -0.6306 -0.7959  0.0357
  111OSM    C4S11454   5.552   6.194  10.165 -0.5003  0.2846  0.0461
  111OSM    H4S11455   5.650   6.206  10.116  0.1353 -1.8279  0.7097
  111OSM    C5S11456   5.431   6.211  10.096 -0.2153  0.0967 -0.0137
  111OSM    H5S11457   5.340   6.173  10.145  0.0148  0.6122  0.8398
  111OSM    C6S11458   5.413   6.247   9.948  0.0840  0.2957 -0.3453
  111OSM    H6S11459   5.408   6.357   9.940  1.2538  0.2945 -1.6369
  111OSM    H6T11460   5.314   6.206   9.920 -0.3127  0.0797  1.2740
  111OSM    C7S11461   5.517   6.184   9.855  0.3724 -0.4173  0.2187
  111OSM    H7S11462   5.494   6.076   9.847 -0.4127 -0.2630  0.2545
  111OSM    H7T11463   5.613   6.198   9.908 -0.9499  2.9315  2.0823
  111OSM    C8S11464   5.510   6.245   9.724 -0.3932  0.4580  0.5283
  111OSM    H8S11465   5.526   6.354   9.737 -0.1550  0.2688  1.9780
  111OSM    H8T11466   5.404   6.235   9.690 -0.3755  1.4591  0.1258
  111OSM    C9S11467   5.613   6.174   9.622 -0.1584 -0.0316  0.2817
  111OSM    H9S11468   5.610   6.063   9.628 -0.7522  0.0005  0.6602
  111OSM    H9T11469   5.720   6.201   9.632  0.3021 -0.9168 -1.7625
  111OSM   C10S11470   5.559   6.203   9.474 -0.4788 -0.0222  0.1607
  111OSM   H10S11471   5.521   6.306   9.486 -2.3165 -0.9789  4.0563
  111OSM   H10T11472   5.477   6.131   9.452  0.7400 -1.7068  0.8863
  111OSM   C11S11473   5.667   6.185   9.361  0.1212 -0.2455  0.5157
  111OSM   H11S11474   5.706   6.082   9.356  0.6050 -0.0556  0.3350
  111OSM   H11T11475   5.753   6.253   9.380  0.9722 -0.5250 -2.0311
  111OSM   C12S11476   5.609   6.235   9.226 -0.1320  0.7157 -0.4949
  111OSM   H12S11477   5.545   6.149   9.196  2.1685 -1.8192  1.2406
  111OSM   H12T11478   5.691   6.232   9.150  0.0049  0.9617 -0.3579
  111OSM   C13S11479   5.532   6.371   9.226 -0.1713 -0.0099 -0.4094
  111OSM   H13S11480   5.579   6.433   9.306 -1.2922  0.5412 -0.1490
  111OSM   H13T11481   5.431   6.353   9.268  0.3124  0.6245  1.0986
  111OSM   C14S11482   5.520   6.419   9.088  0.7598 -0.6345 -0.6136
  111OSM   H14S11483   5.628   6.440   9.072  0.3103  2.3427 -0.2735
  111OSM   H14T11484   5.466   6.516   9.091 -2.9638 -2.5510  0.4914
  111OSM   C15S11485   5.468   6.335   8.977  0.6644 -0.0431  0.0347
  111OSM   H15S11486   5.532   6.247   8.954  1.3510  0.8601 -1.6454
  111OSM   H15T11487   5.460   6.398   8.886 -0.9457 -1.2824 -0.7403
  111OSM   C16S11488   5.319   6.276   8.999 -0.1639  0.3475 -0.6613
  111OSM   H16S11489   5.251   6.350   9.046 -0.3158 -0.8980  1.1997
  111OSM   H16T11490   5.319   6.200   9.080 -3.0115 -0.8622 -1.6751
  111OSM   C17S11491   5.252   6.207   8.880  0.2551  0.6015  0.4710
  111OSM   H17S11492   5.154   6.165   8.908  0.3415  0.1172  0.0495
  111OSM   H17T11493   5.313   6.118   8.853 -0.6541 -0.8278  2.8592
  111OSM   C18S11494   5.230   6.300   8.758 -0.4026 -0.4178  1.1460
  111OSM   H18S11495   5.186   6.397   8.790 -1.0636 -0.7115  1.1500
  111OSM   H18T11496   5.151   6.259   8.692 -1.2471 -1.9686  3.0261
  111OSM   H18U11497   5.323   6.318   8.701 -1.2586  0.3494 -0.0518
  111OSM    C1F11498   5.575   6.499  10.443 -0.8247 -0.5055  0.4217
  111OSM     OF11499   5.690   6.525  10.477 -0.6192  0.5004  0.1697
  111OSM    C2F11500   5.480   6.608  10.426 -0.3500  0.2429  0.2844
  111OSM    H2F11501   5.469   6.645  10.530  3.1831 -1.7264  1.5375
  111OSM    H2G11502   5.384   6.568  10.387  0.5643  0.6924 -2.6606
  111OSM    C3F11503   5.544   6.709  10.325 -0.0998 -0.3136 -0.3449
  111OSM    H3F11504   5.634   6.767  10.355 -0.6297 -0.9255  2.7388
  111OSM    H3G11505   5.467   6.789  10.328  0.2543  0.0022  0.6088
  111OSM    C4F11506   5.561   6.650  10.179 -0.2504 -0.3694 -0.2954
  111OSM    H4F11507   5.478   6.580  10.153 -0.9458 -0.6067  2.2567
  111OSM    H4G11508   5.658   6.601  10.155 -0.5775  0.3311 -3.5161
  111OSM    C5F11509   5.574   6.772  10.075  0.6835  0.3249 -0.2776
  111OSM    H5F11510   5.657   6.837  10.111 -0.7892  1.2677  1.6111
  111OSM    H5G11511   5.490   6.844  10.067  0.8781  0.5964  0.0783
  111OSM    C6F11512   5.609   6.736   9.930 -0.1855  0.5360  0.1449
  111OSM    H6F11513   5.551   6.645   9.902  1.0740  0.2219 -1.5992
  111OSM    H6G11514   5.713   6.700   9.940 -0.2323  0.3904  0.1241
  111OSM    C7F11515   5.597   6.841   9.818  0.0260  0.5499 -0.2442
  111OSM    H7F11516   5.637   6.931   9.870 -0.5449  0.7092 -0.0764
  111OSM    H7G11517   5.491   6.863   9.796 -0.4945  1.0250  2.3710
  111OSM    C8F11518   5.678   6.800   9.694 -0.6172 -0.1673 -0.1974
  111OSM    H8F11519   5.640   6.700   9.662 -0.3219 -0.0829 -0.8380
  111OSM    H8G11520   5.787   6.789   9.714 -0.4934 -0.0706 -0.7799
  111OSM    C9F11521   5.663   6.905   9.589  0.7361  0.1404  0.8127
  111OSM    H9F11522   5.676   7.009   9.622 -0.9618  1.4931 -2.3330
  111OSM   C10F11523   5.622   6.884   9.462  0.9658 -0.6311  0.1333
  111OSM   H10F11524   5.605   6.972   9.399  1.8494  0.7582  1.7335
  111OSM   C11F11525   5.588   6.755   9.398  0.6353  0.0434  0.1748
  111OSM   H11F11526   5.477   6.750   9.395  0.6939 -1.9146  0.0286
  111OSM   H11G11527   5.622   6.664   9.451  0.5648 -1.0596 -1.5880
  111OSM   C12F11528   5.634   6.744   9.254 -0.4856 -0.2363 -0.0259
  111OSM   H12F11529   5.640   6.638   9.220 -0.1686  0.2203 -1.5005
  111OSM   H12G11530   5.734   6.792   9.241 -0.8456  1.9240  3.8588
  111OSM   C13F11531   5.536   6.811   9.155  0.3523 -0.2425  0.5557
  111OSM   H13F11532   5.551   6.917   9.185  0.7339  0.5141 -2.0111
  111OSM   H13G11533   5.433   6.773   9.169  0.0706 -0.5019 -1.7460
  111OSM   C14F11534   5.573   6.790   9.009  0.0530  0.2764 -0.1834
  111OSM   H14F11535   5.563   6.682   8.985 -0.1459  0.7793 -2.6204
  111OSM   H14G11536   5.678   6.818   8.985  0.6092 -0.9666  0.6900
  111OSM   C15F11537   5.474   6.858   8.916 -0.3243  0.0844  0.0490
  111OSM   H15F11538   5.490   6.968   8.921 -2.7340  0.5589 -1.2293
  111OSM   H15G11539   5.369   6.836   8.947  0.2662 -2.0577  0.6820
  111OSM   C16F11540   5.491   6.826   8.764 -0.9246 -0.2938  0.1861
  111OSM   H16F11541   5.400   6.875   8.725 -1.0313 -1.1933 -0.7348
  111OSM   H16G11542   5.490   6.719   8.737 -0.9021 -0.6221  1.4490
  111OSM   C17F11543   5.617   6.892   8.691  0.1585  0.1409  0.0534
  111OSM   H17F11544   5.711   6.866   8.745  0.3457 -0.0372 -0.3519
  111OSM   H17G11545   5.619   7.003   8.698  1.2130  0.1780 -0.6077
  111OSM   C18F11546   5.633   6.847   8.541 -0.2152  0.2590  0.2983
  111OSM   H18F11547   5.645   6.738   8.552  0.6345  0.5688  3.4732
  111OSM   H18G11548   5.716   6.907   8.498  0.3814  0.2735  1.4325
  111OSM   H18H11549   5.540   6.878   8.489  0.6705 -1.2875 -2.4032
  112OSM      N11550   3.672   2.199  11.211  0.3473  0.2112  0.0308
  112OSM    C1511551   3.759   2.142  11.323  0.5057  0.7196  0.4015
  112OSM   H15A11552   3.864   2.134  11.297  0.3918 -2.2280  0.6013
  112OSM   H15B11553   3.728   2.042  11.350  2.1909  0.3991  1.2887
  112OSM   H15C11554   3.737   2.196  11.414  1.0256  1.2038  0.2491
  112OSM    C1411555   3.670   2.120  11.092  0.9901  0.4745 -0.2536
  112OSM   H14A11556   3.629   2.183  11.014  0.5062  0.3878 -0.0701
  112OSM   H14B11557   3.598   2.041  11.110  0.1795  1.1115 -0.6223
  112OSM   H14C11558   3.765   2.082  11.058  1.9177  2.4833 -0.0931
  112OSM    C1311559   3.536   2.212  11.272  0.3216  0.1584  0.4253
  112OSM   H13A11560   3.498   2.117  11.309  1.2206 -0.5888 -0.5379
  112OSM   H13B11561   3.473   2.258  11.198  0.3061  0.5441  0.6729
  112OSM   H13C11562   3.543   2.278  11.358 -1.6116 -1.9908  2.3817
  112OSM    C1211563   3.729   2.334  11.174 -0.0482 -0.3223  0.2603
  112OSM   H12A11564   3.828   2.318  11.134 -0.8393  0.1785 -2.0330
  112OSM   H12B11565   3.743   2.387  11.267 -1.3054  0.6888 -0.1021
  112OSM    C1111566   3.649   2.431  11.075 -0.3691 -0.0690 -0.9774
  112OSM   H11A11567   3.697   2.530  11.090  0.1223 -0.5920  1.4545
  112OSM   H11B11568   3.543   2.442  11.104  0.2341 -1.5078  2.2881
  112OSM      P11569   3.801   2.388  10.873 -0.2517 -0.1457  0.1539
  112OSM    O1311570   3.896   2.466  10.957  0.3409 -0.3613 -0.2660
  112OSM    O1411571   3.835   2.246  10.841  0.4421 -0.4584 -0.0085
  112OSM    O1111572   3.778   2.469  10.734 -0.1410  0.5625  0.0015
  112OSM    O1211573   3.662   2.391  10.943 -0.0430 -0.1064  1.0626
  112OSM    C1S11574   3.668   2.564  10.721  0.9957 -0.0927  0.2599
  112OSM    H1S11575   3.698   2.661  10.766 -0.1940  0.3843  0.0694
  112OSM    H1T11576   3.572   2.538  10.771  0.7046  1.2810  0.4637
  112OSM     NF11577   3.530   2.700  10.568  0.4078 -0.1935 -0.1228
  112OSM    HNF11578   3.441   2.669  10.536  1.4884 -0.6060 -3.0401
  112OSM    C2S11579   3.635   2.603  10.577  0.1870  0.2655 -0.3022
  112OSM    H2S11580   3.729   2.648  10.538 -1.2099  2.5750 -1.2452
  112OSM    C3S11581   3.614   2.478  10.479 -0.3602 -0.1355 -0.2020
  112OSM    H3S11582   3.528   2.422  10.522  0.2668 -1.8055 -1.0410
  112OSM     O311583   3.710   2.374  10.488 -0.0269 -0.1670 -0.1418
  112OSM    HO311584   3.756   2.386  10.572 -1.3389  1.2300  0.4064
  112OSM    C4S11585   3.600   2.502  10.332  0.3338  0.1925  0.8047
  112OSM    H4S11586   3.499   2.480  10.295  0.8145 -0.1001 -0.4172
  112OSM    C5S11587   3.695   2.537  10.242 -0.0244  0.3149 -0.0466
  112OSM    H5S11588   3.796   2.553  10.280 -0.2849 -0.6863  1.1427
  112OSM    C6S11589   3.657   2.564  10.099  0.0500 -0.1090 -0.6702
  112OSM    H6S11590   3.680   2.671  10.080 -1.6604  0.3688 -0.2941
  112OSM    H6T11591   3.547   2.555  10.084  0.2072 -0.7111 -1.5125
  112OSM    C7S11592   3.734   2.486   9.990  0.2222 -0.2966  0.0896
  112OSM    H7S11593   3.708   2.379   9.981  1.8201 -0.5724 -2.0682
  112OSM    H7T11594   3.842   2.483  10.018  0.1342  1.6701  0.7940
  112OSM    C8S11595   3.709   2.554   9.848 -0.7312 -0.3559  0.2524
  112OSM    H8S11596   3.600   2.532   9.837 -0.5119 -1.6222  0.3801
  112OSM    H8T11597   3.760   2.486   9.777  0.6374  0.1007  0.7681
  112OSM    C9S11598   3.733   2.700   9.831  0.0853 -0.0554  0.9373
  112OSM    H9S11599   3.833   2.730   9.867  0.2711 -0.7378  1.0079
  112OSM    H9T11600   3.660   2.751   9.897  0.2095  1.6045 -0.1368
  112OSM   C10S11601   3.697   2.761   9.691 -0.0855  0.0898 -0.2222
  112OSM   H10S11602   3.713   2.871   9.690  1.0252 -0.0512  0.2083
  112OSM   H10T11603   3.590   2.744   9.667  0.1924 -3.0766  0.3313
  112OSM   C11S11604   3.775   2.700   9.566  0.4416 -0.2169 -0.0244
  112OSM   H11S11605   3.717   2.610   9.536  0.0991 -0.5196  1.4604
  112OSM   H11T11606   3.871   2.660   9.605  0.3245  1.4221  2.1259
  112OSM   C12S11607   3.792   2.797   9.449  0.8299  0.3159 -0.4677
  112OSM   H12S11608   3.691   2.828   9.415  0.5098  0.2059  0.3625
  112OSM   H12T11609   3.826   2.739   9.360 -0.4791 -2.6003  0.8082
  112OSM   C13S11610   3.889   2.903   9.474  0.2997  0.3507 -0.1731
  112OSM   H13S11611   3.990   2.863   9.501 -0.0734  0.0405  0.8101
  112OSM   H13T11612   3.850   2.945   9.569 -1.0847  1.7335 -1.3087
  112OSM   C14S11613   3.893   3.007   9.365 -0.1469  0.6508 -0.2104
  112OSM   H14S11614   3.973   3.083   9.383 -0.5856  0.7655  1.4312
  112OSM   H14T11615   3.796   3.061   9.362  0.4289  1.6860 -1.6089
  112OSM   C15S11616   3.930   2.949   9.228 -0.0355  0.1190 -0.0212
  112OSM   H15S11617   3.846   2.884   9.196 -2.1474  2.5741  0.2178
  112OSM   H15T11618   4.020   2.884   9.227 -0.3168 -0.3666  2.0126
  112OSM   C16S11619   3.937   3.056   9.112  0.5300 -0.0431 -0.1815
  112OSM   H16S11620   4.028   3.118   9.122 -1.1794  2.4389  1.0475
  112OSM   H16T11621   3.849   3.122   9.132 -0.0227 -0.8994  0.2803
  112OSM   C17S11622   3.917   3.014   8.965 -0.0027  0.2304 -0.5249
  112OSM   H17S11623   3.820   2.959   8.955  1.0532 -1.9229  0.4243
  112OSM   H17T11624   3.998   2.948   8.927 -1.0908 -0.0382 -2.5168
  112OSM   C18S11625   3.917   3.138   8.870  0.3170  0.2591 -0.5014
  112OSM   H18S11626   3.891   3.113   8.766  0.6960  0.0319 -0.5452
  112OSM   H18T11627   4.021   3.178   8.868  0.8185 -0.7317  1.7126
  112OSM   H18U11628   3.855   3.217   8.916 -2.7579 -1.9646 -0.5346
  112OSM    C1F11629   3.552   2.818  10.619 -0.2702 -0.2080  0.8325
  112OSM     OF11630   3.662   2.857  10.667  0.2782  0.5678  0.4702
  112OSM    C2F11631   3.436   2.916  10.624 -0.0934  0.1907 -0.3462
  112OSM    H2F11632   3.410   2.928  10.731  2.5335 -0.1477  0.3990
  112OSM    H2G11633   3.350   2.865  10.576 -0.0582  0.6787 -0.9456
  112OSM    C3F11634   3.466   3.044  10.553 -0.1999  0.6574 -0.0854
  112OSM    H3F11635   3.546   3.105  10.600 -0.1748  0.0914  0.6331
  112OSM    H3G11636   3.372   3.100  10.567 -0.0586  1.0686 -0.7860
  112OSM    C4F11637   3.490   3.021  10.405 -0.5567  0.1317  0.4911
  112OSM    H4F11638   3.404   2.965  10.362 -0.2260  1.3572 -1.9079
  112OSM    H4G11639   3.582   2.960  10.395 -0.8692 -0.6989  2.1840
  112OSM    C5F11640   3.495   3.157  10.328 -1.1835  1.0617 -0.7070
  112OSM    H5F11641   3.593   3.202  10.355 -0.0547 -2.1409  1.1455
  112OSM    H5G11642   3.413   3.222  10.364  0.3997  2.8691 -0.2352
  112OSM    C6F11643   3.486   3.137  10.181  0.4297 -0.4890 -0.5591
  112OSM    H6F11644   3.481   3.236  10.131 -0.7994  0.6682  1.6933
  112OSM    H6G11645   3.398   3.080  10.145 -0.3507  1.0088 -1.1011
  112OSM    C7F11646   3.611   3.070  10.134  0.2640  0.1524  0.4474
  112OSM    H7F11647   3.605   2.965  10.168 -2.4724  0.3658  0.8406
  112OSM    H7G11648   3.692   3.128  10.182 -0.9904  0.4720  2.2709
  112OSM    C8F11649   3.629   3.091   9.981 -0.1932  0.3922  0.5485
  112OSM    H8F11650   3.580   3.188   9.956 -1.4154 -0.8776 -2.5561
  112OSM    H8G11651   3.571   3.005   9.940 -0.1437  0.0527  1.1740
  112OSM    C9F11652   3.774   3.097   9.937 -0.1928  0.7816  0.5236
  112OSM    H9F11653   3.833   3.017   9.984  0.3667  0.1892 -1.1046
  112OSM   C10F11654   3.831   3.171   9.845 -0.2172 -0.1993  0.7860
  112OSM   H10F11655   3.933   3.147   9.810 -1.9199 -2.5598 -3.1804
  112OSM   C11F11656   3.767   3.279   9.756 -0.0763 -0.5502 -0.9874
  112OSM   H11F11657   3.830   3.371   9.764 -0.3808 -0.4459  0.3872
  112OSM   H11G11658   3.666   3.304   9.795  0.5467 -0.7910  0.8598
  112OSM   C12F11659   3.767   3.252   9.608  1.0509  0.0339  0.0386
  112OSM   H12F11660   3.700   3.163   9.601  1.9947 -0.6984  0.1979
  112OSM   H12G11661   3.865   3.211   9.578  0.3416 -1.9060  0.1929
  112OSM   C13F11662   3.744   3.360   9.505 -0.0923 -0.1324 -0.7487
  112OSM   H13F11663   3.829   3.431   9.497  0.6612 -0.9598 -0.2676
  112OSM   H13G11664   3.660   3.427   9.534  1.2112  1.4320 -0.3669
  112OSM   C14F11665   3.723   3.307   9.366  0.2352  0.3734  0.3486
  112OSM   H14F11666   3.659   3.216   9.362  2.4048 -1.3606  1.9625
  112OSM   H14G11667   3.818   3.261   9.330 -0.7804 -1.5135 -0.0868
  112OSM   C15F11668   3.680   3.419   9.279 -0.6898  0.3262 -0.3535
  112OSM   H15F11669   3.746   3.508   9.287  1.2962 -1.1347  0.4075
  112OSM   H15G11670   3.579   3.443   9.318 -1.6378 -2.0077 -1.1585
  112OSM   C16F11671   3.658   3.383   9.136  0.3759 -0.0364  0.0347
  112OSM   H16F11672   3.585   3.303   9.116 -0.7990  1.2648 -1.0502
  112OSM   H16G11673   3.754   3.348   9.091 -0.3055 -0.6325 -0.9769
  112OSM   C17F11674   3.606   3.507   9.057  0.9327 -0.2986  0.6434
  112OSM   H17F11675   3.560   3.576   9.131 -0.0515  1.7691 -1.7691
  112OSM   H17G11676   3.532   3.479   8.980  0.5175 -3.4872  2.0338
  112OSM   C18F11677   3.719   3.588   8.989  0.2621  0.6437 -0.5068
  112OSM   H18F11678   3.681   3.677   8.935  0.2954  1.6248  1.0086
  112OSM   H18G11679   3.765   3.530   8.907 -1.1002  1.0159 -1.5624
  112OSM   H18H11680   3.792   3.619   9.067  1.4315  0.0319 -1.3378
  113OSM      N11681   5.216   4.213  10.948  0.5262  0.5207 -0.0953
  113OSM    C1511682   5.187   4.217  10.796  0.2618  0.2082 -0.3538
  113OSM   H15A11683   5.189   4.319  10.758  0.4554  0.4081  0.1862
  113OSM   H15B11684   5.092   4.169  10.777 -0.4160  0.8240  1.3207
  113OSM   H15C11685   5.264   4.170  10.737 -0.3711 -0.4282 -0.6990
  113OSM    C1411686   5.099   4.264  11.020  0.4275  0.1128  0.0893
  113OSM   H14A11687   5.114   4.286  11.124 -2.8353 -0.9427  0.8955
  113OSM   H14B11688   5.020   4.190  11.025  1.2673 -0.7255  2.1505
  113OSM   H14C11689   5.054   4.351  10.976 -0.5905 -0.2894  0.2956
  113OSM    C1311690   5.242   4.074  10.992 -0.9318  0.0897 -0.3777
  113OSM   H13A11691   5.294   4.019  10.915 -0.8058  0.6804 -0.7204
  113OSM   H13B11692   5.151   4.025  11.021 -0.4518  0.3547  1.8203
  113OSM   H13C11693   5.309   4.081  11.077 -1.2867  0.7180 -0.1449
  113OSM    C1211694   5.332   4.304  10.975 -0.5319  0.4944  0.0063
  113OSM   H12A11695   5.362   4.302  11.079 -0.0203  0.8054 -0.1288
  113OSM   H12B11696   5.305   4.407  10.956 -1.0680  0.8895  2.4816
  113OSM    C1111697   5.473   4.271  10.919  0.4792 -0.0419  0.5472
  113OSM   H11A11698   5.547   4.354  10.930  1.4505 -0.6385 -1.0853
  113OSM   H11B11699   5.450   4.259  10.811  0.5760 -0.8326  0.6140
  113OSM      P11700   5.646   4.070  10.927  0.1425 -0.2244 -0.4231
  113OSM    O1311701   5.764   4.149  10.967  0.1393 -0.2703  0.3690
  113OSM    O1411702   5.635   3.933  10.982 -0.0402 -0.3930  0.3900
  113OSM    O1111703   5.631   4.056  10.777  0.4337 -0.8241  0.2438
  113OSM    O1211704   5.519   4.150  10.967 -0.0224 -0.3784 -0.4643
  113OSM    C1S11705   5.523   3.990  10.712  0.1739 -0.0983 -0.7737
  113OSM    H1S11706   5.427   4.035  10.746  0.1415 -2.0529  2.0706
  113OSM    H1T11707   5.530   3.881  10.735  0.0867  0.1663  0.5618
  113OSM     NF11708   5.397   3.937  10.504  0.2189 -0.6866 -0.6326
  113OSM    HNF11709   5.392   3.838  10.492  2.3654 -0.9796  0.4469
  113OSM    C2S11710   5.519   3.999  10.554 -0.2730  0.0754 -1.3285
  113OSM    H2S11711   5.514   4.108  10.534 -0.1245  0.7125  1.5475
  113OSM    C3S11712   5.655   3.947  10.495  0.9177 -0.0658 -0.9790
  113OSM    H3S11713   5.672   3.840  10.521 -0.7418  0.1459  1.2198
  113OSM     O311714   5.764   4.014  10.551  0.4893  0.7366  0.3876
  113OSM    HO311715   5.735   4.044  10.637 -0.0482  0.5770  0.2660
  113OSM    C4S11716   5.681   3.976  10.350  0.1643 -0.3994 -0.0868
  113OSM    H4S11717   5.712   4.079  10.327  0.3539 -0.2452  0.8293
  113OSM    C5S11718   5.691   3.876  10.257 -0.1880 -0.8225 -0.0336
  113OSM    H5S11719   5.669   3.773  10.291 -2.4310 -0.0384  1.0993
  113OSM    C6S11720   5.724   3.921  10.111 -0.4029  1.0108  0.4419
  113OSM    H6S11721   5.831   3.904  10.088 -0.6459  1.1533 -0.8612
  113OSM    H6T11722   5.723   4.030  10.091  1.0777  0.9094 -0.2883
  113OSM    C7S11723   5.630   3.868  10.000 -0.0054 -0.0337 -0.4361
  113OSM    H7S11724   5.524   3.894  10.021  0.8126  1.4283  2.3530
  113OSM    H7T11725   5.633   3.757  10.004  0.1172 -0.1412 -2.6138
  113OSM    C8S11726   5.668   3.918   9.866 -0.1707 -0.1138  0.8077
  113OSM    H8S11727   5.772   3.890   9.839  0.0293  2.1079 -1.0440
  113OSM    H8T11728   5.654   4.028   9.871  0.6672 -0.0022  0.8030
  113OSM    C9S11729   5.574   3.878   9.744  0.1223  0.3542  0.5125
  113OSM    H9S11730   5.476   3.928   9.759  1.0288  2.1094  0.8014
  113OSM    H9T11731   5.572   3.767   9.748  0.7547  0.3657  1.4664
  113OSM   C10S11732   5.631   3.923   9.612  0.2542  0.5155 -0.2700
  113OSM   H10S11733   5.735   3.886   9.602  0.9768  2.0374  1.1439
  113OSM   H10T11734   5.643   4.033   9.603  0.7244  0.5165  0.3509
  113OSM   C11S11735   5.565   3.864   9.485 -0.1947 -0.2988  0.1447
  113OSM   H11S11736   5.458   3.845   9.508 -0.5614  2.7212  1.4026
  113OSM   H11T11737   5.601   3.761   9.463  0.0618  0.0593 -1.1912
  113OSM   C12S11738   5.587   3.955   9.368 -0.1177  0.2266  0.1625
  113OSM   H12S11739   5.694   3.983   9.359  0.7361 -2.6436  0.3531
  113OSM   H12T11740   5.521   4.044   9.375 -0.4699  0.5613 -4.3696
  113OSM   C13S11741   5.551   3.890   9.240 -0.8879  0.0623  1.1836
  113OSM   H13S11742   5.450   3.846   9.225 -0.7972  0.6514 -1.4854
  113OSM   H13T11743   5.619   3.804   9.223  2.5707  2.5414  1.3042
  113OSM   C14S11744   5.586   3.987   9.127 -0.1926 -0.4449  0.9227
  113OSM   H14S11745   5.697   3.991   9.118 -0.3431  1.5323 -0.8893
  113OSM   H14T11746   5.562   4.094   9.147 -0.1964 -0.1865 -0.4239
  113OSM   C15S11747   5.531   3.951   8.990 -0.2176  0.0753  0.3809
  113OSM   H15S11748   5.424   3.981   8.999 -0.6674 -0.7854 -1.4941
  113OSM   H15T11749   5.529   3.844   8.960  0.6179  0.4086 -0.9490
  113OSM   C16S11750   5.593   4.035   8.874  0.0482  0.2074  0.6472
  113OSM   H16S11751   5.702   4.024   8.854  0.0216  0.7763  0.1770
  113OSM   H16T11752   5.564   4.138   8.900 -1.9001 -0.2382  0.3633
  113OSM   C17S11753   5.522   4.011   8.737 -0.0861 -0.1618 -0.3405
  113OSM   H17S11754   5.562   4.079   8.660 -0.3139  0.0339 -0.2871
  113OSM   H17T11755   5.413   4.021   8.759 -0.4560  0.7963 -2.3624
  113OSM   C18S11756   5.553   3.873   8.662  0.2526 -0.2124 -0.2949
  113OSM   H18S11757   5.656   3.879   8.623  0.6486  1.9556  0.9174
  113OSM   H18T11758   5.483   3.874   8.576 -1.0565 -0.2004  0.7292
  113OSM   H18U11759   5.538   3.782   8.724 -1.1318  0.3572  0.2628
  113OSM    C1F11760   5.279   3.995  10.517  0.3526  0.1390  0.1102
  113OSM     OF11761   5.258   4.117  10.516 -0.1641  0.9995  0.2719
  113OSM    C2F11762   5.172   3.893  10.526  0.0406 -0.2447 -0.4979
  113OSM    H2F11763   5.151   3.872  10.633  2.7389  0.2743  0.2281
  113OSM    H2G11764   5.213   3.797  10.486  0.3932  0.1188 -1.0266
  113OSM    C3F11765   5.052   3.941  10.443  0.3065  0.5563 -0.4824
  113OSM    H3F11766   5.010   4.036  10.482 -1.6584 -1.3042  2.3345
  113OSM    H3G11767   4.978   3.859  10.457  2.8054 -1.7423  0.2596
  113OSM    C4F11768   5.074   3.953  10.291 -0.3117  0.1084 -0.7089
  113OSM    H4F11769   5.154   3.880  10.267 -0.6731 -0.4036 -0.3665
  113OSM    H4G11770   5.110   4.057  10.275  0.7819 -0.4995 -2.4640
  113OSM    C5F11771   4.952   3.932  10.205 -0.0899  0.2595 -0.4049
  113OSM    H5F11772   4.865   3.991  10.242  0.0862  1.2693 -1.5454
  113OSM    H5G11773   4.920   3.827  10.217 -1.0957  0.8405  3.4110
  113OSM    C6F11774   4.970   3.966  10.064  0.1408 -0.1339  0.2061
  113OSM    H6F11775   4.970   4.074  10.036 -0.1064 -0.1122  0.2886
  113OSM    H6G11776   4.870   3.955  10.017  0.3521  1.5309 -0.7276
  113OSM    C7F11777   5.082   3.885  10.007 -0.3110 -0.3425 -0.0946
  113OSM    H7F11778   5.055   3.777  10.004 -3.3438  0.3283 -2.7090
  113OSM    H7G11779   5.175   3.894  10.067 -0.6328 -3.1822  1.0192
  113OSM    C8F11780   5.097   3.927   9.852 -0.4400  0.1805  0.2172
  113OSM    H8F11781   5.199   3.894   9.824  0.0723  0.8113  1.2815
  113OSM    H8G11782   5.109   4.037   9.852 -0.7669  0.2991  3.1935
  113OSM    C9F11783   5.001   3.859   9.755  0.8355 -0.6270  0.4620
  113OSM    H9F11784   4.978   3.751   9.756  0.0266 -0.4835 -0.6463
  113OSM   C10F11785   4.921   3.914   9.661  1.1615 -0.8679  0.7978
  113OSM   H10F11786   4.851   3.857   9.599 -1.3308  0.0119  2.6229
  113OSM   C11F11787   4.925   4.067   9.633 -0.1598  0.5413  0.1650
  113OSM   H11F11788   5.009   4.129   9.674  1.6912 -1.8740  0.2392
  113OSM   H11G11789   4.824   4.108   9.652 -1.2367 -1.8327 -0.1323
  113OSM   C12F11790   4.948   4.088   9.480  0.3313 -0.5870  0.2036
  113OSM   H12F11791   5.036   4.027   9.448  0.4433 -0.3853  0.1236
  113OSM   H12G11792   4.980   4.192   9.458 -1.7703  0.0894  0.1811
  113OSM   C13F11793   4.820   4.073   9.398  0.5387  0.2020 -0.4759
  113OSM   H13F11794   4.740   4.137   9.438  0.5440 -0.4641  0.6375
  113OSM   H13G11795   4.797   3.965   9.405 -0.2066  0.3396 -0.7489
  113OSM   C14F11796   4.833   4.096   9.243 -0.9071  0.5263 -0.0352
  113OSM   H14F11797   4.906   4.030   9.193 -2.1632  0.4604 -1.8793
  113OSM   H14G11798   4.870   4.200   9.226  1.0238 -0.0061  0.6911
  113OSM   C15F11799   4.702   4.065   9.177  0.0758 -0.6125  0.2121
  113OSM   H15F11800   4.620   4.130   9.216  3.0461  2.7073  1.4686
  113OSM   H15G11801   4.683   3.956   9.188  1.0573 -0.9871 -1.4560
  113OSM   C16F11802   4.715   4.079   9.027 -0.8069  0.0594  0.7777
  113OSM   H16F11803   4.624   4.051   8.969  0.5997  1.0840 -2.0973
  113OSM   H16G11804   4.797   4.011   8.996  0.8111  2.2226  0.1170
  113OSM   C17F11805   4.747   4.219   8.975 -0.0540  0.6276 -0.0417
  113OSM   H17F11806   4.847   4.258   9.002  1.3773 -1.6094 -1.7797
  113OSM   H17G11807   4.675   4.282   9.032  1.8260  1.5363  1.4501
  113OSM   C18F11808   4.746   4.240   8.821  0.0876  0.4487 -0.0512
  113OSM   H18F11809   4.653   4.191   8.784 -1.6813  1.9317  2.1469
  113OSM   H18G11810   4.836   4.195   8.774  0.9790  2.4480 -0.3491
  113OSM   H18H11811   4.760   4.345   8.786  3.3757  0.3225  0.5572
  114OSM      N11812   5.415   1.568  11.455  0.5949  0.0766  0.2350
  114OSM    C1511813   5.376   1.699  11.512 -0.2501 -0.5206 -0.1147
  114OSM   H15A11814   5.455   1.772  11.517  0.4722 -1.3376  0.7758
  114OSM   H15B11815   5.346   1.684  11.614  0.5847 -1.1924  0.0517
  114OSM   H15C11816   5.293   1.741  11.457 -0.9469 -0.4712  0.9520
  114OSM    C1411817   5.519   1.509  11.547  0.0883  0.4237  0.1988
  114OSM   H14A11818   5.492   1.509  11.652  2.5357 -0.0230  0.9057
  114OSM   H14B11819   5.608   1.567  11.532  0.4518 -0.2257 -0.2105
  114OSM   H14C11820   5.554   1.410  11.522 -0.9760 -0.1235  0.8156
  114OSM    C1311821   5.287   1.491  11.457  0.0850  0.2420  0.1273
  114OSM   H13A11822   5.245   1.490  11.557 -0.0001  1.2162  0.1055
  114OSM   H13B11823   5.292   1.386  11.431 -0.9362 -0.6506  3.0457
  114OSM   H13C11824   5.223   1.542  11.387  1.6292  1.5493 -0.3870
  114OSM    C1211825   5.476   1.577  11.316  0.2909 -0.3033  0.2257
  114OSM   H12A11826   5.402   1.587  11.238 -1.3805 -2.5825  1.3863
  114OSM   H12B11827   5.545   1.496  11.296  0.5538  0.0235 -0.1992
  114OSM    C1111828   5.580   1.701  11.295  0.2096 -0.2046 -0.4408
  114OSM   H11A11829   5.521   1.794  11.289 -0.1004 -0.3978 -0.4101
  114OSM   H11B11830   5.633   1.700  11.198 -0.3136 -1.6829 -0.7472
  114OSM      P11831   5.715   1.841  11.462 -0.5621 -0.1145 -0.3650
  114OSM    O1311832   5.592   1.908  11.503 -0.1360 -0.0517 -0.0608
  114OSM    O1411833   5.817   1.822  11.566 -0.5285 -0.2130 -0.1119
  114OSM    O1111834   5.777   1.925  11.347  0.4410  0.3742 -0.1980
  114OSM    O1211835   5.683   1.709  11.395  0.1739 -0.1989  0.0187
  114OSM    C1S11836   5.867   1.883  11.252 -0.7486  0.2802  0.8242
  114OSM    H1S11837   5.878   1.772  11.263  0.7827  0.3438  0.2718
  114OSM    H1T11838   5.961   1.937  11.276 -2.1729  3.1672  0.3262
  114OSM     NF11839   5.926   1.872  11.010  0.1249 -0.0205  0.0620
  114OSM    HNF11840   5.976   1.944  10.963  0.1136  0.0750  0.1958
  114OSM    C2S11841   5.826   1.915  11.105 -0.1849  0.5291 -0.8672
  114OSM    H2S11842   5.734   1.857  11.082 -0.0824  0.4247 -1.0205
  114OSM    C3S11843   5.801   2.066  11.105 -0.0825 -0.4465  0.0155
  114OSM    H3S11844   5.881   2.116  11.164 -2.0091  1.9419  0.7486
  114OSM     O311845   5.682   2.110  11.174  0.5538 -0.4592  0.1698
  114OSM    HO311846   5.670   2.047  11.245 -1.1779 -0.4564 -0.0964
  114OSM    C4S11847   5.800   2.112  10.956  0.1190  0.2047  0.2419
  114OSM    H4S11848   5.894   2.114  10.899  0.2629  1.2595  0.4987
  114OSM    C5S11849   5.690   2.153  10.887  0.4603 -0.3420  0.0761
  114OSM    H5S11850   5.590   2.151  10.932  0.4109 -1.0080 -0.0607
  114OSM    C6S11851   5.701   2.201  10.743 -0.4944  0.4976 -0.1702
  114OSM    H6S11852   5.804   2.191  10.703 -2.1447 -1.2889 -4.5564
  114OSM    H6T11853   5.670   2.305  10.722  0.6709  0.5779 -1.5891
  114OSM    C7S11854   5.643   2.093  10.663 -0.4601 -0.7767  0.5027
  114OSM    H7S11855   5.534   2.086  10.685 -0.5898 -1.5336 -0.3558
  114OSM    H7T11856   5.700   1.999  10.667  1.1114  0.1689  1.3596
  114OSM    C8S11857   5.661   2.125  10.514  0.2249 -0.2605  0.3738
  114OSM    H8S11858   5.767   2.128  10.482  0.4653 -0.8058  1.0878
  114OSM    H8T11859   5.632   2.232  10.507  0.4015 -0.2848 -0.8476
  114OSM    C9S11860   5.573   2.051  10.406 -0.0332 -0.9080  0.0242
  114OSM    H9S11861   5.467   2.068  10.435  0.2296 -1.4468  1.3959
  114OSM    H9T11862   5.591   1.942  10.417 -0.7436 -0.8573  2.2715
  114OSM   C10S11863   5.591   2.112  10.264 -0.1635 -0.6715 -0.2432
  114OSM   H10S11864   5.698   2.095  10.238  0.0241  1.6258 -1.2699
  114OSM   H10T11865   5.577   2.222  10.265  1.8889 -0.3689  0.1097
  114OSM   C11S11866   5.487   2.068  10.160 -0.3158  0.1730 -0.2304
  114OSM   H11S11867   5.387   2.108  10.187  0.2338 -0.2097  2.7204
  114OSM   H11T11868   5.483   1.958  10.173  0.5278  0.2288  0.6756
  114OSM   C12S11869   5.521   2.107  10.014 -0.2196 -0.0391  0.2789
  114OSM   H12S11870   5.535   2.217  10.016 -0.5773  0.0059  0.7291
  114OSM   H12T11871   5.425   2.088   9.960 -0.1304  1.5386 -0.4797
  114OSM   C13S11872   5.642   2.032   9.946 -0.1172 -0.1458 -0.2465
  114OSM   H13S11873   5.628   1.922   9.943  0.2708 -0.2013 -0.0867
  114OSM   H13T11874   5.730   2.054  10.011 -1.1464 -1.8354  1.8196
  114OSM   C14S11875   5.665   2.078   9.803  0.4030  0.8751 -0.1177
  114OSM   H14S11876   5.698   2.184   9.811  2.9252  0.1499 -0.1242
  114OSM   H14T11877   5.574   2.063   9.742  0.2979 -0.6643  0.3948
  114OSM   C15S11878   5.783   1.998   9.743 -0.6640  0.1944 -0.5405
  114OSM   H15S11879   5.749   1.893   9.759 -2.7620  0.6505 -1.6749
  114OSM   H15T11880   5.880   2.021   9.791 -0.7107  1.4146 -1.0123
  114OSM   C16S11881   5.783   2.000   9.587 -0.3796 -0.1129 -0.1634
  114OSM   H16S11882   5.790   2.102   9.542 -2.7081  0.8129  1.3722
  114OSM   H16T11883   5.687   1.949   9.564  0.2308 -1.8998  1.0282
  114OSM   C17S11884   5.893   1.904   9.526 -0.0405 -0.5171 -0.0416
  114OSM   H17S11885   5.915   1.817   9.590  0.0957 -0.9151 -0.6232
  114OSM   H17T11886   5.991   1.951   9.505 -1.3106  1.2897 -2.4750
  114OSM   C18S11887   5.836   1.851   9.386  0.4692  0.3660  0.0867
  114OSM   H18S11888   5.892   1.765   9.342 -0.0345  1.0117 -1.9103
  114OSM   H18T11889   5.821   1.927   9.307  1.8907 -1.1559 -1.7452
  114OSM   H18U11890   5.729   1.824   9.402  0.4815  0.5697  0.5322
  114OSM    C1F11891   5.955   1.746  10.987  0.0095 -0.6923  0.3068
  114OSM     OF11892   5.894   1.650  11.037  0.4315 -0.1355  0.0819
  114OSM    C2F11893   6.073   1.717  10.896  0.4794  0.9086  0.0657
  114OSM    H2F11894   6.155   1.687  10.964 -0.0427 -0.4168  0.1303
  114OSM    H2G11895   6.098   1.815  10.850 -1.7071  1.7610  0.5355
  114OSM    C3F11896   6.048   1.598  10.791 -0.5525  0.7125  0.4618
  114OSM    H3F11897   5.994   1.516  10.843  1.2838  0.2775  1.7632
  114OSM    H3G11898   6.148   1.558  10.764  0.5213  2.3840  1.8001
  114OSM    C4F11899   5.979   1.630  10.661  0.5984  0.3767  0.0383
  114OSM    H4F11900   5.872   1.658  10.669  0.9359  1.8451 -0.3301
  114OSM    H4G11901   5.986   1.547  10.587 -1.9386  0.7357 -0.6712
  114OSM    C5F11902   6.035   1.760  10.599  0.0153  0.0183  0.4148
  114OSM    H5F11903   6.145   1.760  10.585 -0.1324 -0.2182 -0.9351
  114OSM    H5G11904   5.989   1.840  10.662 -0.9357  0.2136 -0.4881
  114OSM    C6F11905   5.978   1.790  10.455 -0.0155  0.0043 -0.6403
  114OSM    H6F11906   5.868   1.809  10.459 -0.5308 -2.7391  0.6669
  114OSM    H6G11907   6.003   1.693  10.406  0.6139 -1.2972  2.0788
  114OSM    C7F11908   6.048   1.908  10.376 -0.0244 -0.0485  0.2840
  114OSM    H7F11909   6.154   1.876  10.367 -0.8240 -3.1131  0.6943
  114OSM    H7G11910   6.033   1.995  10.443  0.6889 -1.0951  1.8548
  114OSM    C8F11911   5.992   1.948  10.245  0.0594  0.2351 -0.1719
  114OSM    H8F11912   6.043   2.035  10.199  0.3252  0.0749 -0.1846
  114OSM    H8G11913   5.889   1.978  10.273 -0.7043 -2.9306  0.8745
  114OSM    C9F11914   5.972   1.829  10.157  0.5460 -0.0852  0.3255
  114OSM    H9F11915   5.890   1.760  10.180  0.4458  0.1354  0.6422
  114OSM   C10F11916   6.050   1.799  10.049  0.2020 -0.2030  0.3213
  114OSM   H10F11917   6.029   1.718   9.978 -0.9793  0.8293 -0.5527
  114OSM   C11F11918   6.162   1.886   9.997  1.0528 -0.4139  0.4729
  114OSM   H11F11919   6.261   1.870  10.046  0.3319 -0.1724  2.0717
  114OSM   H11G11920   6.140   1.994  10.014  0.9947 -0.4904  0.8873
  114OSM   C12F11921   6.163   1.865   9.848  0.8771 -0.1714  0.4377
  114OSM   H12F11922   6.065   1.892   9.803  0.7740 -0.8410  0.2474
  114OSM   H12G11923   6.178   1.757   9.829  2.7941  0.1779 -0.2670
  114OSM   C13F11924   6.277   1.943   9.784 -0.5410 -0.2579  0.6568
  114OSM   H13F11925   6.370   1.891   9.816 -1.2890 -2.2609 -0.2504
  114OSM   H13G11926   6.278   2.047   9.822  0.7031 -0.2497  0.6597
  114OSM   C14F11927   6.270   1.949   9.630 -0.0796 -1.0049  0.3495
  114OSM   H14F11928   6.346   2.011   9.579  0.1816 -2.5520 -1.2460
  114OSM   H14G11929   6.167   1.987   9.611  0.2592  0.2359  0.9248
  114OSM   C15F11930   6.285   1.806   9.570  0.3404  0.7212  0.1858
  114OSM   H15F11931   6.219   1.734   9.622  0.8093 -1.0807 -1.5670
  114OSM   H15G11932   6.392   1.778   9.579  0.5193  1.5900  0.8946
  114OSM   C16F11933   6.257   1.814   9.417  0.0412 -0.2958 -0.2528
  114OSM   H16F11934   6.319   1.883   9.357  0.7529 -0.7002  0.0096
  114OSM   H16G11935   6.149   1.840   9.410 -0.2705 -1.4067  0.1524
  114OSM   C17F11936   6.270   1.678   9.338  0.8768  0.5849 -0.0681
  114OSM   H17F11937   6.236   1.593   9.402  3.4358  0.2161  0.9339
  114OSM   H17G11938   6.377   1.658   9.318  0.4460 -2.3741  0.1155
  114OSM   C18F11939   6.194   1.689   9.204 -0.6180 -0.7479 -0.2683
  114OSM   H18F11940   6.196   1.597   9.143 -0.2962 -0.1276 -1.2048
  114OSM   H18G11941   6.238   1.777   9.153 -1.3025 -0.4328 -0.3296
  114OSM   H18H11942   6.091   1.715   9.238 -0.3958 -1.3840  0.9749
  115OSM      N11943   0.592   6.487   6.065 -0.1708 -0.2792 -1.0160
  115OSM    C1511944   0.586   6.629   6.032 -0.0871 -0.2908 -0.3054
  115OSM   H15A11945   0.515   6.636   5.951 -0.9997 -0.6330  0.4381
  115OSM   H15B11946   0.678   6.682   6.016  1.3990 -1.5811  3.0391
  115OSM   H15C11947   0.542   6.679   6.117 -1.4571 -1.4625 -0.2906
  115OSM    C1411948   0.478   6.415   6.005 -0.1515  0.7689 -0.5702
  115OSM   H14A11949   0.482   6.310   6.028  1.2167  0.8717 -0.2335
  115OSM   H14B11950   0.486   6.428   5.898  1.9334 -0.6468 -0.6317
  115OSM   H14C11951   0.385   6.452   6.047  1.4474  1.3559  2.8486
  115OSM    C1311952   0.724   6.439   6.006  0.0515  0.3226 -0.0501
  115OSM   H13A11953   0.803   6.501   6.047 -1.7359  1.2841  2.1764
  115OSM   H13B11954   0.716   6.445   5.898 -0.1838  0.6148 -0.0157
  115OSM   H13C11955   0.744   6.339   6.041  2.4041  1.1644  1.2348
  115OSM    C1211956   0.600   6.474   6.219 -0.4829 -0.2871 -0.3245
  115OSM   H12A11957   0.511   6.513   6.264  0.3008 -1.2930  2.2389
  115OSM   H12B11958   0.689   6.528   6.249 -0.0001 -1.4767  0.4571
  115OSM    C1111959   0.614   6.327   6.265  0.4176  0.1076  0.5828
  115OSM   H11A11960   0.526   6.266   6.235  1.0725 -0.0988 -1.0001
  115OSM   H11B11961   0.609   6.341   6.375 -0.4403  0.4229  0.5042
  115OSM      P11962   0.875   6.287   6.321 -0.0806 -0.2287 -0.3113
  115OSM    O1311963   0.987   6.211   6.256  0.4450 -0.8548 -0.4225
  115OSM    O1411964   0.900   6.428   6.353 -0.6215 -0.3250  0.1832
  115OSM    O1111965   0.836   6.214   6.456 -0.0506 -0.2334 -0.0059
  115OSM    O1211966   0.743   6.275   6.227  0.7522 -0.3785 -0.4198
  115OSM    C1S11967   0.784   6.079   6.459  0.0704  0.1922 -0.4431
  115OSM    H1S11968   0.840   6.016   6.386  1.1990  0.7559 -0.0782
  115OSM    H1T11969   0.679   6.078   6.421  0.4231  0.8004 -1.4887
  115OSM     NF11970   0.778   5.865   6.599  0.2701  0.2531 -0.1238
  115OSM    HNF11971   0.684   5.834   6.615 -0.3224  1.8945 -0.2158
  115OSM    C2S11972   0.801   6.011   6.600 -0.5056  0.6477 -0.0971
  115OSM    H2S11973   0.905   6.036   6.631 -1.0195  1.6111  0.9113
  115OSM    C3S11974   0.706   6.077   6.700  0.4466  0.0237  0.8629
  115OSM    H3S11975   0.600   6.054   6.677  0.3899  1.9406 -1.0527
  115OSM     O311976   0.703   6.220   6.683  0.2913 -0.0408 -0.1942
  115OSM    HO311977   0.745   6.225   6.597  0.6704 -0.7456 -0.0610
  115OSM    C4S11978   0.750   6.042   6.836  0.3283 -0.1283  0.7419
  115OSM    H4S11979   0.851   6.079   6.857 -0.1728  1.2373  0.8752
  115OSM    C5S11980   0.684   5.969   6.926  0.4562  0.1464 -0.3756
  115OSM    H5S11981   0.584   5.938   6.893 -0.1511  1.4891  0.1296
  115OSM    C6S11982   0.724   5.927   7.064 -0.1924 -0.5445  0.1041
  115OSM    H6S11983   0.833   5.943   7.078 -0.3746 -1.1066  2.7816
  115OSM    H6T11984   0.693   5.821   7.079 -3.4388  0.4578  1.4653
  115OSM    C7S11985   0.664   6.011   7.179 -0.2466  0.6425 -0.4880
  115OSM    H7S11986   0.553   6.007   7.183 -0.2570  1.2025  3.5875
  115OSM    H7T11987   0.692   6.118   7.169  1.8660  0.2067  0.3094
  115OSM    C8S11988   0.710   5.976   7.323  0.2092  0.2353  0.4300
  115OSM    H8S11989   0.820   5.987   7.329  0.0883  1.1607  1.1053
  115OSM    H8T11990   0.693   5.867   7.338 -1.5341 -0.1905 -3.3746
  115OSM    C9S11991   0.648   6.060   7.438  0.2274 -0.3633 -1.0279
  115OSM    H9S11992   0.558   6.014   7.484  1.2908 -0.8818  0.6620
  115OSM    H9T11993   0.621   6.159   7.397  1.0711  0.7514  0.9524
  115OSM   C10S11994   0.745   6.081   7.551 -0.4220  0.0601 -0.4056
  115OSM   H10S11995   0.837   6.136   7.520 -0.5874  0.5733  0.0086
  115OSM   H10T11996   0.781   5.983   7.589  1.0566  1.0412  0.8338
  115OSM   C11S11997   0.671   6.156   7.667 -0.5000  0.2090  0.0568
  115OSM   H11S11998   0.564   6.124   7.662 -0.0638 -2.1203  2.6844
  115OSM   H11T11999   0.684   6.265   7.657 -1.4908  0.1262 -4.1908
  115OSM   C12S12000   0.707   6.113   7.816 -0.4358 -0.1336  0.5694
  115OSM   H12S12001   0.815   6.135   7.827 -0.0204 -1.4367 -0.5532
  115OSM   H12T12002   0.703   6.004   7.835  1.8873 -0.5770 -1.0707
  115OSM   C13S12003   0.627   6.197   7.913 -0.0545  0.7647  0.3666
  115OSM   H13S12004   0.519   6.178   7.899  0.5475 -1.9032 -1.2881
  115OSM   H13T12005   0.644   6.302   7.879  4.1613  0.0913 -0.1008
  115OSM   C14S12006   0.663   6.179   8.060  0.2816  0.0055  0.3070
  115OSM   H14S12007   0.769   6.208   8.073  0.1913 -0.3942  2.1531
  115OSM   H14T12008   0.644   6.072   8.083 -1.7347  0.0611 -0.8918
  115OSM   C15S12009   0.572   6.264   8.154  0.6806 -0.3393  0.5555
  115OSM   H15S12010   0.549   6.356   8.097 -1.5533 -1.3108 -0.2278
  115OSM   H15T12011   0.627   6.282   8.249  1.5917  1.5312 -0.2891
  115OSM   C16S12012   0.431   6.213   8.200  0.0730 -0.4303 -0.5119
  115OSM   H16S12013   0.440   6.135   8.278  0.5262  1.9899  2.0075
  115OSM   H16T12014   0.364   6.171   8.122  0.3807 -2.6632  0.3419
  115OSM   C17S12015   0.346   6.328   8.261 -0.4332 -0.2023 -0.0303
  115OSM   H17S12016   0.294   6.389   8.185  0.0946 -2.2855 -2.1873
  115OSM   H17T12017   0.408   6.399   8.320 -2.2007  0.5107  1.0517
  115OSM   C18S12018   0.230   6.266   8.332 -0.7206  0.2810 -0.5655
  115OSM   H18S12019   0.164   6.210   8.262 -0.5680  3.3306 -3.4116
  115OSM   H18T12020   0.159   6.348   8.357 -0.1592  0.9404 -1.0767
  115OSM   H18U12021   0.260   6.217   8.427 -4.6651 -1.6780 -0.1242
  115OSM    C1F12022   0.855   5.774   6.532 -0.1086 -0.1855 -0.2928
  115OSM     OF12023   0.965   5.814   6.483  0.4619  0.3363  0.3592
  115OSM    C2F12024   0.816   5.630   6.523  0.1215  0.5294  0.0476
  115OSM    H2F12025   0.918   5.585   6.533  0.1794  0.5417 -0.4533
  115OSM    H2G12026   0.778   5.603   6.422 -1.4397 -1.7157  1.1601
  115OSM    C3F12027   0.733   5.567   6.639 -0.2220  0.9002 -0.5560
  115OSM    H3F12028   0.670   5.489   6.593 -0.0074  1.5552 -2.0257
  115OSM    H3G12029   0.655   5.641   6.664  0.6410  0.9801  2.2510
  115OSM    C4F12030   0.803   5.502   6.770  0.7749 -0.2570 -0.1763
  115OSM    H4F12031   0.876   5.572   6.815 -0.7727 -0.1772  2.4270
  115OSM    H4G12032   0.847   5.403   6.744 -1.4077 -0.3815 -4.2327
  115OSM    C5F12033   0.703   5.468   6.883  0.6572  0.1514 -0.6283
  115OSM    H5F12034   0.641   5.380   6.857 -0.2573 -0.7982  3.9544
  115OSM    H5G12035   0.629   5.550   6.892 -1.1429 -1.1065 -3.0293
  115OSM    C6F12036   0.788   5.431   7.006 -0.1075 -0.7000  1.0061
  115OSM    H6F12037   0.845   5.516   7.048  3.2237 -3.0463  1.6030
  115OSM    H6G12038   0.859   5.347   6.988  2.2871  1.2970  0.5757
  115OSM    C7F12039   0.694   5.369   7.112 -0.0824  0.1273  0.0401
  115OSM    H7F12040   0.652   5.274   7.073  0.9013 -0.8968  1.3813
  115OSM    H7G12041   0.611   5.440   7.133 -0.3839 -0.3885  0.6450
  115OSM    C8F12042   0.759   5.348   7.249 -0.1094 -0.1713 -0.0025
  115OSM    H8F12043   0.833   5.266   7.231 -1.4403 -1.3317 -0.3331
  115OSM    H8G12044   0.677   5.305   7.310 -0.0795 -1.8589 -1.0933
  115OSM    C9F12045   0.846   5.464   7.300 -0.3456 -0.9487 -0.6512
  115OSM    H9F12046   0.941   5.481   7.247 -0.0453 -0.8879 -0.1017
  115OSM   C10F12047   0.814   5.534   7.404  0.1680  0.1492 -0.6608
  115OSM   H10F12048   0.870   5.627   7.421 -0.8039  0.8112 -1.0310
  115OSM   C11F12049   0.697   5.511   7.503 -0.2146  0.6536 -0.3567
  115OSM   H11F12050   0.721   5.418   7.558  3.0356  0.9307 -1.0651
  115OSM   H11G12051   0.605   5.503   7.441 -0.5119 -1.9550  0.3199
  115OSM   C12F12052   0.686   5.625   7.601  0.5357 -0.0073 -0.0996
  115OSM   H12F12053   0.595   5.600   7.660 -0.2426  1.1089 -0.7864
  115OSM   H12G12054   0.652   5.723   7.561  1.7575  0.6222  0.3693
  115OSM   C13F12055   0.811   5.630   7.697 -0.4373  0.0526  0.0610
  115OSM   H13F12056   0.882   5.703   7.654  1.6022 -1.6067  0.4391
  115OSM   H13G12057   0.860   5.531   7.704  1.2099  0.9081  1.2691
  115OSM   C14F12058   0.775   5.664   7.844 -0.2247 -0.1198  0.6746
  115OSM   H14F12059   0.691   5.596   7.870  0.0473 -0.9934 -0.6500
  115OSM   H14G12060   0.738   5.766   7.865  0.0601 -0.0620  0.9024
  115OSM   C15F12061   0.887   5.643   7.949 -0.6209  0.4160  0.4039
  115OSM   H15F12062   0.976   5.637   7.883 -1.0274  0.7808 -0.1860
  115OSM   H15G12063   0.871   5.538   7.982  2.0688  0.4783  2.1923
  115OSM   C16F12064   0.900   5.742   8.056 -0.5639 -0.9399  0.0238
  115OSM   H16F12065   0.913   5.839   8.003 -0.3957 -1.9214 -1.7765
  115OSM   H16G12066   0.982   5.724   8.129 -0.5538 -1.8704 -0.2152
  115OSM   C17F12067   0.773   5.742   8.148 -0.2119  0.3346  0.1101
  115OSM   H17F12068   0.737   5.637   8.155 -1.3724  0.7047 -0.1181
  115OSM   H17G12069   0.698   5.797   8.088 -1.7011 -0.6383  1.0096
  115OSM   C18F12070   0.784   5.817   8.283  0.3313  0.5012  0.1141
  115OSM   H18F12071   0.819   5.920   8.263 -0.2897  0.4765 -1.2491
  115OSM   H18G12072   0.861   5.764   8.343  1.3939  0.9328 -0.8268
  115OSM   H18H12073   0.690   5.840   8.338  1.6858  0.8212  2.4032
  116OSM      N12074   0.243   3.432   5.984 -0.0129 -0.0311 -0.7057
  116OSM    C1512075   0.097   3.458   5.989 -0.2305  0.1174  0.5015
  116OSM   H15A12076   0.056   3.467   6.089 -2.8483  1.4982 -0.6101
  116OSM   H15B12077   0.039   3.384   5.936  0.1967 -1.3247  1.9228
  116OSM   H15C12078   0.080   3.555   5.947  0.6991  0.6469  1.2976
  116OSM    C1412079   0.281   3.431   5.838  0.7933 -0.2073  0.0205
  116OSM   H14A12080   0.385   3.461   5.827  0.6202  1.2251  1.8305
  116OSM   H14B12081   0.213   3.493   5.782 -0.8694 -1.8280  0.1722
  116OSM   H14C12082   0.272   3.331   5.799 -0.0481  0.2545 -1.0240
  116OSM    C1312083   0.320   3.538   6.050  0.3935  0.0009 -0.1549
  116OSM   H13A12084   0.312   3.627   5.989 -0.7019  1.2359  1.6940
  116OSM   H13B12085   0.424   3.512   6.061  0.5634  0.7712  0.0565
  116OSM   H13C12086   0.281   3.561   6.148 -1.8606 -2.5124 -0.3144
  116OSM    C1212087   0.281   3.298   6.052 -0.1944  0.3344  0.2076
  116OSM   H12A12088   0.383   3.292   6.019  0.7203  2.7519  2.3100
  116OSM   H12B12089   0.227   3.219   6.002  1.6694  0.4937 -2.2552
  116OSM    C1112090   0.260   3.288   6.203  0.3763  0.3138 -0.0668
  116OSM   H11A12091   0.309   3.369   6.262 -1.1426  0.9963  0.3110
  116OSM   H11B12092   0.306   3.196   6.245 -1.9824 -0.2830  1.3851
  116OSM      P12093   0.017   3.184   6.204  0.1922 -0.3170 -0.4968
  116OSM    O1312094  -0.118   3.243   6.180 -0.3661 -0.2343 -0.3036
  116OSM    O1412095   0.063   3.081   6.114  0.0808 -0.1696 -0.3860
  116OSM    O1112096   0.009   3.109   6.342  0.3478  0.0455 -0.1307
  116OSM    O1212097   0.123   3.291   6.239 -0.3831 -0.1874 -0.0228
  116OSM    C1S12098   0.004   3.185   6.470  0.5552 -0.3966  0.3146
  116OSM    H1S12099  -0.104   3.192   6.495 -0.1445 -3.0141 -1.4523
  116OSM    H1T12100   0.037   3.290   6.466 -0.5052 -0.0631 -0.3830
  116OSM     NF12101   0.026   3.208   6.713  0.1661 -0.2072  0.5000
  116OSM    HNF12102   0.097   3.255   6.764  0.8221  0.4174 -0.9727
  116OSM    C2S12103   0.066   3.118   6.593  0.0209  0.4835 -0.6631
  116OSM    H2S12104   0.015   3.022   6.615  1.4096 -0.1040  0.1003
  116OSM    C3S12105   0.217   3.090   6.573  0.1548  0.0219  0.0334
  116OSM    H3S12106   0.261   3.190   6.552 -1.1450  0.5447 -0.3207
  116OSM     O312107   0.241   3.006   6.458  0.3680  0.3225  0.0426
  116OSM    HO312108   0.182   3.050   6.396 -1.7236 -1.9214  0.3080
  116OSM    C4S12109   0.269   3.022   6.692 -0.7189 -0.1016 -0.3880
  116OSM    H4S12110   0.239   2.916   6.698  1.2061 -0.6072  1.2161
  116OSM    C5S12111   0.348   3.074   6.784 -0.1519  0.1504 -0.4697
  116OSM    H5S12112   0.371   3.182   6.776  2.8145 -0.4739 -1.7062
  116OSM    C6S12113   0.398   3.008   6.909 -1.2192  0.1709 -0.2624
  116OSM    H6S12114   0.509   3.013   6.904 -1.2642  2.4352  0.1242
  116OSM    H6T12115   0.372   2.900   6.921  2.9590 -1.3361 -2.5802
  116OSM    C7S12116   0.373   3.100   7.026 -0.9034 -0.1206  0.3617
  116OSM    H7S12117   0.265   3.123   7.014 -1.1574 -0.9212  1.0179
  116OSM    H7T12118   0.428   3.196   7.015 -1.5778  0.2099 -0.1760
  116OSM    C8S12119   0.402   3.030   7.161  0.1197 -0.8725  0.3231
  116OSM    H8S12120   0.508   3.005   7.179  0.6577  1.4349  0.6718
  116OSM    H8T12121   0.343   2.936   7.168 -0.1790 -0.6319  1.2113
  116OSM    C9S12122   0.357   3.124   7.282  0.0593 -0.3580  0.1104
  116OSM    H9S12123   0.259   3.173   7.262  0.4393  1.4543  2.2728
  116OSM    H9T12124   0.428   3.209   7.272  0.5014 -0.7324  0.0698
  116OSM   C10S12125   0.353   3.061   7.416 -0.4517  1.3278  0.2382
  116OSM   H10S12126   0.446   3.000   7.418 -1.7478 -0.9685 -2.3351
  116OSM   H10T12127   0.264   2.995   7.423  1.3776 -1.2995  0.4279
  116OSM   C11S12128   0.352   3.162   7.528 -0.4734  0.2125 -0.2524
  116OSM   H11S12129   0.269   3.233   7.505 -1.8189 -1.6449 -1.3741
  116OSM   H11T12130   0.449   3.217   7.532 -0.2332 -0.0910 -1.3930
  116OSM   C12S12131   0.326   3.095   7.665 -0.8155  0.0284 -0.4428
  116OSM   H12S12132   0.403   3.022   7.696 -0.3294  0.7697  0.1320
  116OSM   H12T12133   0.228   3.042   7.671  1.0735 -3.5797  1.2733
  116OSM   C13S12134   0.321   3.201   7.777 -0.2728 -0.8928  0.6018
  116OSM   H13S12135   0.237   3.272   7.758  0.2222 -0.7089 -1.0568
  116OSM   H13T12136   0.418   3.255   7.781 -0.1810 -0.8111 -1.4092
  116OSM   C14S12137   0.293   3.138   7.915  0.0838 -0.0806  0.2485
  116OSM   H14S12138   0.364   3.055   7.936  0.1188  0.2974  1.7999
  116OSM   H14T12139   0.192   3.091   7.917 -0.2488  0.6317  1.7008
  116OSM   C15S12140   0.311   3.230   8.033 -0.5258 -0.5561 -0.2630
  116OSM   H15S12141   0.218   3.290   8.040  1.4876  2.5930  1.8520
  116OSM   H15T12142   0.395   3.298   8.012 -0.0765 -1.0134  0.0284
  116OSM   C16S12143   0.323   3.179   8.174  0.4108  0.2772 -0.9709
  116OSM   H16S12144   0.423   3.131   8.179 -0.2046 -1.0715 -1.2910
  116OSM   H16T12145   0.247   3.099   8.186  0.5081  0.0769 -1.6667
  116OSM   C17S12146   0.291   3.281   8.285  0.2937  0.2954  1.0874
  116OSM   H17S12147   0.190   3.322   8.264 -0.7793 -2.5264  0.1921
  116OSM   H17T12148   0.366   3.362   8.287  0.6075 -0.0014  1.7965
  116OSM   C18S12149   0.290   3.221   8.423 -0.2259 -0.1630  0.1925
  116OSM   H18S12150   0.313   3.301   8.497  0.7531 -0.7586  0.5407
  116OSM   H18T12151   0.372   3.147   8.425 -0.7974 -1.1744 -3.9380
  116OSM   H18U12152   0.195   3.171   8.453 -0.2875  0.5006  1.1613
  116OSM    C1F12153  -0.098   3.233   6.762 -0.4319 -0.2806  0.1140
  116OSM     OF12154  -0.194   3.179   6.715  0.2150 -0.1999 -0.6551
  116OSM    C2F12155  -0.117   3.340   6.861 -0.2183  0.0361 -0.6987
  116OSM    H2F12156  -0.167   3.430   6.818  1.2677  0.3917 -1.7769
  116OSM    H2G12157  -0.023   3.367   6.915 -1.5527 -1.1182  2.4340
  116OSM    C3F12158  -0.206   3.287   6.977 -0.0581 -0.4532  0.2672
  116OSM    H3F12159  -0.197   3.178   6.999  1.0396 -0.5137 -0.3791
  116OSM    H3G12160  -0.313   3.303   6.950  0.1775  0.7594  0.0126
  116OSM    C4F12161  -0.199   3.365   7.116  0.1062 -0.2982 -0.1726
  116OSM    H4F12162  -0.258   3.308   7.191  1.3439 -0.3798  0.7840
  116OSM    H4G12163  -0.244   3.466   7.109  1.0797  0.2426  0.9009
  116OSM    C5F12164  -0.064   3.386   7.190 -0.0574  0.2940  0.4124
  116OSM    H5F12165  -0.009   3.458   7.126 -1.6627 -1.0871 -2.7803
  116OSM    H5G12166  -0.015   3.287   7.202 -0.5759 -0.4343 -2.6600
  116OSM    C6F12167  -0.071   3.450   7.325  0.3317  0.2508 -0.6449
  116OSM    H6F12168   0.027   3.429   7.373  0.1001 -3.5392 -1.5485
  116OSM    H6G12169  -0.134   3.406   7.405  0.6901  2.0861  0.7326
  116OSM    C7F12170  -0.096   3.601   7.341  0.5030  0.5507  0.0681
  116OSM    H7F12171  -0.201   3.615   7.308  0.1386  0.2258  1.0472
  116OSM    H7G12172  -0.037   3.659   7.267 -0.2803  0.9916 -0.2254
  116OSM    C8F12173  -0.078   3.643   7.489 -0.1523  0.0674  0.1651
  116OSM    H8F12174   0.026   3.682   7.492  0.5523 -1.3545 -2.5803
  116OSM    H8G12175  -0.102   3.556   7.554 -0.2410  0.0227  0.0715
  116OSM    C9F12176  -0.178   3.751   7.527  0.5492  0.0972 -0.3713
  116OSM    H9F12177  -0.274   3.753   7.474 -0.2502  0.1736  1.0590
  116OSM   C10F12178  -0.160   3.853   7.611  0.1102 -0.1101  0.4289
  116OSM   H10F12179  -0.244   3.924   7.615  0.2118 -0.0493  1.9414
  116OSM   C11F12180  -0.041   3.876   7.700  0.5104  0.7222 -0.3373
  116OSM   H11F12181  -0.000   3.977   7.679 -0.9373  1.5427  0.6289
  116OSM   H11G12182   0.044   3.806   7.684 -0.1110 -0.4637  1.3049
  116OSM   C12F12183  -0.066   3.882   7.851 -0.1922 -0.2809  0.7862
  116OSM   H12F12184   0.024   3.933   7.891  0.8451 -0.6557 -0.9333
  116OSM   H12G12185  -0.073   3.779   7.893 -1.7806 -1.1377 -1.3730
  116OSM   C13F12186  -0.189   3.961   7.890  0.1276 -0.0976  0.3154
  116OSM   H13F12187  -0.279   3.914   7.845 -0.2791 -0.5774  1.5687
  116OSM   H13G12188  -0.176   4.066   7.856  1.7855 -0.7230 -1.1184
  116OSM   C14F12189  -0.197   3.963   8.040  0.7640  0.5591  0.6212
  116OSM   H14F12190  -0.109   4.011   8.088  0.2875  3.9609 -1.5098
  116OSM   H14G12191  -0.200   3.860   8.082  1.0605  0.2531 -0.1053
  116OSM   C15F12192  -0.324   4.033   8.083  0.0778 -0.7879  0.2173
  116OSM   H15F12193  -0.422   4.000   8.042 -0.6897  1.1810  0.3437
  116OSM   H15G12194  -0.310   4.138   8.050 -2.8868 -0.3792 -0.0363
  116OSM   C16F12195  -0.333   4.025   8.240 -0.0520 -0.2553  0.6600
  116OSM   H16F12196  -0.247   4.086   8.273  0.8105 -1.2827  0.4000
  116OSM   H16G12197  -0.324   3.918   8.269  2.4226 -0.0435  0.8181
  116OSM   C17F12198  -0.459   4.091   8.300 -0.3041  0.8047  0.2527
  116OSM   H17F12199  -0.452   4.108   8.410 -0.7055  1.7252  0.1382
  116OSM   H17G12200  -0.537   4.012   8.290  1.1882 -0.7688  0.4931
  116OSM   C18F12201  -0.498   4.227   8.240  0.8438 -0.3853 -0.4934
  116OSM   H18F12202  -0.509   4.220   8.129 -1.0377 -1.7553 -0.2590
  116OSM   H18G12203  -0.416   4.298   8.266  1.3540 -1.5220  1.1530
  116OSM   H18H12204  -0.590   4.259   8.292  1.4386  1.5813 -0.5450
  117OSM      N12205   6.189   3.968   6.299  0.4018 -0.7844  0.7446
  117OSM    C1512206   6.249   4.009   6.431  0.6596  0.2220 -0.7111
  117OSM   H15A12207   6.345   3.964   6.449  0.4933  0.1074 -0.0685
  117OSM   H15B12208   6.202   3.961   6.515  3.0195 -0.1911  0.4599
  117OSM   H15C12209   6.262   4.116   6.436 -0.3161  0.3810 -1.3691
  117OSM    C1412210   6.269   4.031   6.192  0.4466  0.0828  0.9717
  117OSM   H14A12211   6.368   3.990   6.188  1.4784  2.4855 -0.6233
  117OSM   H14B12212   6.282   4.137   6.209 -2.5514  1.1643 -2.1308
  117OSM   H14C12213   6.213   4.027   6.099  1.2338 -0.4126  0.5181
  117OSM    C1312214   6.186   3.822   6.266 -0.1798 -0.0492 -1.4011
  117OSM   H13A12215   6.151   3.817   6.164 -2.7100 -1.3214 -0.5546
  117OSM   H13B12216   6.110   3.780   6.330  0.1687  1.8494  0.3864
  117OSM   H13C12217   6.284   3.784   6.289 -1.2968 -1.4367  1.7157
  117OSM    C1212218   6.052   4.033   6.298  0.2476  0.0684 -0.1503
  117OSM   H12A12219   6.000   4.006   6.207  0.7973 -0.0766 -0.4268
  117OSM   H12B12220   6.067   4.140   6.294  0.5658  0.0657  0.8976
  117OSM    C1112221   5.938   3.994   6.406  0.1220 -0.2800 -0.4514
  117OSM   H11A12222   5.851   4.061   6.386  1.1429  0.5078 -2.5043
  117OSM   H11B12223   5.979   4.015   6.507  1.9870  0.0197 -1.2350
  117OSM      P12224   5.794   3.799   6.292 -0.0004 -0.0409  0.1780
  117OSM    O1312225   5.799   3.879   6.166  0.6027 -0.6460  0.1547
  117OSM    O1412226   5.790   3.657   6.274 -0.0984  0.5153 -0.2147
  117OSM    O1112227   5.672   3.847   6.375  0.5859  0.0853 -0.3175
  117OSM    O1212228   5.908   3.852   6.392  0.3862  0.1220 -0.0858
  117OSM    C1S12229   5.642   3.783   6.501 -0.2223  0.4878 -0.7740
  117OSM    H1S12230   5.683   3.681   6.519 -0.8019  0.5967  1.5261
  117OSM    H1T12231   5.532   3.768   6.502 -0.1758  0.1440 -0.7967
  117OSM     NF12232   5.636   3.802   6.749 -0.2001  0.2940  0.2899
  117OSM    HNF12233   5.555   3.827   6.800 -0.5946  0.5396 -0.4404
  117OSM    C2S12234   5.672   3.874   6.627 -0.2097  0.4132 -0.4693
  117OSM    H2S12235   5.780   3.899   6.634  0.1457 -1.3023  0.9876
  117OSM    C3S12236   5.595   4.011   6.619  0.5047  0.2467 -0.1190
  117OSM    H3S12237   5.490   3.982   6.636  0.9540 -0.7575  1.0761
  117OSM     O312238   5.604   4.076   6.486 -0.1375  0.6374  0.0081
  117OSM    HO312239   5.630   4.002   6.430 -1.9400  0.2080 -0.3126
  117OSM    C4S12240   5.634   4.109   6.730  0.5176  0.5388 -0.2644
  117OSM    H4S12241   5.739   4.139   6.714  0.0218  1.0132 -3.2671
  117OSM    C5S12242   5.556   4.156   6.826  0.3894  0.7532  0.0553
  117OSM    H5S12243   5.448   4.132   6.821  0.1948  1.7771 -1.7858
  117OSM    C6S12244   5.605   4.256   6.931 -0.2187  0.0724 -0.0376
  117OSM    H6S12245   5.582   4.359   6.895 -0.0095  0.4312  0.8091
  117OSM    H6T12246   5.714   4.244   6.954 -0.8421 -2.2117  2.2008
  117OSM    C7S12247   5.529   4.238   7.059  0.5619 -0.3837 -0.1555
  117OSM    H7S12248   5.418   4.229   7.047  0.7258 -0.5319 -1.7158
  117OSM    H7T12249   5.531   4.327   7.126  1.9460  0.0926 -0.8080
  117OSM    C8S12250   5.581   4.120   7.141  0.1292  0.4025  0.1277
  117OSM    H8S12251   5.691   4.128   7.153  0.3376 -3.1648  1.8324
  117OSM    H8T12252   5.565   4.023   7.090  0.8155  1.5283 -2.3709
  117OSM    C9S12253   5.532   4.111   7.284  0.1208 -0.1023 -0.3822
  117OSM    H9S12254   5.561   4.012   7.325 -0.8351 -0.6818 -1.0630
  117OSM    H9T12255   5.422   4.095   7.283  0.3000 -1.3871 -0.9882
  117OSM   C10S12256   5.558   4.236   7.373  0.3120 -0.3462  0.2857
  117OSM   H10S12257   5.483   4.317   7.359  2.6303  2.2343  1.8460
  117OSM   H10T12258   5.659   4.270   7.344  0.2303 -0.0484  0.3491
  117OSM   C11S12259   5.549   4.204   7.524 -0.3441  0.3478 -0.3041
  117OSM   H11S12260   5.643   4.153   7.555 -0.0663  2.5100  2.9245
  117OSM   H11T12261   5.471   4.125   7.535  2.4762 -2.6633 -0.4615
  117OSM   C12S12262   5.522   4.325   7.614  0.3487 -0.8987  0.5473
  117OSM   H12S12263   5.418   4.359   7.594  0.0006 -2.6482 -0.9788
  117OSM   H12T12264   5.595   4.407   7.598 -0.1944 -0.0599  2.1978
  117OSM   C13S12265   5.532   4.286   7.754  0.1611  0.3875 -0.0643
  117OSM   H13S12266   5.638   4.262   7.774  0.5038 -0.4376 -2.5184
  117OSM   H13T12267   5.478   4.190   7.766 -0.0360  0.5105  0.0388
  117OSM   C14S12268   5.486   4.386   7.854  1.0044 -0.8257  0.0559
  117OSM   H14S12269   5.375   4.383   7.843  0.8866 -0.2187  0.9792
  117OSM   H14T12270   5.519   4.491   7.838 -0.5518  0.2605  3.2439
  117OSM   C15S12271   5.517   4.339   8.004 -0.1361  0.0171 -0.0154
  117OSM   H15S12272   5.471   4.417   8.069 -2.4472 -2.1354  1.0449
  117OSM   H15T12273   5.626   4.348   8.024 -0.2610 -0.8319  1.1674
  117OSM   C16S12274   5.460   4.205   8.053 -0.3014 -0.3815  0.1331
  117OSM   H16S12275   5.518   4.118   8.013 -0.0682 -1.0111  1.7521
  117OSM   H16T12276   5.354   4.209   8.022 -0.5832  3.0153  1.1767
  117OSM   C17S12277   5.459   4.178   8.208 -0.1320 -0.2867 -0.2644
  117OSM   H17S12278   5.425   4.267   8.267 -0.2398 -0.6800  0.2709
  117OSM   H17T12279   5.560   4.153   8.246 -0.2384 -2.1296 -1.1250
  117OSM   C18S12280   5.370   4.066   8.246  0.4253 -0.0365  0.4247
  117OSM   H18S12281   5.343   4.010   8.154  0.4113 -0.3685  0.6295
  117OSM   H18T12282   5.280   4.123   8.278  1.1784  1.7970 -0.5721
  117OSM   H18U12283   5.400   3.999   8.329 -0.3712  0.4966  1.1613
  117OSM    C1F12284   5.691   3.685   6.781  0.1636 -0.5426  0.1008
  117OSM     OF12285   5.807   3.661   6.731  0.4399  0.4900  0.3588
  117OSM    C2F12286   5.623   3.592   6.872 -0.6819 -0.1417  0.3107
  117OSM    H2F12287   5.658   3.489   6.851 -0.1100 -0.1677  1.3426
  117OSM    H2G12288   5.512   3.592   6.861 -0.5696 -0.0726 -0.9426
  117OSM    C3F12289   5.650   3.613   7.027 -0.4089 -0.3407 -0.0520
  117OSM    H3F12290   5.633   3.718   7.057  1.0452  0.3968 -1.6873
  117OSM    H3G12291   5.756   3.592   7.054  0.0128  2.0811  0.3549
  117OSM    C4F12292   5.571   3.511   7.110  0.1151 -0.4642  0.6124
  117OSM    H4F12293   5.613   3.409   7.090 -0.9985 -1.0567  1.1862
  117OSM    H4G12294   5.463   3.517   7.085  0.1743 -1.2622  0.1331
  117OSM    C5F12295   5.581   3.532   7.262  0.1705  0.0059  0.5697
  117OSM    H5F12296   5.559   3.640   7.280  0.3308  0.0688  0.3820
  117OSM    H5G12297   5.681   3.504   7.300  0.8902 -0.0374 -1.2757
  117OSM    C6F12298   5.480   3.441   7.344  0.4454 -0.6958 -0.9605
  117OSM    H6F12299   5.524   3.342   7.368  0.9815  0.2971  2.8263
  117OSM    H6G12300   5.390   3.436   7.280  0.0602  1.9007 -0.7161
  117OSM    C7F12301   5.455   3.504   7.478  0.3844  0.1080 -0.0055
  117OSM    H7F12302   5.424   3.608   7.455  2.7536  0.7855 -0.4029
  117OSM    H7G12303   5.545   3.505   7.542  1.8598  0.3237 -1.9944
  117OSM    C8F12304   5.331   3.445   7.556  0.7168 -0.3211 -0.1655
  117OSM    H8F12305   5.352   3.338   7.578 -0.6877 -0.4236  0.8458
  117OSM    H8G12306   5.245   3.437   7.486  0.5334 -0.2814  0.0546
  117OSM    C9F12307   5.307   3.518   7.686  0.7409 -0.0605 -0.1820
  117OSM    H9F12308   5.347   3.621   7.687 -0.1428  0.3580 -2.2766
  117OSM   C10F12309   5.225   3.476   7.789 -0.3837  0.1972  0.1179
  117OSM   H10F12310   5.224   3.539   7.880  0.1585  1.3843 -0.6799
  117OSM   C11F12311   5.140   3.350   7.803  0.6191  0.0283  0.0224
  117OSM   H11F12312   5.112   3.305   7.705 -0.6784  0.1487  0.3146
  117OSM   H11G12313   5.039   3.368   7.845  0.7568 -0.0606  0.3899
  117OSM   C12F12314   5.213   3.243   7.881  0.6402  0.5847  0.1953
  117OSM   H12F12315   5.318   3.225   7.850  1.2798  1.7755  1.5981
  117OSM   H12G12316   5.141   3.158   7.877  1.2182  0.1219 -2.4686
  117OSM   C13F12317   5.215   3.275   8.034  0.3749 -0.4126  0.2866
  117OSM   H13F12318   5.273   3.368   8.050 -3.1558  2.0550 -0.1986
  117OSM   H13G12319   5.277   3.201   8.089  1.6159  0.0201 -0.4994
  117OSM   C14F12320   5.082   3.292   8.105 -0.2095  0.1842 -0.3843
  117OSM   H14F12321   5.021   3.199   8.109 -0.0457  0.1148  1.2174
  117OSM   H14G12322   5.009   3.355   8.051 -0.8084 -1.8568 -2.1023
  117OSM   C15F12323   5.094   3.324   8.253  0.4054  0.2341 -0.3205
  117OSM   H15F12324   5.133   3.243   8.318 -2.1962 -1.6257 -0.8844
  117OSM   H15G12325   4.986   3.336   8.277  0.3308  0.8900 -0.9474
  117OSM   C16F12326   5.167   3.458   8.292 -0.2038 -0.3799  0.6447
  117OSM   H16F12327   5.149   3.536   8.216  1.5382 -0.7763 -0.2235
  117OSM   H16G12328   5.276   3.436   8.303  0.3271  2.1180  0.8621
  117OSM   C17F12329   5.111   3.504   8.428  0.3578 -0.6942 -0.0356
  117OSM   H17F12330   5.002   3.516   8.445  0.6108 -0.0339  1.2518
  117OSM   H17G12331   5.137   3.433   8.510  0.1419 -1.1878 -0.3860
  117OSM   C18F12332   5.164   3.640   8.468 -0.3532 -0.4227  0.3862
  117OSM   H18F12333   5.148   3.659   8.576 -3.3581 -1.0894  0.1461
  117OSM   H18G12334   5.093   3.710   8.418 -0.8250 -0.7340  0.6065
  117OSM   H18H12335   5.269   3.650   8.434  0.6812 -2.1242  2.7703
  118OSM      N12336   6.713   0.407   6.239 -0.6487  0.3846 -0.1626
  118OSM    C1512337   6.596   0.500   6.232  0.1991  0.4215  0.3994
  118OSM   H15A12338   6.615   0.564   6.147 -0.6361  0.8104  0.4996
  118OSM   H15B12339   6.604   0.569   6.315 -1.6382 -0.3795  1.2935
  118OSM   H15C12340   6.503   0.447   6.225  0.2633  0.5214 -1.9086
  118OSM    C1412341   6.744   0.357   6.104  0.2084  0.1240  0.5312
  118OSM   H14A12342   6.790   0.434   6.045  1.0486 -0.7729 -0.0187
  118OSM   H14B12343   6.657   0.323   6.050  0.9726  0.2942 -0.8585
  118OSM   H14C12344   6.816   0.276   6.107 -0.8001 -0.7907  0.6723
  118OSM    C1312345   6.832   0.484   6.283 -0.3033  0.4158 -0.1584
  118OSM   H13A12346   6.817   0.532   6.379 -3.2461 -0.5585 -0.0470
  118OSM   H13B12347   6.851   0.561   6.210 -0.8629 -0.5297 -1.3168
  118OSM   H13C12348   6.915   0.415   6.273 -0.9491 -0.0858 -2.7428
  118OSM    C1212349   6.677   0.305   6.339 -0.1202  0.0582  0.2911
  118OSM   H12A12350   6.593   0.248   6.303 -1.0171  1.7777 -0.4594
  118OSM   H12B12351   6.647   0.355   6.430 -1.0901 -0.2709  0.1632
  118OSM    C1112352   6.783   0.199   6.366  0.4145  0.1441  1.4946
  118OSM   H11A12353   6.749   0.142   6.455 -0.9453  1.8477  2.1220
  118OSM   H11B12354   6.879   0.244   6.401 -1.1040  3.2249  2.0066
  118OSM      P12355   6.713  -0.004   6.218 -0.1735 -0.0330 -0.2433
  118OSM    O1312356   6.583   0.047   6.156 -0.0354  0.3320  0.3267
  118OSM    O1412357   6.786  -0.089   6.122 -0.0114 -0.0292  0.2321
  118OSM    O1112358   6.689  -0.075   6.349 -0.2581  0.8806 -0.0752
  118OSM    O1212359   6.805   0.116   6.246 -0.0065  0.2393  0.0884
  118OSM    C1S12360   6.800  -0.140   6.407  0.5006  0.1926  0.1811
  118OSM    H1S12361   6.901  -0.102   6.380  2.3530 -3.7531  0.7645
  118OSM    H1T12362   6.813  -0.242   6.365 -2.4530  1.0252 -3.1959
  118OSM     NF12363   6.923  -0.187   6.621 -0.4198 -0.1503 -0.2839
  118OSM    HNF12364   6.939  -0.281   6.652  1.6260 -0.7578 -2.8378
  118OSM    C2S12365   6.788  -0.155   6.564 -0.2969  0.2387 -0.3006
  118OSM    H2S12366   6.759  -0.055   6.602 -1.3323  0.3395 -1.3121
  118OSM    C3S12367   6.674  -0.255   6.598  0.8988  0.6146  0.5291
  118OSM    H3S12368   6.713  -0.354   6.567 -0.1731  0.7444 -1.3812
  118OSM     O312369   6.547  -0.232   6.532  0.0928 -0.2349  0.2253
  118OSM    HO312370   6.566  -0.173   6.458 -2.4121  0.7667  0.2796
  118OSM    C4S12371   6.651  -0.264   6.747  0.0725 -0.1313 -0.7153
  118OSM    H4S12372   6.686  -0.361   6.786  0.3978  0.7122  1.2376
  118OSM    C5S12373   6.577  -0.181   6.827 -0.0137 -0.8511 -0.0731
  118OSM    H5S12374   6.519  -0.100   6.780 -0.2311  0.2593  2.0036
  118OSM    C6S12375   6.550  -0.197   6.973 -0.7772 -0.1666 -0.3997
  118OSM    H6S12376   6.450  -0.159   7.003  0.6700  1.2846  3.1618
  118OSM    H6T12377   6.619  -0.138   7.037 -1.1940  0.8190 -0.8444
  118OSM    C7S12378   6.587  -0.330   7.037  0.5446  0.1664  0.4495
  118OSM    H7S12379   6.691  -0.362   7.012  0.3554  1.6050 -2.6232
  118OSM    H7T12380   6.523  -0.405   6.986  0.3633  0.2058  0.6175
  118OSM    C8S12381   6.573  -0.336   7.192  0.3965  0.5623  0.8365
  118OSM    H8S12382   6.493  -0.410   7.210 -0.5431  0.7686 -2.0178
  118OSM    H8T12383   6.535  -0.240   7.232  1.2332  1.3351 -0.1606
  118OSM    C9S12384   6.712  -0.354   7.256  0.1564 -0.2500  0.1556
  118OSM    H9S12385   6.776  -0.268   7.225  0.2338 -0.5680 -0.5850
  118OSM    H9T12386   6.757  -0.441   7.204  1.4071  0.1987  0.4613
  118OSM   C10S12387   6.709  -0.369   7.412  0.4927  1.1789 -0.5842
  118OSM   H10S12388   6.610  -0.414   7.433  1.3746 -1.1671 -1.0982
  118OSM   H10T12389   6.704  -0.263   7.446 -0.7958  0.9269  0.0319
  118OSM   C11S12390   6.818  -0.447   7.492 -0.7838  0.0899 -0.0737
  118OSM   H11S12391   6.915  -0.403   7.460 -0.7819  1.3062  1.5092
  118OSM   H11T12392   6.819  -0.551   7.453  0.3811 -0.2776  0.8575
  118OSM   C12S12393   6.814  -0.444   7.644 -0.0226 -0.1821 -0.0574
  118OSM   H12S12394   6.776  -0.345   7.678 -3.1207  0.1730 -3.8764
  118OSM   H12T12395   6.918  -0.452   7.681 -0.6691  0.1121  1.9937
  118OSM   C13S12396   6.760  -0.575   7.709  0.3127 -0.1197 -0.3428
  118OSM   H13S12397   6.818  -0.662   7.672  0.7733  0.6430 -1.4650
  118OSM   H13T12398   6.652  -0.589   7.687 -0.9320  0.4049  4.2519
  118OSM   C14S12399   6.780  -0.572   7.856  0.5899 -0.5788  0.2403
  118OSM   H14S12400   6.728  -0.483   7.896 -3.0289 -2.0830 -0.7144
  118OSM   H14T12401   6.889  -0.569   7.881  0.1940 -0.6797  2.1471
  118OSM   C15S12402   6.715  -0.695   7.935  0.2021  0.1038  0.2513
  118OSM   H15S12403   6.724  -0.780   7.864 -0.9329  0.6052 -0.5107
  118OSM   H15T12404   6.608  -0.674   7.957 -0.2690 -0.6946 -1.1594
  118OSM   C16S12405   6.790  -0.737   8.059 -0.2272  0.1178 -0.0486
  118OSM   H16S12406   6.779  -0.658   8.137 -0.1037  0.7876 -0.6917
  118OSM   H16T12407   6.897  -0.739   8.030 -0.5907 -2.2507 -1.4346
  118OSM   C17S12408   6.746  -0.870   8.114 -0.3251 -0.6802  0.3664
  118OSM   H17S12409   6.812  -0.914   8.191 -0.3405  1.0167  1.4154
  118OSM   H17T12410   6.754  -0.938   8.027  2.2210 -0.2814  0.2084
  118OSM   C18S12411   6.596  -0.875   8.162 -0.7084  0.4168  0.0337
  118OSM   H18S12412   6.585  -0.804   8.247  1.9579 -0.6647  1.3876
  118OSM   H18T12413   6.568  -0.980   8.188 -2.4773  0.1539 -2.5708
  118OSM   H18U12414   6.529  -0.854   8.075 -1.0443 -2.1316 -0.4069
  118OSM    C1F12415   7.024  -0.106   6.624 -0.1354 -0.0726 -0.0090
  118OSM     OF12416   7.012   0.015   6.596  0.5175 -0.1412 -0.0541
  118OSM    C2F12417   7.160  -0.163   6.655  1.2461  0.7194 -0.2695
  118OSM    H2F12418   7.214  -0.172   6.558  2.0081  1.3584  0.0828
  118OSM    H2G12419   7.139  -0.266   6.690 -2.0579  0.8499 -1.5060
  118OSM    C3F12420   7.241  -0.080   6.759 -0.7723 -0.5219  0.6025
  118OSM    H3F12421   7.188  -0.082   6.856  1.0801 -1.4751  1.6680
  118OSM    H3G12422   7.245   0.024   6.720  1.1052 -0.6955  0.2099
  118OSM    C4F12423   7.387  -0.125   6.767  0.1160  0.0876  0.1113
  118OSM    H4F12424   7.431  -0.132   6.665  0.9125 -3.5846  0.5545
  118OSM    H4G12425   7.386  -0.234   6.791 -1.8540 -0.8948 -3.6032
  118OSM    C5F12426   7.478  -0.046   6.858 -0.1460 -0.1713 -0.6637
  118OSM    H5F12427   7.444   0.057   6.832 -0.2199  0.3840  1.4353
  118OSM    H5G12428   7.583  -0.033   6.827  0.0273  1.6579  0.5292
  118OSM    C6F12429   7.462  -0.070   7.009  0.1147 -0.1772  0.6036
  118OSM    H6F12430   7.544  -0.134   7.049  0.6930 -1.0258 -1.7818
  118OSM    H6G12431   7.373  -0.136   7.017 -0.8195  0.9169 -0.3656
  118OSM    C7F12432   7.444   0.051   7.100 -0.4668 -0.6243  0.6317
  118OSM    H7F12433   7.353   0.104   7.063  0.0291 -1.0007 -1.2268
  118OSM    H7G12434   7.532   0.118   7.101  1.4923 -3.0426  1.5626
  118OSM    C8F12435   7.414   0.001   7.245  0.4223 -0.6166  0.1831
  118OSM    H8F12436   7.479  -0.081   7.284  2.8346  0.4688 -1.3341
  118OSM    H8G12437   7.316  -0.052   7.241  0.6738 -1.0217 -2.6557
  118OSM    C9F12438   7.410   0.117   7.344 -0.4309 -0.1177 -0.1256
  118OSM    H9F12439   7.348   0.200   7.309  1.1647  0.4168 -1.8824
  118OSM   C10F12440   7.476   0.127   7.459  0.6787  0.1519 -0.3574
  118OSM   H10F12441   7.460   0.223   7.509 -0.9865  0.2301 -0.9578
  118OSM   C11F12442   7.565   0.021   7.520 -0.6652 -0.1372 -0.0645
  118OSM   H11F12443   7.668   0.053   7.546  0.5357 -1.6323 -2.5576
  118OSM   H11G12444   7.579  -0.072   7.461 -1.9435  0.0486 -0.6931
  118OSM   C12F12445   7.502  -0.012   7.655  0.4879 -0.1167 -0.3124
  118OSM   H12F12446   7.551  -0.100   7.702 -1.9166 -1.2782  0.2095
  118OSM   H12G12447   7.396  -0.038   7.633  0.4508  0.9506 -1.5091
  118OSM   C13F12448   7.512   0.099   7.764 -0.1135  0.1145  0.3266
  118OSM   H13F12449   7.450   0.084   7.855  0.0852  0.1959  0.4759
  118OSM   H13G12450   7.474   0.192   7.717 -0.1156 -0.0715 -0.0361
  118OSM   C14F12451   7.657   0.132   7.817 -0.1610  0.2311  0.6618
  118OSM   H14F12452   7.722   0.143   7.727 -2.1234 -1.0240 -1.0079
  118OSM   H14G12453   7.698   0.038   7.861 -1.4741 -0.7843 -0.1994
  118OSM   C15F12454   7.664   0.254   7.897  0.1229 -0.1351 -0.1629
  118OSM   H15F12455   7.597   0.239   7.985  1.9339  0.8714  1.4609
  118OSM   H15G12456   7.635   0.334   7.826  1.5648 -1.2553 -2.1211
  118OSM   C16F12457   7.806   0.288   7.949  0.0380 -0.5414 -0.0811
  118OSM   H16F12458   7.797   0.385   8.002  1.3639 -0.7119  0.4998
  118OSM   H16G12459   7.881   0.295   7.868  1.1597  3.7322  1.0891
  118OSM   C17F12460   7.850   0.178   8.053 -0.9656  0.8573 -0.5645
  118OSM   H17F12461   7.844   0.077   8.007 -3.1632 -0.1978  1.7923
  118OSM   H17G12462   7.801   0.185   8.153  1.6463 -1.6907  1.0681
  118OSM   C18F12463   7.995   0.209   8.090 -0.0019  0.0879  0.6031
  118OSM   H18F12464   8.010   0.304   8.146  2.5834  1.4185 -2.0555
  118OSM   H18G12465   8.052   0.218   7.995 -0.9144  2.0727  0.1812
  118OSM   H18H12466   8.043   0.133   8.155 -0.6928 -0.4686  0.4665
  119OSM      N12467   3.544   5.192   5.737  0.4334 -0.4782  0.3766
  119OSM    C1512468   3.581   5.320   5.675 -0.3396  0.1851  0.1371
  119OSM   H15A12469   3.514   5.391   5.721 -0.9072  0.6246 -1.3252
  119OSM   H15B12470   3.557   5.328   5.570 -0.5236 -0.9790  0.0774
  119OSM   H15C12471   3.684   5.346   5.695 -0.7786  2.4043 -0.2359
  119OSM    C1412472   3.392   5.171   5.715  0.0793  0.2041 -0.3168
  119OSM   H14A12473   3.344   5.259   5.755  1.0373 -0.3302  2.1413
  119OSM   H14B12474   3.356   5.091   5.778 -0.6905  2.0859  1.7911
  119OSM   H14C12475   3.372   5.142   5.612 -0.6985 -0.4636  0.0077
  119OSM    C1312476   3.609   5.081   5.672 -0.2249 -0.3609  0.5144
  119OSM   H13A12477   3.695   5.040   5.724  0.5426 -0.2623 -0.6353
  119OSM   H13B12478   3.633   5.113   5.571 -2.1532 -1.9113 -0.5073
  119OSM   H13C12479   3.543   4.998   5.651  0.4561 -0.8975  0.4416
  119OSM    C1212480   3.577   5.197   5.887  0.1663  0.1746  0.3445
  119OSM   H12A12481   3.538   5.289   5.927  1.4102  0.4033  1.0587
  119OSM   H12B12482   3.684   5.198   5.895  0.4078 -0.3370 -2.0169
  119OSM    C1112483   3.512   5.081   5.968 -0.2395  0.5671 -0.2841
  119OSM   H11A12484   3.553   5.090   6.071  2.3124 -0.0200 -1.1911
  119OSM   H11B12485   3.540   4.980   5.931 -0.5590  0.2434  0.3224
  119OSM      P12486   3.273   4.968   5.996 -0.1607  0.3953 -0.0038
  119OSM    O1312487   3.140   5.022   6.037  0.2763 -0.9947  0.1875
  119OSM    O1412488   3.276   4.890   5.870 -0.0709  0.8674 -0.8224
  119OSM    O1112489   3.326   4.873   6.109  0.1754 -0.1375 -0.7138
  119OSM    O1212490   3.373   5.092   5.986 -0.1727  0.2919  0.1275
  119OSM    C1S12491   3.366   4.932   6.237  0.0425 -0.3568  0.2307
  119OSM    H1S12492   3.346   5.041   6.247 -0.6621 -0.4952  0.3624
  119OSM    H1T12493   3.474   4.912   6.250  0.4693  1.2878 -0.5340
  119OSM     NF12494   3.364   4.942   6.486  0.0146  0.0437  0.0311
  119OSM    HNF12495   3.437   4.893   6.533 -0.6234  1.7744  3.1599
  119OSM    C2S12496   3.303   4.880   6.367 -0.0709  0.0506 -0.3983
  119OSM    H2S12497   3.194   4.901   6.363  0.1158  0.8241 -2.4331
  119OSM    C3S12498   3.309   4.727   6.367  0.1744  0.1443  0.3338
  119OSM    H3S12499   3.417   4.701   6.363  0.1211  0.0809 -0.9373
  119OSM     O312500   3.247   4.660   6.256 -0.2315 -0.0412 -0.2030
  119OSM    HO312501   3.218   4.734   6.203 -1.7164 -0.2269  0.3010
  119OSM    C4S12502   3.257   4.680   6.502 -0.7403  0.5068 -0.0746
  119OSM    H4S12503   3.326   4.665   6.586 -1.3652 -2.6716  0.0107
  119OSM    C5S12504   3.122   4.644   6.519  0.3587 -0.1535  0.0787
  119OSM    H5S12505   3.060   4.676   6.434  0.8928 -2.2732 -1.1796
  119OSM    C6S12506   3.062   4.584   6.642 -0.2390 -0.0035 -1.4142
  119OSM    H6S12507   3.086   4.478   6.664  2.7549  1.1713  2.0897
  119OSM    H6T12508   2.953   4.583   6.622 -0.3309 -1.8748 -0.9991
  119OSM    C7S12509   3.096   4.667   6.776 -0.1760 -0.4451  0.0544
  119OSM    H7S12510   3.086   4.775   6.754 -0.7626 -0.7744 -1.5132
  119OSM    H7T12511   3.202   4.645   6.800 -0.4887 -0.0793  1.8695
  119OSM    C8S12512   3.005   4.629   6.883  0.5247 -0.5628 -0.1273
  119OSM    H8S12513   3.026   4.523   6.909  0.8485 -0.7316 -1.0592
  119OSM    H8T12514   2.899   4.635   6.849  0.4014  2.2191  0.4990
  119OSM    C9S12515   3.024   4.702   7.021  0.2174  0.2675  0.6313
  119OSM    H9S12516   2.984   4.805   7.014 -0.6826 -0.1812 -1.9009
  119OSM    H9T12517   3.133   4.697   7.037  0.4525 -0.0037 -0.9165
  119OSM   C10S12518   2.936   4.629   7.133  0.1822  0.0839 -1.1184
  119OSM   H10S12519   2.955   4.520   7.125 -0.1644 -0.0195 -0.5396
  119OSM   H10T12520   2.828   4.645   7.112 -0.2376 -1.1781 -0.0326
  119OSM   C11S12521   2.971   4.679   7.272  0.0158  0.4350  0.1490
  119OSM   H11S12522   2.931   4.781   7.288 -0.7849  0.0766  0.5408
  119OSM   H11T12523   3.080   4.683   7.291  0.3037 -4.4333  0.7442
  119OSM   C12S12524   2.905   4.581   7.366  0.6957 -0.9621 -0.1078
  119OSM   H12S12525   2.950   4.483   7.339 -0.0105 -0.6008 -2.8045
  119OSM   H12T12526   2.800   4.569   7.332 -0.3473  0.0185  2.4797
  119OSM   C13S12527   2.894   4.599   7.516  0.1301  0.4418 -0.5784
  119OSM   H13S12528   2.873   4.502   7.565 -0.3208  0.7927 -0.0714
  119OSM   H13T12529   2.812   4.668   7.544 -0.1569  0.3949 -1.2789
  119OSM   C14S12530   3.016   4.651   7.583 -0.1509  0.4836 -0.1098
  119OSM   H14S12531   3.027   4.760   7.566  1.1992  0.8627  2.5538
  119OSM   H14T12532   3.106   4.597   7.546  0.7107  1.2139  0.8306
  119OSM   C15S12533   3.021   4.642   7.730 -0.3115  0.5160 -0.1561
  119OSM   H15S12534   3.118   4.691   7.753 -0.3089  0.6363 -0.4286
  119OSM   H15T12535   3.027   4.537   7.766 -0.2778  0.5203 -0.1491
  119OSM   C16S12536   2.916   4.712   7.814  0.2500  0.2474 -0.2070
  119OSM   H16S12537   2.820   4.659   7.794  1.2274 -2.6628  2.1614
  119OSM   H16T12538   2.909   4.819   7.784 -1.6563 -0.5991 -3.2714
  119OSM   C17S12539   2.931   4.715   7.967 -0.7570  0.1078 -0.4769
  119OSM   H17S12540   3.004   4.792   8.000  0.9560 -0.6956 -2.1677
  119OSM   H17T12541   2.980   4.616   7.977 -0.8650  0.2024  1.3178
  119OSM   C18S12542   2.804   4.707   8.044 -0.6414 -0.6433 -0.4130
  119OSM   H18S12543   2.832   4.675   8.147  2.5472 -0.3207 -1.0690
  119OSM   H18T12544   2.750   4.617   8.009 -1.7070 -1.0192  1.9947
  119OSM   H18U12545   2.747   4.802   8.042 -1.3846 -1.0486  0.6077
  119OSM    C1F12546   3.346   5.068   6.521 -0.5362 -0.3687  0.4353
  119OSM     OF12547   3.260   5.131   6.469  0.2304 -0.0517  0.5135
  119OSM    C2F12548   3.433   5.136   6.614  0.1659 -0.5507 -0.2882
  119OSM    H2F12549   3.495   5.207   6.555 -1.0197 -0.1045 -1.0366
  119OSM    H2G12550   3.497   5.052   6.648  0.9919  0.3765  0.5355
  119OSM    C3F12551   3.360   5.204   6.728  0.8752  0.2671  0.4990
  119OSM    H3F12552   3.284   5.133   6.767  2.3815 -1.1538  0.9660
  119OSM    H3G12553   3.306   5.289   6.682  1.6069  0.1301 -0.6595
  119OSM    C4F12554   3.445   5.252   6.841 -0.0764 -0.1129  0.1890
  119OSM    H4F12555   3.510   5.341   6.830 -0.6066  0.1266 -1.1761
  119OSM    H4G12556   3.509   5.169   6.880  1.4442  1.1329  0.4375
  119OSM    C5F12557   3.352   5.283   6.955 -0.0226  0.1113 -0.4882
  119OSM    H5F12558   3.275   5.205   6.969 -0.8300  0.8259 -0.8483
  119OSM    H5G12559   3.290   5.374   6.941 -1.2420  0.2115  3.9170
  119OSM    C6F12560   3.429   5.307   7.087  0.3499 -0.2530 -0.4426
  119OSM    H6F12561   3.520   5.364   7.061 -0.7697  1.1682 -1.4201
  119OSM    H6G12562   3.460   5.210   7.132 -0.4090  0.8199  2.6531
  119OSM    C7F12563   3.335   5.366   7.197  0.0600  0.2942 -0.3463
  119OSM    H7F12564   3.251   5.296   7.218  0.0963  0.9091  2.2405
  119OSM    H7G12565   3.293   5.452   7.139 -0.0599 -1.0206 -2.2906
  119OSM    C8F12566   3.393   5.397   7.335  0.2143 -0.4002 -0.4222
  119OSM    H8F12567   3.493   5.445   7.332 -0.1779  0.4528 -0.0127
  119OSM    H8G12568   3.417   5.296   7.375 -0.0874 -0.6204 -0.7810
  119OSM    C9F12569   3.290   5.454   7.426 -1.3075 -0.0269  0.0813
  119OSM    H9F12570   3.185   5.442   7.396 -1.2607 -3.0972  0.7631
  119OSM   C10F12571   3.313   5.532   7.531  0.3781  0.2895 -0.5392
  119OSM   H10F12572   3.216   5.559   7.576  0.0593  1.7368 -1.9911
  119OSM   C11F12573   3.443   5.574   7.587  0.0752  0.9132  0.4814
  119OSM   H11F12574   3.502   5.482   7.568 -0.7919  0.6731 -1.2536
  119OSM   H11G12575   3.429   5.593   7.695 -0.5208  2.4339  0.1676
  119OSM   C12F12576   3.485   5.700   7.519  0.2962  0.0854  0.3512
  119OSM   H12F12577   3.492   5.703   7.408  0.7902  2.9263  0.3720
  119OSM   H12G12578   3.578   5.734   7.570  1.5434 -3.2257  0.4772
  119OSM   C13F12579   3.383   5.824   7.542 -0.0917 -0.1479  0.8713
  119OSM   H13F12580   3.287   5.792   7.496  0.9532 -0.0160 -1.6016
  119OSM   H13G12581   3.429   5.915   7.497  0.8754  0.2818  2.6444
  119OSM   C14F12582   3.351   5.860   7.689  0.1516 -0.1384 -0.0177
  119OSM   H14F12583   3.448   5.887   7.737 -0.3696 -0.6446  1.3503
  119OSM   H14G12584   3.322   5.767   7.743 -0.4314 -0.5096 -0.9470
  119OSM   C15F12585   3.244   5.971   7.705  0.3098  0.0981 -0.5473
  119OSM   H15F12586   3.170   5.973   7.622  1.9351  2.9592 -2.0593
  119OSM   H15G12587   3.296   6.069   7.704 -0.4594  0.5153 -0.4819
  119OSM   C16F12588   3.159   5.960   7.837 -0.0072  0.1282  0.7927
  119OSM   H16F12589   3.236   5.924   7.909  2.5430 -0.5689 -2.0610
  119OSM   H16G12590   3.080   5.882   7.829  0.1377 -0.0947  1.4667
  119OSM   C17F12591   3.099   6.094   7.878  0.0884  0.1205 -0.6566
  119OSM   H17F12592   3.014   6.138   7.822 -1.4691  0.6351  1.9333
  119OSM   H17G12593   3.191   6.157   7.872 -0.2357  0.6657 -0.1055
  119OSM   C18F12594   3.068   6.079   8.028 -0.3650 -0.2562  0.5203
  119OSM   H18F12595   2.992   5.998   8.030 -3.9310  2.8269  1.0197
  119OSM   H18G12596   3.014   6.167   8.069 -1.0187 -2.0503  3.8793
  119OSM   H18H12597   3.154   6.055   8.094 -0.4762  0.1702  0.8205
  120OSM      N12598   0.280   4.061   6.325  0.2528 -0.2569  0.1718
  120OSM    C1512599   0.150   4.119   6.365  0.3062  0.0348 -0.3971
  120OSM   H15A12600   0.134   4.211   6.311  0.1892  0.3135  0.1082
  120OSM   H15B12601   0.149   4.156   6.466 -2.6074 -1.9982  0.4742
  120OSM   H15C12602   0.067   4.052   6.347  0.1110  0.7102 -2.2969
  120OSM    C1412603   0.288   4.093   6.181 -0.4479 -0.0546 -0.2441
  120OSM   H14A12604   0.217   4.036   6.123  0.6797 -1.1492 -0.5825
  120OSM   H14B12605   0.382   4.046   6.155 -0.3806 -2.2728  3.2763
  120OSM   H14C12606   0.290   4.197   6.153  1.3438 -0.4884 -1.9357
  120OSM    C1312607   0.386   4.138   6.404 -0.5433 -0.4577  0.2811
  120OSM   H13A12608   0.484   4.096   6.384 -0.0356  0.6799  0.2806
  120OSM   H13B12609   0.373   4.134   6.511 -3.6764  0.8050  0.0451
  120OSM   H13C12610   0.381   4.243   6.378 -1.6645 -0.5023  0.3007
  120OSM    C1212611   0.288   3.915   6.353 -0.2848  0.1518 -0.2001
  120OSM   H12A12612   0.200   3.876   6.304  0.0327  1.3478 -1.7860
  120OSM   H12B12613   0.287   3.899   6.460 -0.5357 -1.0593 -0.3590
  120OSM    C1112614   0.416   3.847   6.308  0.0505 -0.0267  0.5815
  120OSM   H11A12615   0.435   3.880   6.204 -0.2888 -0.0090  0.5245
  120OSM   H11B12616   0.399   3.737   6.301  0.1957  0.0354 -3.7633
  120OSM      P12617   0.638   3.776   6.417  0.0056 -0.6335  0.4591
  120OSM    O1312618   0.587   3.665   6.496  0.0459  0.1480 -0.1487
  120OSM    O1412619   0.709   3.742   6.291  0.0865 -0.1196 -0.2648
  120OSM    O1112620   0.733   3.864   6.507  0.4244 -0.1625 -0.3966
  120OSM    O1212621   0.526   3.884   6.378 -0.1760 -0.0727  0.3839
  120OSM    C1S12622   0.685   3.952   6.614  0.9792 -0.0244 -0.9353
  120OSM    H1S12623   0.575   3.965   6.614  1.0313  0.4652 -0.5228
  120OSM    H1T12624   0.729   4.054   6.607  0.2809  0.2436 -1.4655
  120OSM     NF12625   0.675   3.995   6.856 -0.1041  0.4231 -0.1889
  120OSM    HNF12626   0.747   4.041   6.907  0.8443  1.4509 -2.3029
  120OSM    C2S12627   0.725   3.900   6.759 -0.8556  0.5674 -0.1376
  120OSM    H2S12628   0.678   3.801   6.780 -0.2887 -0.3422 -2.7146
  120OSM    C3S12629   0.877   3.877   6.769 -0.6118  0.0396 -0.4735
  120OSM    H3S12630   0.924   3.978   6.774 -1.9435  0.6355  1.3567
  120OSM     O312631   0.932   3.808   6.655  0.1930 -0.0530 -0.1158
  120OSM    HO312632   0.859   3.811   6.593 -0.2723 -0.1929  0.4189
  120OSM    C4S12633   0.916   3.813   6.901 -0.1177 -0.8506 -0.4104
  120OSM    H4S12634   0.960   3.888   6.968  0.4807  0.1483 -1.8624
  120OSM    C5S12635   0.908   3.687   6.944 -0.5480 -0.2085  0.1021
  120OSM    H5S12636   0.848   3.615   6.885 -0.9830 -1.4655  1.9781
  120OSM    C6S12637   0.950   3.632   7.073 -0.0656 -0.3355 -0.1187
  120OSM    H6S12638   1.052   3.588   7.065 -0.6280 -2.3806  2.4892
  120OSM    H6T12639   0.874   3.556   7.098 -2.7344  2.1621 -0.1186
  120OSM    C7S12640   0.957   3.734   7.194  0.1630 -0.2244 -0.0510
  120OSM    H7S12641   0.862   3.793   7.195  0.9774  1.1467  0.4132
  120OSM    H7T12642   1.032   3.813   7.172 -1.3459  0.7455 -2.1340
  120OSM    C8S12643   0.982   3.688   7.338  0.4483  0.4640  0.0944
  120OSM    H8S12644   1.092   3.686   7.353  0.6016  1.7586 -0.7217
  120OSM    H8T12645   0.948   3.583   7.347  0.4046  0.5080  0.4682
  120OSM    C9S12646   0.912   3.762   7.454 -0.4127 -0.2717  0.7126
  120OSM    H9S12647   0.803   3.744   7.442 -0.3652 -0.3453  0.4026
  120OSM    H9T12648   0.921   3.872   7.471 -2.6184  0.4874 -2.2377
  120OSM   C10S12649   0.959   3.703   7.591  0.9927  0.4184 -1.4744
  120OSM   H10S12650   1.064   3.735   7.612  0.4067  3.2990 -2.4336
  120OSM   H10T12651   0.941   3.594   7.581 -0.8636  0.7746 -2.4430
  120OSM   C11S12652   0.876   3.759   7.706  0.1624  0.3671 -0.1394
  120OSM   H11S12653   0.767   3.740   7.707  0.1494  0.4379 -0.2330
  120OSM   H11T12654   0.877   3.869   7.694 -0.4078  0.5227  1.0957
  120OSM   C12S12655   0.928   3.714   7.838 -0.2843  0.1679  0.3484
  120OSM   H12S12656   1.034   3.736   7.863 -0.8508  1.0651  2.1229
  120OSM   H12T12657   0.913   3.605   7.855 -1.8914 -0.1095 -2.2211
  120OSM   C13S12658   0.863   3.783   7.963 -0.1621 -0.4206 -0.0916
  120OSM   H13S12659   0.753   3.776   7.948 -0.0705 -0.2587 -0.9138
  120OSM   H13T12660   0.890   3.890   7.950  1.4159 -0.8347 -0.3294
  120OSM   C14S12661   0.903   3.724   8.092 -0.0310 -0.2246  0.2897
  120OSM   H14S12662   1.011   3.738   8.113 -0.1109 -0.5628  0.9817
  120OSM   H14T12663   0.886   3.616   8.111 -1.4253 -0.0118  0.3477
  120OSM   C15S12664   0.823   3.789   8.212 -0.0515  1.0316  0.1946
  120OSM   H15S12665   0.714   3.787   8.190 -0.0101 -3.0930 -0.5464
  120OSM   H15T12666   0.852   3.896   8.213  1.0723  0.8849 -3.1658
  120OSM   C16S12667   0.861   3.708   8.346  0.6921 -0.4642 -0.5520
  120OSM   H16S12668   0.969   3.730   8.359  0.2588  1.1801  0.6595
  120OSM   H16T12669   0.853   3.600   8.323 -0.9292 -0.6590  0.7909
  120OSM   C17S12670   0.780   3.760   8.463 -0.3264  0.1271 -0.1485
  120OSM   H17S12671   0.814   3.693   8.545 -0.2931  1.3522  0.8695
  120OSM   H17T12672   0.669   3.752   8.454 -0.6992 -3.1693  3.9760
  120OSM   C18S12673   0.804   3.896   8.529  0.2901 -0.0185  0.5890
  120OSM   H18S12674   0.734   3.966   8.479  0.7093 -0.3616 -0.5223
  120OSM   H18T12675   0.909   3.934   8.525  0.4425  0.0519  3.5827
  120OSM   H18U12676   0.776   3.883   8.635 -1.6276 -1.0150  0.0178
  120OSM    C1F12677   0.545   4.008   6.892 -0.0378 -0.2838 -0.2970
  120OSM     OF12678   0.462   3.935   6.840  0.5599  0.3884 -0.6050
  120OSM    C2F12679   0.507   4.102   7.002  0.4029 -0.2805 -0.6265
  120OSM    H2F12680   0.516   4.203   6.955  1.4460 -0.0823 -0.0334
  120OSM    H2G12681   0.575   4.079   7.086  1.9491 -3.2185 -2.5163
  120OSM    C3F12682   0.361   4.070   7.060 -0.4523  0.2416  0.2114
  120OSM    H3F12683   0.354   3.962   7.083 -0.7000  0.5121  1.4890
  120OSM    H3G12684   0.293   4.089   6.975 -0.4788 -0.4381  0.0738
  120OSM    C4F12685   0.323   4.142   7.192 -0.3874  0.1274  0.2316
  120OSM    H4F12686   0.325   4.252   7.172  1.4617  0.1283  0.2302
  120OSM    H4G12687   0.401   4.131   7.271  0.8612  2.1759 -0.6401
  120OSM    C5F12688   0.181   4.097   7.243  0.2047  0.0265 -0.0979
  120OSM    H5F12689   0.184   3.991   7.276 -2.2578  0.1994  0.9013
  120OSM    H5G12690   0.114   4.116   7.156 -0.3915 -2.6578 -0.3253
  120OSM    C6F12691   0.139   4.182   7.367 -0.4049  0.3484 -0.4032
  120OSM    H6F12692   0.029   4.169   7.381 -0.2628 -1.2025 -0.6364
  120OSM    H6G12693   0.165   4.289   7.351  0.6364  0.2101  0.2836
  120OSM    C7F12694   0.205   4.131   7.494  0.4823 -0.4505 -0.1445
  120OSM    H7F12695   0.313   4.130   7.468  0.7638 -0.4814  0.9762
  120OSM    H7G12696   0.162   4.033   7.522 -0.4218  0.5738  2.2911
  120OSM    C8F12697   0.177   4.232   7.610 -0.5934  0.2744 -0.1513
  120OSM    H8F12698   0.068   4.243   7.626 -0.6173  0.1307 -0.2127
  120OSM    H8G12699   0.208   4.334   7.579  1.0160 -0.4071 -0.9007
  120OSM    C9F12700   0.255   4.206   7.741 -0.0654  0.5761  0.2438
  120OSM    H9F12701   0.347   4.155   7.710 -1.4878 -1.8205 -0.2205
  120OSM   C10F12702   0.210   4.219   7.873  0.1701  0.2490  0.9294
  120OSM   H10F12703   0.276   4.193   7.957 -0.3204  0.3611  1.3603
  120OSM   C11F12704   0.071   4.263   7.914  0.0964  0.1657 -0.0808
  120OSM   H11F12705   0.014   4.179   7.958 -0.3058 -1.9307 -4.1467
  120OSM   H11G12706   0.017   4.303   7.825 -2.6670 -1.8341  0.5777
  120OSM   C12F12707   0.063   4.386   8.013  0.1959  0.3453 -0.7444
  120OSM   H12F12708   0.009   4.475   7.976  1.1228  1.0034 -0.5234
  120OSM   H12G12709   0.166   4.421   8.035  0.4099 -1.8356  2.6167
  120OSM   C13F12710   0.002   4.341   8.148 -0.1784 -0.3449  0.3244
  120OSM   H13F12711   0.063   4.260   8.193  0.1953  0.6799  1.7165
  120OSM   H13G12712  -0.101   4.300   8.135 -0.1987 -0.0665 -0.5020
  120OSM   C14F12713  -0.010   4.464   8.254  0.8533  0.4358 -0.5634
  120OSM   H14F12714  -0.060   4.427   8.347 -0.5967  0.7291 -1.2017
  120OSM   H14G12715  -0.060   4.547   8.199  1.6342  0.4047 -1.3253
  120OSM   C15F12716   0.127   4.515   8.296 -0.3316 -0.5384  0.1430
  120OSM   H15F12717   0.184   4.527   8.202 -0.0484 -2.3381  0.0441
  120OSM   H15G12718   0.192   4.442   8.349  0.6382 -0.3068 -0.6843
  120OSM   C16F12719   0.127   4.649   8.380  0.0155 -0.2343 -0.5082
  120OSM   H16F12720   0.066   4.722   8.322  1.1510  1.1886  0.0453
  120OSM   H16G12721   0.229   4.690   8.393  0.5877 -2.1911  2.0475
  120OSM   C17F12722   0.056   4.627   8.518 -0.0678  0.4121 -0.1327
  120OSM   H17F12723   0.128   4.555   8.562  0.1180  0.2434 -0.6974
  120OSM   H17G12724  -0.041   4.574   8.506  0.3059 -0.5920  1.0729
  120OSM   C18F12725   0.042   4.752   8.605  0.5759  0.4686  0.3223
  120OSM   H18F12726  -0.009   4.830   8.544  0.2734 -0.0161 -0.0581
  120OSM   H18G12727   0.135   4.794   8.647  1.9436 -1.5398 -0.5430
  120OSM   H18H12728  -0.028   4.731   8.689  0.0044  0.8107 -0.0558
  121OSM      N12729   1.699   5.695   6.170  0.7012  0.8264 -0.0147
  121OSM    C1512730   1.709   5.692   6.323 -0.5229  0.0676 -0.4780
  121OSM   H15A12731   1.781   5.622   6.362 -2.1268 -1.7856 -0.7168
  121OSM   H15B12732   1.609   5.691   6.363 -1.1566  2.0438 -1.9104
  121OSM   H15C12733   1.737   5.793   6.350 -0.0798  0.0662 -0.9191
  121OSM    C1412734   1.608   5.808   6.146 -0.1972 -0.6210  0.4339
  121OSM   H14A12735   1.579   5.810   6.042 -1.1320 -0.4528  0.6823
  121OSM   H14B12736   1.643   5.904   6.181 -1.1545  0.4389 -1.3944
  121OSM   H14C12737   1.521   5.800   6.211  0.6179 -0.1559  1.6275
  121OSM    C1312738   1.829   5.727   6.109  0.0456  0.0335 -0.3378
  121OSM   H13A12739   1.814   5.747   6.004  0.5795  1.9966 -0.0909
  121OSM   H13B12740   1.902   5.648   6.118 -1.2498 -1.4995 -2.3000
  121OSM   H13C12741   1.862   5.823   6.146  1.7038 -1.2423  1.6900
  121OSM    C1212742   1.647   5.565   6.117  0.7425  0.5683  0.5729
  121OSM   H12A12743   1.702   5.480   6.154 -1.1685 -1.2093 -0.4527
  121OSM   H12B12744   1.668   5.558   6.012  0.7578 -1.4606  0.6684
  121OSM    C1112745   1.493   5.540   6.144  0.3876 -0.4746 -0.0732
  121OSM   H11A12746   1.426   5.622   6.112  0.2477 -0.1708  0.9837
  121OSM   H11B12747   1.493   5.536   6.255 -1.0487  1.1571  0.0128
  121OSM      P12748   1.414   5.286   6.159 -0.2811  0.0282 -0.0685
  121OSM    O1312749   1.317   5.209   6.081  0.1148 -0.5943  0.2918
  121OSM    O1412750   1.536   5.212   6.195 -0.2426  0.3517  0.3344
  121OSM    O1112751   1.348   5.336   6.288 -0.6456  0.0615 -0.2913
  121OSM    O1212752   1.455   5.414   6.085 -0.5063  0.0526 -0.1314
  121OSM    C1S12753   1.355   5.251   6.408 -0.1832  0.1441  0.1586
  121OSM    H1S12754   1.447   5.188   6.416  0.1562  0.3119 -1.9800
  121OSM    H1T12755   1.263   5.189   6.404  0.4219 -0.7238 -1.2808
  121OSM     NF12756   1.381   5.249   6.660  0.1933 -0.5978  0.1575
  121OSM    HNF12757   1.307   5.232   6.724  1.4713 -0.3115  1.7507
  121OSM    C2S12758   1.342   5.335   6.542 -0.0285 -0.1595  0.3232
  121OSM    H2S12759   1.414   5.420   6.542  0.3809 -0.4976 -0.2638
  121OSM    C3S12760   1.201   5.399   6.547 -0.5507  0.8715 -0.4457
  121OSM    H3S12761   1.123   5.326   6.578  0.1511  1.0936  2.0808
  121OSM     O312762   1.151   5.457   6.422 -0.8487  0.0031 -0.3124
  121OSM    HO312763   1.219   5.427   6.362  0.9537  0.3669  1.4159
  121OSM    C4S12764   1.188   5.498   6.663 -0.5376  0.1429  0.4381
  121OSM    H4S12765   1.167   5.439   6.753 -2.6144  0.7573  0.4231
  121OSM    C5S12766   1.191   5.634   6.656 -0.1545  0.9167  0.1931
  121OSM    H5S12767   1.202   5.674   6.555  0.5020  1.1314  0.3477
  121OSM    C6S12768   1.163   5.730   6.766  0.1003 -0.2808  0.6286
  121OSM    H6S12769   1.073   5.793   6.749  0.7091  1.3053  2.7686
  121OSM    H6T12770   1.254   5.793   6.777  2.0426 -2.6691 -0.8092
  121OSM    C7S12771   1.151   5.669   6.907 -0.3988 -0.1567  0.0541
  121OSM    H7S12772   1.239   5.604   6.926 -0.8716 -0.2927  2.0247
  121OSM    H7T12773   1.060   5.606   6.911 -1.5327  1.4705  0.7108
  121OSM    C8S12774   1.150   5.773   7.013 -0.2729 -0.1062  0.0186
  121OSM    H8S12775   1.047   5.812   7.005 -0.3397 -0.1114  0.7537
  121OSM    H8T12776   1.222   5.855   6.994 -1.0409  0.4271 -0.6400
  121OSM    C9S12777   1.169   5.713   7.156 -0.0445  0.1910  0.8447
  121OSM    H9S12778   1.272   5.685   7.183 -0.1384  0.3593  1.3867
  121OSM    H9T12779   1.119   5.614   7.148  0.5801 -0.0239 -0.8210
  121OSM   C10S12780   1.093   5.796   7.264 -0.2575  0.1241  0.0219
  121OSM   H10S12781   1.051   5.718   7.331  1.5536 -0.2312  0.8028
  121OSM   H10T12782   1.003   5.848   7.227 -2.2699 -0.6303  3.4142
  121OSM   C11S12783   1.180   5.881   7.351  0.5103 -0.2613 -0.9966
  121OSM   H11S12784   1.216   5.970   7.295 -1.6732  1.8057  0.6733
  121OSM   H11T12785   1.257   5.823   7.405 -1.2443 -1.6844  0.0889
  121OSM   C12S12786   1.097   5.943   7.468  0.1896  0.0116  0.5259
  121OSM   H12S12787   1.046   5.860   7.520 -1.8725 -0.5657 -2.1790
  121OSM   H12T12788   1.016   6.010   7.431  0.1137 -1.0098 -1.2855
  121OSM   C13S12789   1.177   6.015   7.577  0.5387 -0.4770  0.6466
  121OSM   H13S12790   1.212   6.109   7.528  2.2826 -1.5154 -0.2172
  121OSM   H13T12791   1.272   5.962   7.599  0.9427 -0.3985 -0.8194
  121OSM   C14S12792   1.090   6.025   7.699  0.2525 -0.3397  0.1132
  121OSM   H14S12793   1.049   5.927   7.730 -0.0551  0.0192  0.8801
  121OSM   H14T12794   1.008   6.100   7.693 -0.7400 -1.4266 -0.2650
  121OSM   C15S12795   1.177   6.071   7.812 -0.5090  0.1309  0.1822
  121OSM   H15S12796   1.221   6.171   7.795  2.3637 -0.3811  3.3952
  121OSM   H15T12797   1.252   5.991   7.828 -0.2523  0.4444  0.5603
  121OSM   C16S12798   1.103   6.089   7.954  0.1601 -0.2854 -1.1074
  121OSM   H16S12799   1.075   5.988   7.991 -2.2494  0.7427  0.0855
  121OSM   H16T12800   1.016   6.158   7.955 -1.5926 -2.3671 -2.2041
  121OSM   C17S12801   1.190   6.140   8.064  0.6211  0.0982 -0.0842
  121OSM   H17S12802   1.214   6.241   8.025  0.7732 -0.8718 -2.7228
  121OSM   H17T12803   1.288   6.090   8.076  2.5410  3.7407  0.7729
  121OSM   C18S12804   1.106   6.142   8.192  0.1117  0.0721  0.2874
  121OSM   H18S12805   1.160   6.186   8.278  0.7398 -2.2793  1.1684
  121OSM   H18T12806   1.082   6.037   8.220 -1.9998 -0.2052 -2.1679
  121OSM   H18U12807   1.009   6.194   8.177  0.4807 -0.0167 -3.4548
  121OSM    C1F12808   1.503   5.205   6.683  0.1572 -0.4763  0.1098
  121OSM     OF12809   1.586   5.248   6.608 -0.4788  0.3139  0.0322
  121OSM    C2F12810   1.526   5.115   6.794  0.5523 -0.3944 -0.3463
  121OSM    H2F12811   1.510   5.015   6.747 -1.2069 -0.2521 -0.1163
  121OSM    H2G12812   1.455   5.128   6.878 -0.6811 -0.2518 -1.3738
  121OSM    C3F12813   1.672   5.128   6.850  0.1517  0.4218 -1.0531
  121OSM    H3F12814   1.692   5.231   6.886  1.2543  0.0500 -0.5713
  121OSM    H3G12815   1.746   5.093   6.776 -0.4118  0.4476 -1.6396
  121OSM    C4F12816   1.681   5.050   6.987 -0.1975  0.0840  0.6154
  121OSM    H4F12817   1.658   4.945   6.959  2.4966 -0.5247  0.4116
  121OSM    H4G12818   1.618   5.094   7.068 -1.7101  0.7169 -0.8416
  121OSM    C5F12819   1.827   5.040   7.031 -0.4485 -0.2584 -0.2747
  121OSM    H5F12820   1.901   5.054   6.949 -0.4714  3.3735  0.1290
  121OSM    H5G12821   1.853   4.949   7.089  0.2917  0.2502  0.2065
  121OSM    C6F12822   1.861   5.140   7.145 -0.1559 -0.2675  0.2436
  121OSM    H6F12823   1.806   5.103   7.234  0.8115 -0.9299  0.5798
  121OSM    H6G12824   1.821   5.240   7.119 -0.8357 -0.3534  0.9136
  121OSM    C7F12825   2.011   5.144   7.178 -0.3788  0.1334  0.0037
  121OSM    H7F12826   2.067   5.218   7.116 -2.1947  1.5276 -0.0595
  121OSM    H7G12827   2.049   5.043   7.151  1.9294  0.6074  1.2199
  121OSM    C8F12828   2.044   5.175   7.328  0.6120  0.0522  0.0140
  121OSM    H8F12829   2.029   5.284   7.347  1.5774  1.0161 -3.8798
  121OSM    H8G12830   2.154   5.164   7.339  0.6803  0.2459 -0.4165
  121OSM    C9F12831   1.986   5.087   7.438  0.5506  0.3566  1.0786
  121OSM    H9F12832   2.023   4.983   7.433  1.5519  0.7034  0.9498
  121OSM   C10F12833   1.889   5.128   7.519  0.3095  0.2321 -0.4295
  121OSM   H10F12834   1.863   5.057   7.600 -1.7487 -2.0159 -2.8918
  121OSM   C11F12835   1.811   5.253   7.520  0.2243 -0.1750 -0.3372
  121OSM   H11F12836   1.776   5.270   7.416 -2.3567  1.3484  0.6717
  121OSM   H11G12837   1.870   5.341   7.554  0.6394 -1.4283  2.4523
  121OSM   C12F12838   1.686   5.235   7.612 -0.1695 -0.2349 -0.6595
  121OSM   H12F12839   1.631   5.141   7.590 -0.2266 -0.7816  1.6280
  121OSM   H12G12840   1.621   5.318   7.577  0.0523  0.5034  0.6373
  121OSM   C13F12841   1.701   5.257   7.764 -0.1196 -0.1850 -0.8794
  121OSM   H13F12842   1.771   5.338   7.794  1.1854 -1.2529 -0.9410
  121OSM   H13G12843   1.744   5.172   7.821 -0.0788 -0.8425 -1.8789
  121OSM   C14F12844   1.563   5.293   7.825 -0.0617 -0.0958  0.3357
  121OSM   H14F12845   1.512   5.373   7.767 -1.1281  0.4395  1.9318
  121OSM   H14G12846   1.572   5.335   7.927 -3.3714 -1.7573  1.4465
  121OSM   C15F12847   1.469   5.169   7.830 -0.7664 -0.7088 -0.1909
  121OSM   H15F12848   1.522   5.100   7.899 -0.0502 -0.5430 -0.5546
  121OSM   H15G12849   1.468   5.120   7.730 -0.7815  0.5064 -0.8020
  121OSM   C16F12850   1.323   5.194   7.891  0.4428  0.7095  0.5023
  121OSM   H16F12851   1.280   5.092   7.889  3.6203 -0.7214  0.0324
  121OSM   H16G12852   1.259   5.253   7.822  0.8957  1.6705  0.8842
  121OSM   C17F12853   1.320   5.255   8.033  0.8880 -0.2528 -0.0469
  121OSM   H17F12854   1.213   5.264   8.060  0.8261  0.6955 -0.5531
  121OSM   H17G12855   1.351   5.362   8.039 -1.2143  0.4568 -0.8548
  121OSM   C18F12856   1.410   5.173   8.124  0.1928  0.5509 -0.0754
  121OSM   H18F12857   1.515   5.186   8.090  0.8317 -0.1145  1.5423
  121OSM   H18G12858   1.381   5.068   8.101 -4.0097  2.0154 -2.5950
  121OSM   H18H12859   1.411   5.189   8.234  1.7942  2.1208 -0.2752
  122OSM      N12860   1.226   0.940   5.854 -0.1685  0.1050 -0.0006
  122OSM    C1512861   1.212   0.821   5.957 -0.8548  0.5222 -0.2070
  122OSM   H15A12862   1.184   0.725   5.917  1.1063  0.6356 -2.0446
  122OSM   H15B12863   1.136   0.846   6.029 -0.9328  2.4815 -0.8994
  122OSM   H15C12864   1.308   0.814   6.006 -1.0609 -0.9708  0.0200
  122OSM    C1412865   1.327   0.889   5.753  0.4674  0.3976  0.7227
  122OSM   H14A12866   1.296   0.797   5.705  1.8237  0.3809 -0.1856
  122OSM   H14B12867   1.429   0.880   5.788  1.3945  0.6665 -1.7058
  122OSM   H14C12868   1.347   0.955   5.670  1.1834  0.6730  1.0995
  122OSM    C1312869   1.089   0.965   5.790 -0.3551  0.1872  0.7142
  122OSM   H13A12870   1.022   1.003   5.865 -1.1541  1.6254 -0.6919
  122OSM   H13B12871   1.039   0.881   5.744 -0.5648  0.7782 -0.1594
  122OSM   H13C12872   1.093   1.044   5.717  3.1620 -0.0814  0.4323
  122OSM    C1212873   1.275   1.064   5.918 -1.0879  0.6792 -0.3026
  122OSM   H12A12874   1.280   1.146   5.849  1.4293  2.1453  1.4303
  122OSM   H12B12875   1.377   1.045   5.949 -1.7162  1.1071  2.2773
  122OSM    C1112876   1.210   1.105   6.051 -0.4149  0.3936 -0.4332
  122OSM   H11A12877   1.270   1.180   6.106 -0.3258  0.2410 -0.3216
  122OSM   H11B12878   1.214   1.023   6.126  3.8583  1.0320  0.3029
  122OSM      P12879   0.948   1.094   6.088 -0.2591  0.0243 -0.0581
  122OSM    O1312880   0.822   1.172   6.056  0.2203 -0.8597  0.7315
  122OSM    O1412881   0.939   0.952   6.065  0.0957 -0.1547 -0.0164
  122OSM    O1112882   0.982   1.106   6.243 -0.4654  0.2227 -0.2766
  122OSM    O1212883   1.079   1.148   6.017  0.9334  0.1434  0.3600
  122OSM    C1S12884   0.929   1.218   6.315 -0.5729 -0.2908  0.4959
  122OSM    H1S12885   0.822   1.233   6.288 -0.6215 -1.6533 -0.1916
  122OSM    H1T12886   0.973   1.315   6.284 -3.5554  0.9781 -0.1165
  122OSM     NF12887   0.902   1.333   6.529  0.4532 -0.3080 -1.1735
  122OSM    HNF12888   0.972   1.390   6.570  1.5192 -1.8402 -0.7899
  122OSM    C2S12889   0.942   1.208   6.471  0.2225 -0.6499 -0.5101
  122OSM    H2S12890   0.881   1.122   6.506 -1.3384  0.8831  0.6729
  122OSM    C3S12891   1.094   1.171   6.507  0.0227  0.0806 -0.0829
  122OSM    H3S12892   1.175   1.238   6.470 -0.0948  1.4992  2.0704
  122OSM     O312893   1.128   1.049   6.444 -0.1185 -0.0772  0.1604
  122OSM    HO312894   1.063   1.049   6.374  0.7727 -0.0257 -0.6946
  122OSM    C4S12895   1.107   1.158   6.662 -0.0849  0.6616  0.1058
  122OSM    H4S12896   1.028   1.099   6.710 -0.4135  0.6599 -0.4254
  122OSM    C5S12897   1.204   1.220   6.735  0.5016  0.7658  0.0462
  122OSM    H5S12898   1.279   1.267   6.670  0.8998 -1.1281 -0.9128
  122OSM    C6S12899   1.229   1.216   6.885  0.9077  0.0885 -0.5865
  122OSM    H6S12900   1.331   1.190   6.918  0.4538 -0.1584  0.6764
  122OSM    H6T12901   1.176   1.128   6.927  0.7464  0.6022  0.3162
  122OSM    C7S12902   1.186   1.334   6.971  0.6646 -0.2381 -0.2135
  122OSM    H7S12903   1.083   1.368   6.947  0.7368 -0.6156 -1.0782
  122OSM    H7T12904   1.258   1.418   6.967  2.1291 -1.3426  1.5978
  122OSM    C8S12905   1.183   1.280   7.122 -0.1367  0.1165 -0.3547
  122OSM    H8S12906   1.289   1.257   7.147 -0.5431 -0.0940  1.2527
  122OSM    H8T12907   1.116   1.192   7.130  1.3826 -0.8932  2.7684
  122OSM    C9S12908   1.139   1.389   7.226  0.1968 -0.0786 -0.0289
  122OSM    H9S12909   1.032   1.415   7.210  0.2994  2.2792  2.3711
  122OSM    H9T12910   1.200   1.479   7.201  1.3831 -0.9287 -0.3125
  122OSM   C10S12911   1.166   1.363   7.374  0.0861 -0.0235  0.0594
  122OSM   H10S12912   1.270   1.390   7.401  1.0515 -2.9704 -0.3355
  122OSM   H10T12913   1.161   1.252   7.382  1.6247 -0.2520 -1.5368
  122OSM   C11S12914   1.076   1.437   7.467  0.2783  0.4597  0.3172
  122OSM   H11S12915   0.976   1.408   7.427  0.3203 -0.4509  0.8453
  122OSM   H11T12916   1.089   1.545   7.448  1.3594  0.0521 -1.4916
  122OSM   C12S12917   1.093   1.395   7.615  0.4490  0.1042  0.6988
  122OSM   H12S12918   1.009   1.439   7.673  0.2174 -0.5568  0.8753
  122OSM   H12T12919   1.183   1.447   7.654  0.8034  2.0561 -2.3880
  122OSM   C13S12920   1.090   1.249   7.644 -0.1713  0.5429 -0.4919
  122OSM   H13S12921   1.099   1.238   7.754  1.2227  0.7270 -0.5628
  122OSM   H13T12922   1.173   1.185   7.605 -1.6723 -2.2946  0.6555
  122OSM   C14S12923   0.963   1.183   7.608  0.4276  0.4350 -0.5346
  122OSM   H14S12924   0.945   1.176   7.499  0.8779  1.9758 -0.7350
  122OSM   H14T12925   0.884   1.231   7.669  0.8575  1.2549 -0.6140
  122OSM   C15S12926   0.960   1.029   7.654  0.0251  0.5281  0.2842
  122OSM   H15S12927   0.860   0.983   7.637  0.5159 -0.4013 -0.1672
  122OSM   H15T12928   0.964   1.032   7.765 -3.1920  0.3719  0.4783
  122OSM   C16S12929   1.069   0.931   7.589  0.2717  0.0613 -0.1208
  122OSM   H16S12930   1.058   0.838   7.648 -1.3692  2.9653  4.7663
  122OSM   H16T12931   1.171   0.976   7.582  1.7430 -3.2482 -2.1787
  122OSM   C17S12932   1.026   0.887   7.439 -0.0612 -0.1055 -0.2996
  122OSM   H17S12933   1.104   0.824   7.391 -1.5198 -0.9944 -1.5921
  122OSM   H17T12934   1.002   0.980   7.383 -2.7238 -0.3894  0.2267
  122OSM   C18S12935   0.902   0.795   7.446  0.2551  0.1949 -0.4163
  122OSM   H18S12936   0.895   0.728   7.358  4.1107 -0.9285 -0.0613
  122OSM   H18T12937   0.812   0.859   7.456  1.0677  1.6505 -2.1239
  122OSM   H18U12938   0.899   0.721   7.529 -1.8973 -0.0504 -0.6437
  122OSM    C1F12939   0.779   1.383   6.523 -0.1426 -0.2553 -0.0576
  122OSM     OF12940   0.684   1.323   6.476 -0.5100  0.4065  0.5938
  122OSM    C2F12941   0.758   1.520   6.585 -0.8842 -0.3683 -0.2438
  122OSM    H2F12942   0.728   1.593   6.506  1.2700  1.9498  0.9440
  122OSM    H2G12943   0.850   1.551   6.639 -0.6622 -1.7463  0.2073
  122OSM    C3F12944   0.635   1.509   6.683  0.4655 -0.5850 -0.2127
  122OSM    H3F12945   0.654   1.425   6.753 -1.7043  0.2480  1.4737
  122OSM    H3G12946   0.544   1.484   6.624  0.4139 -0.5488 -0.1479
  122OSM    C4F12947   0.607   1.643   6.746  0.1430  0.3362  0.1255
  122OSM    H4F12948   0.604   1.736   6.686 -0.4862  0.1515 -0.1319
  122OSM    H4G12949   0.690   1.664   6.817 -0.2074 -0.1095  0.6874
  122OSM    C5F12950   0.483   1.642   6.831 -0.4097  0.1552 -0.2528
  122OSM    H5F12951   0.483   1.560   6.906  2.4839  1.7495  1.6624
  122OSM    H5G12952   0.390   1.632   6.771 -1.8345  2.7589  1.3512
  122OSM    C6F12953   0.462   1.778   6.918  0.1068 -0.3598  0.1744
  122OSM    H6F12954   0.418   1.853   6.849  0.1426  0.0157  0.5540
  122OSM    H6G12955   0.562   1.816   6.948 -0.3361 -0.6203  2.0842
  122OSM    C7F12956   0.372   1.770   7.043  0.1759 -0.6181  0.1190
  122OSM    H7F12957   0.278   1.716   7.021  0.1634 -0.6793  0.3300
  122OSM    H7G12958   0.329   1.870   7.067 -0.5803 -0.7485 -0.6496
  122OSM    C8F12959   0.442   1.709   7.158 -0.4075 -0.7526 -1.1416
  122OSM    H8F12960   0.527   1.641   7.137 -0.4696 -1.0308 -0.4842
  122OSM    H8G12961   0.370   1.647   7.214  1.2264 -1.7409 -0.0733
  122OSM    C9F12962   0.503   1.817   7.254  0.2770  0.1174 -0.0381
  122OSM    H9F12963   0.611   1.806   7.274  1.2967 -0.3638 -4.7089
  122OSM   C10F12964   0.438   1.916   7.315 -0.0292 -0.1586  0.1990
  122OSM   H10F12965   0.490   1.982   7.385 -1.1542  1.2626 -0.2609
  122OSM   C11F12966   0.289   1.941   7.317  0.7369 -0.0873  0.1647
  122OSM   H11F12967   0.228   1.867   7.259  0.8024 -1.0872  1.3299
  122OSM   H11G12968   0.262   2.041   7.278  0.3154  0.0946  0.9165
  122OSM   C12F12969   0.234   1.919   7.457 -0.1811 -1.0839  0.3913
  122OSM   H12F12970   0.147   1.989   7.466  0.9545  0.2023  2.0994
  122OSM   H12G12971   0.310   1.966   7.523  0.6219  0.6217 -1.6659
  122OSM   C13F12972   0.212   1.781   7.511 -0.0791  0.3793 -0.3537
  122OSM   H13F12973   0.312   1.744   7.544 -0.1674  0.1727 -0.3176
  122OSM   H13G12974   0.176   1.720   7.426 -1.4116 -1.6374  1.5466
  122OSM   C14F12975   0.121   1.765   7.636 -0.7592 -0.0084  0.1917
  122OSM   H14F12976   0.114   1.656   7.653  1.0392 -0.2193 -0.2260
  122OSM   H14G12977   0.023   1.815   7.617 -1.5788 -1.4097  0.6397
  122OSM   C15F12978   0.189   1.825   7.763  0.3425 -0.2867 -0.5712
  122OSM   H15F12979   0.186   1.936   7.750 -0.0693 -0.2932 -0.5511
  122OSM   H15G12980   0.293   1.788   7.777 -0.5746 -2.3985  1.2555
  122OSM   C16F12981   0.104   1.783   7.885 -0.5629 -1.0572  0.2492
  122OSM   H16F12982   0.110   1.672   7.887  1.7746 -0.9928 -0.6452
  122OSM   H16G12983  -0.003   1.813   7.882 -0.6466 -1.2910  0.7749
  122OSM   C17F12984   0.167   1.838   8.015  0.0932  0.3911 -0.1401
  122OSM   H17F12985   0.088   1.821   8.091 -1.3977  3.3598 -0.8611
  122OSM   H17G12986   0.179   1.949   8.005  1.1320  0.4452  1.2841
  122OSM   C18F12987   0.298   1.765   8.052 -0.0976  0.5042 -0.1783
  122OSM   H18F12988   0.293   1.733   8.159 -1.9261  1.4413  0.0677
  122OSM   H18G12989   0.387   1.829   8.034  0.9830 -0.6491  0.8391
  122OSM   H18H12990   0.306   1.663   8.009 -0.9475  0.0221  0.7513
  123OSM      N12991   0.302   2.038   6.563  0.0229 -1.1933  0.3575
  123OSM    C1512992   0.301   2.107   6.697 -0.1498 -0.3542  0.5188
  123OSM   H15A12993   0.233   2.052   6.760  0.0240 -1.6009 -0.3573
  123OSM   H15B12994   0.250   2.200   6.675  2.0398  0.7685 -0.0942
  123OSM   H15C12995   0.404   2.109   6.729  0.3411 -0.0325 -0.9792
  123OSM    C1412996   0.380   2.121   6.460  0.0819 -0.1610 -0.4234
  123OSM   H14A12997   0.411   2.059   6.377  1.6194  2.5960 -2.0546
  123OSM   H14B12998   0.472   2.156   6.505  0.6840 -1.3477 -0.6870
  123OSM   H14C12999   0.319   2.205   6.430 -0.6781 -0.5420  0.0187
  123OSM    C1313000   0.353   1.905   6.584 -0.0587 -0.0871 -0.2634
  123OSM   H13A13001   0.350   1.856   6.487  3.0228 -2.5070  0.7234
  123OSM   H13B13002   0.294   1.847   6.652 -1.3362  0.0023 -1.2498
  123OSM   H13C13003   0.458   1.903   6.607  0.2364 -3.0943 -1.4225
  123OSM    C1213004   0.159   2.034   6.512  0.1576  0.4689 -0.5163
  123OSM   H12A13005   0.105   1.951   6.556  1.6156 -1.7236 -2.6268
  123OSM   H12B13006   0.158   2.019   6.405  0.2303  0.5438 -0.5269
  123OSM    C1113007   0.082   2.176   6.516  0.1023 -0.6575 -0.2665
  123OSM   H11A13008   0.041   2.188   6.619 -0.5250 -1.2813 -0.4362
  123OSM   H11B13009  -0.015   2.170   6.462 -0.5722 -0.1616  0.8560
  123OSM      P13010   0.109   2.431   6.488 -0.1143 -0.1166  0.2729
  123OSM    O1313011   0.180   2.520   6.391  0.4775  0.1106  0.1965
  123OSM    O1413012  -0.038   2.418   6.464  0.2604 -0.4123 -0.5221
  123OSM    O1113013   0.150   2.474   6.637  0.3823  0.1279  0.2901
  123OSM    O1213014   0.165   2.286   6.473 -0.5004  0.3592 -0.4141
  123OSM    C1S13015   0.068   2.428   6.745  0.3523 -0.4459 -0.3877
  123OSM    H1S13016   0.101   2.330   6.784  0.5307 -0.1618  0.1756
  123OSM    H1T13017  -0.039   2.415   6.716  0.0857 -0.3461  0.5138
  123OSM     NF13018  -0.028   2.466   6.950  0.5080  0.1854  0.2301
  123OSM    HNF13019  -0.115   2.514   6.961 -0.7750 -1.7526 -0.8787
  123OSM    C2S13020   0.059   2.532   6.862  0.1223 -0.6688 -0.3167
  123OSM    H2S13021   0.154   2.538   6.920 -0.3303  1.0838  0.3238
  123OSM    C3S13022   0.005   2.668   6.814  0.7459 -0.2057  0.3452
  123OSM    H3S13023  -0.097   2.651   6.774 -0.0215 -0.2336  2.2565
  123OSM     O313024   0.069   2.733   6.702 -0.7353 -0.3923  0.2948
  123OSM    HO313025   0.112   2.665   6.650  0.7914  1.0199 -0.3675
  123OSM    C4S13026  -0.016   2.757   6.938  0.0892  0.0576  0.0415
  123OSM    H4S13027  -0.101   2.739   7.006  1.5620  1.0201  2.2485
  123OSM    C5S13028   0.072   2.840   6.986 -0.0732  0.4339 -0.3082
  123OSM    H5S13029   0.171   2.843   6.940  0.5850  1.8029  1.0933
  123OSM    C6S13030   0.057   2.933   7.100 -0.3037 -0.0774  0.2833
  123OSM    H6S13031   0.062   3.039   7.066  0.5004 -0.0231  0.5615
  123OSM    H6T13032   0.148   2.927   7.163  0.0460 -0.6521 -0.2772
  123OSM    C7S13033  -0.070   2.923   7.190  0.5352 -0.3390  0.4124
  123OSM    H7S13034  -0.075   2.815   7.218  0.1365 -1.2507 -2.7607
  123OSM    H7T13035  -0.159   2.953   7.130  1.3512 -2.0827 -1.8262
  123OSM    C8S13036  -0.063   3.012   7.315 -0.1552  0.2598 -0.8557
  123OSM    H8S13037  -0.047   3.116   7.278  3.9135 -0.0289 -0.3874
  123OSM    H8T13038   0.028   2.983   7.371  0.1054  0.2072 -1.3024
  123OSM    C9S13039  -0.184   2.995   7.414  0.0771  0.3990  0.0541
  123OSM    H9S13040  -0.162   2.914   7.487 -0.1452 -1.8099 -2.1838
  123OSM    H9T13041  -0.268   2.949   7.357 -2.1480  2.2472  1.6424
  123OSM   C10S13042  -0.216   3.125   7.480 -0.5936 -0.0804 -0.8503
  123OSM   H10S13043  -0.300   3.115   7.552 -1.2314 -2.5733 -1.8343
  123OSM   H10T13044  -0.250   3.199   7.406  0.0665  1.6432  0.5087
  123OSM   C11S13045  -0.105   3.182   7.575 -0.2972  0.3174 -0.1932
  123OSM   H11S13046  -0.019   3.216   7.513  0.3443 -0.5795  0.1895
  123OSM   H11T13047  -0.069   3.088   7.621  0.9686 -0.1167 -1.9625
  123OSM   C12S13048  -0.152   3.294   7.675 -0.3859 -0.4153  0.5563
  123OSM   H12S13049  -0.245   3.261   7.727  0.1704 -1.5536  0.8795
  123OSM   H12T13050  -0.186   3.380   7.615 -0.0230  0.5995  1.7679
  123OSM   C13S13051  -0.051   3.348   7.772 -0.1919 -0.6920  0.0752
  123OSM   H13S13052   0.027   3.400   7.711 -2.4413  1.7771 -0.8487
  123OSM   H13T13053  -0.006   3.265   7.831 -1.2931 -0.3642  1.4134
  123OSM   C14S13054  -0.112   3.464   7.850  0.0861  0.0629 -0.4253
  123OSM   H14S13055  -0.176   3.531   7.789 -1.5838 -2.5875 -1.7832
  123OSM   H14T13056  -0.025   3.518   7.892  0.1917 -2.2341  2.5992
  123OSM   C15S13057  -0.191   3.413   7.974 -0.1585 -0.6622  0.2942
  123OSM   H15S13058  -0.163   3.309   8.001 -2.6177 -0.7728  3.0060
  123OSM   H15T13059  -0.299   3.397   7.950 -0.2857  1.6627 -0.8996
  123OSM   C16S13060  -0.179   3.508   8.094 -0.7718 -0.2254  0.6800
  123OSM   H16S13061  -0.160   3.614   8.067 -2.7820  0.2763  1.0659
  123OSM   H16T13062  -0.105   3.473   8.169  0.8705  0.8789 -0.3673
  123OSM   C17S13063  -0.311   3.516   8.169  0.3616  0.3051 -0.3227
  123OSM   H17S13064  -0.277   3.558   8.266  2.0800 -2.7085  0.5100
  123OSM   H17T13065  -0.344   3.412   8.192  0.8852  0.2836  0.3762
  123OSM   C18S13066  -0.425   3.601   8.111 -0.3556 -1.0336 -0.0470
  123OSM   H18S13067  -0.377   3.687   8.060  0.7270 -1.3977  0.3388
  123OSM   H18T13068  -0.494   3.641   8.188  0.4165  1.0106 -0.3731
  123OSM   H18U13069  -0.485   3.534   8.045 -0.3110 -2.7199  1.5346
  123OSM    C1F13070   0.004   2.370   7.036 -0.4979  0.6679  0.2209
  123OSM     OF13071   0.118   2.332   7.041 -0.5006  0.9904  0.1755
  123OSM    C2F13072  -0.096   2.318   7.132 -0.1387  0.0872  0.3899
  123OSM    H2F13073  -0.187   2.331   7.069  0.2594 -0.5166 -0.3342
  123OSM    H2G13074  -0.098   2.376   7.227  3.4158 -0.0912  0.7042
  123OSM    C3F13075  -0.085   2.170   7.170  0.1709 -0.3497 -0.9867
  123OSM    H3F13076   0.022   2.145   7.183  0.4804  0.4693 -1.8635
  123OSM    H3G13077  -0.124   2.109   7.086  0.3092 -1.1177 -0.5091
  123OSM    C4F13078  -0.175   2.126   7.287  1.4714  0.1873  1.0655
  123OSM    H4F13079  -0.169   2.016   7.302 -3.1739 -0.1960  1.5187
  123OSM    H4G13080  -0.282   2.143   7.261  1.4888 -0.5806  0.4663
  123OSM    C5F13081  -0.142   2.194   7.423  0.4868 -0.1922  0.9689
  123OSM    H5F13082  -0.203   2.286   7.414  1.8658  0.4996 -4.0723
  123OSM    H5G13083  -0.033   2.216   7.428  0.7092 -1.4127  2.0468
  123OSM    C6F13084  -0.186   2.100   7.542 -0.2656  0.3784 -0.6709
  123OSM    H6F13085  -0.133   2.004   7.524  0.1871  0.3159  0.8052
  123OSM    H6G13086  -0.293   2.069   7.537  0.2060 -1.0897 -4.1033
  123OSM    C7F13087  -0.148   2.145   7.684 -0.2252 -0.6186  0.0539
  123OSM    H7F13088  -0.214   2.233   7.699 -1.2655 -1.5284  1.0389
  123OSM    H7G13089  -0.046   2.186   7.694  0.0956 -1.7970  2.1996
  123OSM    C8F13090  -0.171   2.033   7.790 -0.0405 -0.4002 -0.4607
  123OSM    H8F13091  -0.102   2.063   7.872  1.2687  2.7615 -2.5156
  123OSM    H8G13092  -0.153   1.934   7.743 -2.9538 -0.2879 -2.0396
  123OSM    C9F13093  -0.305   2.039   7.846 -0.2841 -0.1629 -0.6028
  123OSM    H9F13094  -0.385   2.018   7.774 -0.6373 -1.0690  0.0428
  123OSM   C10F13095  -0.338   2.043   7.973  0.2859 -0.3828  0.6760
  123OSM   H10F13096  -0.443   2.064   7.998  0.6473  2.1038  0.3775
  123OSM   C11F13097  -0.250   2.043   8.096  0.2359  0.7111  0.0692
  123OSM   H11F13098  -0.275   2.126   8.165 -0.1942  0.3775  0.3134
  123OSM   H11G13099  -0.141   2.057   8.075  0.6734 -3.2954 -1.1174
  123OSM   C12F13100  -0.246   1.905   8.161  0.3913 -0.2384 -0.9184
  123OSM   H12F13101  -0.207   1.833   8.086 -2.1875 -2.2117 -0.5079
  123OSM   H12G13102  -0.351   1.876   8.181 -0.4334  1.8470 -2.0127
  123OSM   C13F13103  -0.153   1.884   8.288 -0.1219 -0.3368 -1.2370
  123OSM   H13F13104  -0.193   1.940   8.375  2.8415  2.1899 -1.3642
  123OSM   H13G13105  -0.050   1.923   8.275 -0.3989  0.9166  0.1513
  123OSM   C14F13106  -0.148   1.736   8.335 -0.4412  0.5661  0.5587
  123OSM   H14F13107  -0.110   1.693   8.240  2.9922  0.3197  1.8642
  123OSM   H14G13108  -0.255   1.714   8.350 -0.0299 -1.2600  1.0811
  123OSM   C15F13109  -0.049   1.709   8.452  0.1432 -0.3449  0.6956
  123OSM   H15F13110  -0.077   1.765   8.544 -1.6841 -1.2112  0.7180
  123OSM   H15G13111   0.052   1.741   8.419  1.0633 -3.0085  0.7440
  123OSM   C16F13112  -0.032   1.573   8.500 -0.4705 -0.0884  0.5336
  123OSM   H16F13113  -0.023   1.505   8.412  0.0730 -1.1688  1.4038
  123OSM   H16G13114  -0.121   1.538   8.556 -2.4043  1.8721 -1.1306
  123OSM   C17F13115   0.095   1.559   8.578  0.7068 -0.2984 -0.0482
  123OSM   H17F13116   0.085   1.614   8.674  2.8762 -1.1028  0.7048
  123OSM   H17G13117   0.176   1.616   8.528  1.4503 -0.4900  0.9003
  123OSM   C18F13118   0.127   1.413   8.620 -0.3583 -0.0486  0.1848
  123OSM   H18F13119   0.040   1.380   8.681 -0.5624  0.1209 -0.0146
  123OSM   H18G13120   0.207   1.395   8.694 -0.9631 -0.0046  0.8639
  123OSM   H18H13121   0.154   1.352   8.531  0.7393  1.1438 -0.3241
  124OSM      N13122   6.021   6.291   6.441 -0.0052 -0.4374  0.2093
  124OSM    C1513123   6.134   6.204   6.387  0.3028 -0.2600 -0.6016
  124OSM   H15A13124   6.128   6.103   6.425 -1.4830 -0.9772 -2.5787
  124OSM   H15B13125   6.231   6.244   6.413 -0.2402  0.6190  0.0898
  124OSM   H15C13126   6.129   6.194   6.279 -0.6501  1.6374 -0.7637
  124OSM    C1413127   6.038   6.287   6.588  0.0757  0.3089 -0.4334
  124OSM   H14A13128   6.007   6.192   6.630  0.5335  0.3831  0.0881
  124OSM   H14B13129   5.990   6.367   6.642 -1.4144 -0.5744 -0.4038
  124OSM   H14C13130   6.144   6.307   6.594  0.4217 -1.2847 -0.7174
  124OSM    C1313131   6.034   6.431   6.395  0.4652 -0.0944  0.2807
  124OSM   H13A13132   6.015   6.441   6.290 -2.2515  1.0800  0.8054
  124OSM   H13B13133   6.133   6.471   6.415  1.0620 -1.3181 -0.0987
  124OSM   H13C13134   5.962   6.491   6.448 -0.0697 -1.5237  1.2556
  124OSM    C1213135   5.886   6.232   6.398 -0.3463  0.3080 -0.2930
  124OSM   H12A13136   5.812   6.295   6.445 -1.2639  0.0866 -1.3939
  124OSM   H12B13137   5.868   6.140   6.451 -1.3523 -0.0690 -1.2511
  124OSM    C1113138   5.869   6.218   6.245 -0.4239  0.6449  0.0185
  124OSM   H11A13139   5.884   6.315   6.191  0.1118  0.6132  0.0985
  124OSM   H11B13140   5.765   6.189   6.222 -0.3958  1.0294 -0.6436
  124OSM      P13141   5.908   5.960   6.210 -0.0096  0.2735  0.5066
  124OSM    O1313142   5.797   5.924   6.112  0.4767 -1.0982 -0.2189
  124OSM    O1413143   6.029   5.875   6.193  0.1059  0.2859  0.5119
  124OSM    O1113144   5.856   5.955   6.362 -0.2652 -0.7962  0.2368
  124OSM    O1213145   5.952   6.112   6.189 -0.3208 -0.4731 -0.2188
  124OSM    C1S13146   5.895   5.839   6.438 -0.0655  0.1614 -0.2025
  124OSM    H1S13147   6.005   5.824   6.439 -0.1545 -0.5544 -0.0650
  124OSM    H1T13148   5.859   5.747   6.386 -1.5344  1.6243 -1.9317
  124OSM     NF13149   5.877   5.699   6.642  0.4399 -0.2468  0.0763
  124OSM    HNF13150   5.813   5.628   6.670  0.5167 -0.5770 -0.5823
  124OSM    C2S13151   5.833   5.824   6.579 -0.6388  0.7605  0.0512
  124OSM    H2S13152   5.870   5.907   6.643  2.4993 -1.8085  1.8128
  124OSM    C3S13153   5.681   5.834   6.563 -0.5555  0.3018 -0.6135
  124OSM    H3S13154   5.642   5.739   6.520 -2.3245 -0.2644  2.0206
  124OSM     O313155   5.645   5.945   6.473  0.4454  0.4954  0.1210
  124OSM    HO313156   5.728   5.962   6.428 -0.0417  0.2290 -0.9079
  124OSM    C4S13157   5.610   5.845   6.698 -0.4682 -0.2556 -0.0941
  124OSM    H4S13158   5.547   5.757   6.720 -0.0190 -0.5387  0.0738
  124OSM    C5S13159   5.621   5.950   6.782  0.5882 -0.4351  0.0265
  124OSM    H5S13160   5.665   6.042   6.742 -0.2956  1.1479  2.5090
  124OSM    C6S13161   5.539   5.963   6.907  0.0275 -0.9349 -0.7720
  124OSM    H6S13162   5.495   5.873   6.954 -0.2112 -0.4316 -0.0138
  124OSM    H6T13163   5.444   6.020   6.900  0.0478 -1.1205 -3.4030
  124OSM    C7S13164   5.617   6.026   7.023 -0.9386 -0.0626  0.4123
  124OSM    H7S13165   5.649   6.130   6.999  0.6326  0.0766  2.7341
  124OSM    H7T13166   5.710   5.965   7.035 -0.3514  0.5713 -0.7068
  124OSM    C8S13167   5.545   6.047   7.155 -0.5084 -0.1661  0.4166
  124OSM    H8S13168   5.491   5.953   7.181  1.6881 -1.5783  0.1274
  124OSM    H8T13169   5.468   6.127   7.148  0.5470  0.8677  0.4479
  124OSM    C9S13170   5.647   6.088   7.264  0.2980  0.9545  0.1112
  124OSM    H9S13171   5.687   6.188   7.238 -1.0855  1.2123 -1.1627
  124OSM    H9T13172   5.734   6.020   7.256 -0.8095 -0.4613 -0.3446
  124OSM   C10S13173   5.590   6.090   7.401  0.5781  0.6203  0.0459
  124OSM   H10S13174   5.590   5.985   7.437  2.5806  0.6881  0.3458
  124OSM   H10T13175   5.486   6.128   7.387  0.8458  0.9254 -1.2471
  124OSM   C11S13176   5.671   6.178   7.494 -0.1680 -0.4395 -0.3065
  124OSM   H11S13177   5.670   6.285   7.464  1.7098 -1.2020 -3.4862
  124OSM   H11T13178   5.779   6.162   7.474 -0.1425  0.6148 -1.0780
  124OSM   C12S13179   5.642   6.166   7.646 -0.4979  0.0457 -0.5437
  124OSM   H12S13180   5.668   6.063   7.681  2.6878  1.3678  1.5199
  124OSM   H12T13181   5.533   6.178   7.660 -0.3415 -0.7057  1.7786
  124OSM   C13S13182   5.715   6.273   7.735 -0.0357 -0.3510 -0.1564
  124OSM   H13S13183   5.687   6.254   7.841 -3.4622 -0.6481 -0.9913
  124OSM   H13T13184   5.675   6.372   7.705 -0.4398  0.0317  1.5367
  124OSM   C14S13185   5.868   6.275   7.715  0.8931 -0.0374  0.2439
  124OSM   H14S13186   5.872   6.287   7.604 -1.2158  1.2210  0.2330
  124OSM   H14T13187   5.921   6.187   7.755  1.2710 -0.1548 -0.5071
  124OSM   C15S13188   5.917   6.398   7.792 -0.8818  0.2161 -0.0555
  124OSM   H15S13189   5.867   6.491   7.755 -2.4198 -1.4106 -2.3304
  124OSM   H15T13190   6.026   6.406   7.772 -0.6607 -2.8910 -0.6118
  124OSM   C16S13191   5.892   6.383   7.944  0.0304 -0.2543 -0.4848
  124OSM   H16S13192   5.967   6.314   7.988 -0.6285  0.2613  1.5674
  124OSM   H16T13193   5.788   6.360   7.975  0.1784 -0.3847 -0.0807
  124OSM   C17S13194   5.916   6.520   8.014 -0.6592 -0.0154 -0.1162
  124OSM   H17S13195   5.882   6.606   7.952 -0.6405  0.4975  0.5713
  124OSM   H17T13196   6.026   6.525   8.026 -0.9177 -0.2183  3.2332
  124OSM   C18S13197   5.844   6.523   8.152  0.0908  0.4571  1.1182
  124OSM   H18S13198   5.850   6.419   8.190  0.4121  0.2960  0.6438
  124OSM   H18T13199   5.741   6.563   8.142  0.6698  1.4460 -2.7877
  124OSM   H18U13200   5.908   6.585   8.218  0.7733  1.7714 -0.6833
  124OSM    C1F13201   6.006   5.675   6.671 -0.4273 -0.0309 -0.0508
  124OSM     OF13202   6.089   5.769   6.665 -0.0157  0.2992 -0.1874
  124OSM    C2F13203   6.038   5.540   6.716 -0.3200 -0.0007 -0.0022
  124OSM    H2F13204   6.076   5.473   6.636  0.5658 -0.1944  0.5720
  124OSM    H2G13205   5.956   5.488   6.771 -0.4096  0.4167  0.2591
  124OSM    C3F13206   6.137   5.544   6.836 -0.0235  0.8029 -0.0204
  124OSM    H3F13207   6.093   5.592   6.927  2.5773  0.6016  1.4446
  124OSM    H3G13208   6.231   5.593   6.803  0.0719  0.5232 -0.1625
  124OSM    C4F13209   6.182   5.402   6.887  0.2263  0.1242 -0.4990
  124OSM    H4F13210   6.241   5.363   6.801  0.0118  0.7680 -0.9471
  124OSM    H4G13211   6.094   5.335   6.898  2.2588 -2.3143  2.4204
  124OSM    C5F13212   6.266   5.399   7.011  0.0126  0.1952 -0.2744
  124OSM    H5F13213   6.358   5.461   7.000  0.3078  0.4165  2.5398
  124OSM    H5G13214   6.281   5.295   7.046  4.3220  0.6872 -0.0034
  124OSM    C6F13215   6.190   5.466   7.128  0.2939 -0.0068  0.6308
  124OSM    H6F13216   6.081   5.455   7.148 -0.9468  4.1537 -2.5081
  124OSM    H6G13217   6.200   5.568   7.085 -2.0225 -0.9861 -2.5682
  124OSM    C7F13218   6.263   5.458   7.266  0.0221  0.7873  0.0203
  124OSM    H7F13219   6.348   5.529   7.274  0.9237 -0.3618  0.9799
  124OSM    H7G13220   6.296   5.355   7.291 -1.0247  0.5781  0.5905
  124OSM    C8F13221   6.154   5.507   7.370 -0.3145  0.2783 -0.1076
  124OSM    H8F13222   6.085   5.583   7.328 -0.4395  1.6996  2.4626
  124OSM    H8G13223   6.212   5.544   7.458 -0.2272 -1.3295  0.5481
  124OSM    C9F13224   6.076   5.383   7.413  0.2356 -0.7790  0.5962
  124OSM    H9F13225   6.019   5.339   7.330  1.5150 -1.4042  0.0230
  124OSM   C10F13226   6.070   5.319   7.535  0.2897 -0.2246  0.5351
  124OSM   H10F13227   6.004   5.231   7.537  0.0530 -0.3388 -3.5605
  124OSM   C11F13228   6.150   5.357   7.659  0.1340 -0.8256  0.6788
  124OSM   H11F13229   6.196   5.459   7.660 -0.5699 -0.4922 -0.0064
  124OSM   H11G13230   6.237   5.287   7.660 -0.2148 -1.2657  0.5316
  124OSM   C12F13231   6.082   5.336   7.795  0.3690 -0.6018  0.4943
  124OSM   H12F13232   5.975   5.367   7.792  0.4427 -0.2703 -2.9323
  124OSM   H12G13233   6.124   5.404   7.872 -1.8319  2.2100 -0.6340
  124OSM   C13F13234   6.095   5.191   7.848  0.4691 -0.1558  0.3662
  124OSM   H13F13235   6.200   5.163   7.873  0.9145  1.8233  0.9777
  124OSM   H13G13236   6.059   5.121   7.770 -0.4370 -0.1475  0.7653
  124OSM   C14F13237   6.014   5.169   7.978  0.4732 -0.4747  1.0645
  124OSM   H14F13238   5.911   5.197   7.945  1.1909  0.5642 -0.3554
  124OSM   H14G13239   6.062   5.241   8.048 -1.0543  0.2959  1.3635
  124OSM   C15F13240   6.003   5.029   8.029  0.2310  1.1856 -0.1393
  124OSM   H15F13241   6.101   4.985   8.055  0.8814  1.4945 -1.9366
  124OSM   H15G13242   5.964   4.958   7.952  1.0193  1.3138 -0.6595
  124OSM   C16F13243   5.919   5.023   8.157 -0.1334 -0.7213 -0.8926
  124OSM   H16F13244   5.926   5.120   8.212  0.1555 -1.1865 -0.0931
  124OSM   H16G13245   5.959   4.942   8.222 -0.2204 -0.0642  0.0120
  124OSM   C17F13246   5.775   4.997   8.131  0.5389 -0.5508  0.3856
  124OSM   H17F13247   5.776   4.908   8.064  1.7797 -0.3934  0.1682
  124OSM   H17G13248   5.737   5.092   8.087  1.1052  0.7307  2.5300
  124OSM   C18F13249   5.688   4.975   8.256 -0.2268 -0.0308 -0.5437
  124OSM   H18F13250   5.583   4.958   8.224 -0.9368  0.5868  1.3139
  124OSM   H18G13251   5.690   5.054   8.335 -1.3371 -0.1135 -0.4188
  124OSM   H18H13252   5.740   4.894   8.311 -2.1859 -1.7644 -1.1258
  125OSM      N13253   4.778   4.438   6.421 -0.1470  0.0255  0.1220
  125OSM    C1513254   4.662   4.466   6.509  0.6771 -0.1760 -0.3719
  125OSM   H15A13255   4.687   4.523   6.598 -0.0664 -1.8789  0.9897
  125OSM   H15B13256   4.607   4.381   6.546 -0.8328 -0.3071 -2.7035
  125OSM   H15C13257   4.589   4.519   6.450  1.2254 -2.0364 -2.8730
  125OSM    C1413258   4.847   4.568   6.388  0.4121 -0.3773 -0.2224
  125OSM   H14A13259   4.940   4.555   6.335  0.3529 -0.0974 -0.3936
  125OSM   H14B13260   4.851   4.619   6.484 -0.3237  0.3363 -0.5657
  125OSM   H14C13261   4.784   4.630   6.326  0.5400  0.1062  0.1175
  125OSM    C1313262   4.870   4.356   6.502 -0.1294 -0.2349 -0.2836
  125OSM   H13A13263   4.961   4.340   6.445  0.4185 -0.4401  0.6308
  125OSM   H13B13264   4.820   4.265   6.532 -2.1478  0.5171 -1.1671
  125OSM   H13C13265   4.895   4.406   6.594 -0.9058 -1.9100  0.8737
  125OSM    C1213266   4.738   4.362   6.298  0.1096 -0.0606 -0.5352
  125OSM   H12A13267   4.689   4.271   6.330 -2.5032  1.3444 -0.2857
  125OSM   H12B13268   4.834   4.341   6.254  0.5907 -1.2355  0.9875
  125OSM    C1113269   4.656   4.438   6.191  0.3893 -0.0350  0.3583
  125OSM   H11A13270   4.649   4.369   6.104  0.0539 -0.7278  0.9209
  125OSM   H11B13271   4.705   4.530   6.155 -3.2560  1.6385 -0.8127
  125OSM      P13272   4.439   4.579   6.170 -0.4438  0.1614  0.0880
  125OSM    O1313273   4.507   4.714   6.177  0.0396  0.2950 -0.8025
  125OSM    O1413274   4.424   4.524   6.031  0.1227  0.2759  0.1932
  125OSM    O1113275   4.309   4.587   6.266 -0.0319  0.1935 -0.1053
  125OSM    O1213276   4.530   4.466   6.246 -0.0602  0.0224  0.1766
  125OSM    C1S13277   4.298   4.574   6.403  0.4590 -0.1412 -0.4560
  125OSM    H1S13278   4.397   4.563   6.452  0.0631 -1.3629  0.1081
  125OSM    H1T13279   4.230   4.490   6.429 -0.5948  0.3477 -1.5457
  125OSM     NF13280   4.224   4.644   6.622 -0.6409 -0.5614 -0.2735
  125OSM    HNF13281   4.139   4.618   6.667  0.1045 -0.7517  1.0972
  125OSM    C2S13282   4.227   4.687   6.482 -0.5030 -0.0497 -0.2190
  125OSM    H2S13283   4.290   4.778   6.479 -2.2941  1.3036  1.1028
  125OSM    C3S13284   4.087   4.727   6.429  0.1925  0.1619 -0.1760
  125OSM    H3S13285   4.026   4.635   6.426 -0.5027  0.6320 -1.7316
  125OSM     O313286   4.086   4.774   6.295 -0.4704  0.3227  0.0208
  125OSM    HO313287   4.179   4.781   6.271 -0.3180  1.1839  0.7876
  125OSM    C4S13288   4.017   4.827   6.523  0.6568  0.0275  0.2734
  125OSM    H4S13289   3.915   4.799   6.556  0.0118  2.6109  0.7612
  125OSM    C5S13290   4.071   4.950   6.559 -0.6118  0.0664 -0.7655
  125OSM    H5S13291   4.173   4.977   6.527  0.0438  1.1359  1.9543
  125OSM    C6S13292   4.006   5.045   6.659  0.5164  0.0936 -0.2584
  125OSM    H6S13293   3.985   5.138   6.603 -1.2768 -0.8263 -1.1790
  125OSM    H6T13294   4.088   5.073   6.729  0.1738  3.9551 -1.1773
  125OSM    C7S13295   3.881   5.004   6.736 -0.0955 -0.0462  0.2484
  125OSM    H7S13296   3.892   4.917   6.803 -1.5856 -0.9441 -0.6075
  125OSM    H7T13297   3.813   4.977   6.652 -1.4215 -0.2032  1.3355
  125OSM    C8S13298   3.814   5.126   6.798 -0.0317 -0.3340  0.8138
  125OSM    H8S13299   3.703   5.134   6.800 -0.0221 -0.0070  0.1594
  125OSM    H8T13300   3.854   5.205   6.731  2.1504 -1.7494  0.3245
  125OSM    C9S13301   3.863   5.158   6.934  0.0840 -0.5720  0.0825
  125OSM    H9S13302   3.963   5.205   6.930 -0.3987  0.3981 -1.1205
  125OSM    H9T13303   3.882   5.061   6.985  2.0682 -0.4043 -0.2733
  125OSM   C10S13304   3.767   5.248   7.019  0.4779  0.2094 -0.2663
  125OSM   H10S13305   3.675   5.189   7.037  1.0535 -1.0390 -1.2746
  125OSM   H10T13306   3.748   5.345   6.967  2.5926 -0.4497 -2.4676
  125OSM   C11S13307   3.842   5.285   7.152 -0.2563  0.5481  0.4868
  125OSM   H11S13308   3.928   5.352   7.131  0.6746 -0.9198 -0.5414
  125OSM   H11T13309   3.875   5.194   7.207  0.0518  1.8296  2.5494
  125OSM   C12S13310   3.743   5.349   7.243  0.4132  0.5005  0.3197
  125OSM   H12S13311   3.654   5.288   7.217  1.2212 -1.4912  1.9377
  125OSM   H12T13312   3.727   5.454   7.210  1.3652  0.9160  1.1124
  125OSM   C13S13313   3.765   5.350   7.395 -0.7715  0.1859 -0.2489
  125OSM   H13S13314   3.772   5.248   7.437  0.1663  0.3783  0.0808
  125OSM   H13T13315   3.685   5.407   7.447  0.3382  0.9711  0.6422
  125OSM   C14S13316   3.898   5.421   7.437  0.0748  0.0777 -0.1007
  125OSM   H14S13317   3.880   5.531   7.436  0.2320  0.1008 -1.3388
  125OSM   H14T13318   3.977   5.405   7.360  4.4376  1.4634  3.5885
  125OSM   C15S13319   3.934   5.398   7.584 -0.0773  0.3198 -0.1293
  125OSM   H15S13320   3.958   5.290   7.587 -2.2582 -0.2026  0.9315
  125OSM   H15T13321   3.838   5.404   7.640 -1.0212 -1.7788 -1.3768
  125OSM   C16S13322   4.037   5.495   7.639  0.0865 -0.6095 -0.5532
  125OSM   H16S13323   3.994   5.597   7.625 -1.4932 -0.9473  1.3939
  125OSM   H16T13324   4.120   5.481   7.567  0.5134  1.0893 -0.4382
  125OSM   C17S13325   4.065   5.478   7.782  0.7361  0.2664  0.5020
  125OSM   H17S13326   4.132   5.390   7.792  0.7104  0.3615  1.6556
  125OSM   H17T13327   3.967   5.454   7.829 -0.5716 -1.6888 -2.9233
  125OSM   C18S13328   4.131   5.598   7.851  0.5259 -0.0284 -0.1243
  125OSM   H18S13329   4.232   5.628   7.815  0.1498  1.9834  0.3429
  125OSM   H18T13330   4.140   5.595   7.962  0.3330  3.8285  0.1352
  125OSM   H18U13331   4.070   5.691   7.838 -1.9523 -1.2565  1.7816
  125OSM    C1F13332   4.337   4.639   6.695  0.4566  0.3671 -0.9931
  125OSM     OF13333   4.439   4.700   6.664  0.0195  0.2415  0.3959
  125OSM    C2F13334   4.333   4.539   6.811 -0.3689  0.5299 -0.0912
  125OSM    H2F13335   4.436   4.502   6.833 -0.3387  0.5994 -0.1133
  125OSM    H2G13336   4.275   4.458   6.764  1.1263 -1.0128  0.5999
  125OSM    C3F13337   4.251   4.603   6.923  0.9339  0.4325  0.3319
  125OSM    H3F13338   4.141   4.600   6.910  0.7015 -1.8849  2.2793
  125OSM    H3G13339   4.274   4.712   6.930 -0.4036  0.8279 -0.9864
  125OSM    C4F13340   4.277   4.539   7.058  0.1915  0.2943  0.1879
  125OSM    H4F13341   4.386   4.533   7.076  0.8693  0.3349 -3.2853
  125OSM    H4G13342   4.244   4.433   7.062  0.6774  0.1621  0.9719
  125OSM    C5F13343   4.214   4.619   7.174  1.0220  0.0942 -0.0071
  125OSM    H5F13344   4.106   4.632   7.150  0.8831  0.5998  0.8303
  125OSM    H5G13345   4.253   4.722   7.175 -0.9537  0.9149 -1.3364
  125OSM    C6F13346   4.211   4.560   7.315 -0.7579  0.4055  0.8211
  125OSM    H6F13347   4.286   4.479   7.326 -1.0314  0.2077  1.2698
  125OSM    H6G13348   4.114   4.510   7.336 -0.3145 -0.7441  0.2362
  125OSM    C7F13349   4.214   4.654   7.434  0.0343 -0.2515 -0.2867
  125OSM    H7F13350   4.123   4.713   7.460 -0.0385 -0.4469 -0.0923
  125OSM    H7G13351   4.286   4.733   7.405 -1.2031  1.4303  1.0370
  125OSM    C8F13352   4.279   4.587   7.556  0.3060 -0.3754 -0.7302
  125OSM    H8F13353   4.302   4.676   7.618 -0.5213  0.5064 -1.6498
  125OSM    H8G13354   4.379   4.539   7.557  1.3190  1.6057 -0.5663
  125OSM    C9F13355   4.187   4.490   7.625  0.3776  0.0655 -0.5786
  125OSM    H9F13356   4.141   4.415   7.559 -2.4567  2.1882 -1.2388
  125OSM   C10F13357   4.135   4.509   7.747  0.1291  0.3826  0.0234
  125OSM   H10F13358   4.056   4.437   7.772  0.1646  0.8330  1.4694
  125OSM   C11F13359   4.162   4.624   7.838  0.2085  0.3625 -0.4459
  125OSM   H11F13360   4.081   4.698   7.827  2.0043  2.7477  1.2595
  125OSM   H11G13361   4.265   4.663   7.821  0.6484  0.0054  1.1994
  125OSM   C12F13362   4.158   4.593   7.991  0.0134  0.0817 -0.0297
  125OSM   H12F13363   4.176   4.690   8.042 -1.2020 -0.4162  1.4212
  125OSM   H12G13364   4.245   4.526   8.006  0.3657 -0.3505 -3.2305
  125OSM   C13F13365   4.035   4.527   8.049  0.1028 -1.3024 -0.2338
  125OSM   H13F13366   4.053   4.507   8.157 -1.1039 -1.6639 -0.0884
  125OSM   H13G13367   4.009   4.431   7.999 -1.1276 -1.6563  1.0268
  125OSM   C14F13368   3.912   4.615   8.029  0.4056  0.0877  0.0106
  125OSM   H14F13369   3.853   4.588   7.939  0.2476  1.1559 -0.2215
  125OSM   H14G13370   3.928   4.724   8.016  0.5632 -0.1785 -2.6195
  125OSM   C15F13371   3.831   4.623   8.166 -0.1400 -0.1372  0.4756
  125OSM   H15F13372   3.738   4.676   8.138  0.8736 -0.0835 -3.2715
  125OSM   H15G13373   3.896   4.678   8.237 -0.3886  1.0909 -0.2343
  125OSM   C16F13374   3.791   4.492   8.233  0.7740 -0.3263 -0.5536
  125OSM   H16F13375   3.874   4.420   8.255  0.7695 -0.3903 -0.7433
  125OSM   H16G13376   3.725   4.435   8.164 -0.3302  0.2798 -0.0277
  125OSM   C17F13377   3.720   4.507   8.362 -0.5649  0.1143 -0.1686
  125OSM   H17F13378   3.616   4.541   8.345  0.1307  3.9698  1.9995
  125OSM   H17G13379   3.781   4.592   8.401  1.1765 -0.8162 -0.7660
  125OSM   C18F13380   3.740   4.383   8.448 -0.0588  1.1058  0.1417
  125OSM   H18F13381   3.733   4.294   8.382 -0.0495  0.2400  1.2839
  125OSM   H18G13382   3.657   4.361   8.518  0.3834 -1.0800  0.0402
  125OSM   H18H13383   3.837   4.385   8.501  0.5592  0.9696 -0.9490
  126OSM      N13384   0.492   2.747   6.366 -0.1101 -0.3637  0.1462
  126OSM    C1513385   0.395   2.722   6.479 -0.2676 -0.8901 -0.0256
  126OSM   H15A13386   0.447   2.670   6.559 -0.5472 -3.0351 -1.1565
  126OSM   H15B13387   0.314   2.663   6.439 -1.2920 -0.8806  1.9224
  126OSM   H15C13388   0.350   2.815   6.511  0.9047 -0.4348  0.3511
  126OSM    C1413389   0.442   2.861   6.283  0.4155  0.3935  0.0884
  126OSM   H14A13390   0.509   2.887   6.202  2.5024 -2.0697  0.9177
  126OSM   H14B13391   0.426   2.944   6.350 -1.9562  0.4016 -0.3832
  126OSM   H14C13392   0.341   2.851   6.245  0.7940 -0.1131 -0.8063
  126OSM    C1313393   0.636   2.768   6.426  0.1907  0.2907 -0.8540
  126OSM   H13A13394   0.618   2.833   6.511 -3.3837 -2.5895  0.8869
  126OSM   H13B13395   0.708   2.797   6.351  2.3239  1.3060  1.4553
  126OSM   H13C13396   0.665   2.670   6.461  0.1297 -0.4757 -2.8169
  126OSM    C1213397   0.500   2.619   6.279 -0.1861  0.3786 -0.4035
  126OSM   H12A13398   0.580   2.628   6.206 -0.1728 -2.4330 -0.8327
  126OSM   H12B13399   0.403   2.613   6.232 -1.6985  0.4041  2.4883
  126OSM    C1113400   0.522   2.482   6.353 -0.1222  0.3533 -0.1480
  126OSM   H11A13401   0.483   2.403   6.284  0.0629  1.2031 -1.2566
  126OSM   H11B13402   0.455   2.482   6.441  0.2269 -0.1494  0.1182
  126OSM      P13403   0.692   2.390   6.523  0.0208  0.4833 -0.1253
  126OSM    O1313404   0.652   2.247   6.519 -0.2641 -0.1532 -0.0509
  126OSM    O1413405   0.838   2.415   6.558 -0.1722 -0.1993  0.3075
  126OSM    O1113406   0.607   2.459   6.633 -0.1422 -0.2507  0.8474
  126OSM    O1213407   0.659   2.469   6.389  0.1655  0.1533  0.0954
  126OSM    C1S13408   0.535   2.393   6.734  1.0829  0.4454 -1.1515
  126OSM    H1S13409   0.538   2.282   6.734 -3.0489  0.1701 -0.2670
  126OSM    H1T13410   0.430   2.426   6.725  1.1371  0.3838 -2.1119
  126OSM     NF13411   0.537   2.345   6.982 -0.6397  0.2651  0.2437
  126OSM    HNF13412   0.468   2.369   7.050 -0.4834  0.3688  0.3663
  126OSM    C2S13413   0.574   2.441   6.875  0.1844 -0.3141 -0.1269
  126OSM    H2S13414   0.684   2.444   6.867  0.1003  1.0120 -1.1353
  126OSM    C3S13415   0.515   2.586   6.893  0.1102 -0.6848 -0.1420
  126OSM    H3S13416   0.404   2.582   6.891  0.0991 -1.4528 -3.5242
  126OSM     O313417   0.552   2.681   6.789  0.3092 -0.0101 -0.0405
  126OSM    HO313418   0.576   2.630   6.711  0.4970 -1.3095  0.8243
  126OSM    C4S13419   0.555   2.645   7.027  0.9708  0.0082  0.1502
  126OSM    H4S13420   0.468   2.645   7.095 -1.0485  0.4699 -2.2915
  126OSM    C5S13421   0.667   2.708   7.062 -0.8638  0.3816  0.0028
  126OSM    H5S13422   0.747   2.723   6.988 -1.2842 -1.3459 -0.8450
  126OSM    C6S13423   0.698   2.764   7.200  0.3209  0.1419  0.3155
  126OSM    H6S13424   0.716   2.874   7.203 -0.0272  0.1907  1.1439
  126OSM    H6T13425   0.792   2.717   7.236  0.0505 -0.4842  0.2213
  126OSM    C7S13426   0.594   2.729   7.313 -0.5616 -0.3694  0.5330
  126OSM    H7S13427   0.607   2.620   7.330 -1.3537 -0.5801 -0.1111
  126OSM    H7T13428   0.490   2.758   7.284 -0.2131  0.0264 -0.3668
  126OSM    C8S13429   0.620   2.797   7.449 -0.0630  0.1925 -0.0262
  126OSM    H8S13430   0.630   2.906   7.429 -2.7281  0.7881  1.3063
  126OSM    H8T13431   0.720   2.768   7.487  0.7804  1.9381 -0.8072
  126OSM    C9S13432   0.517   2.764   7.553  0.9105 -0.1256 -0.3472
  126OSM    H9S13433   0.483   2.658   7.548  1.2502 -0.3814  1.8351
  126OSM    H9T13434   0.427   2.830   7.561  0.6620 -0.5685  0.7024
  126OSM   C10S13435   0.580   2.804   7.686 -0.4886  0.1370 -0.5119
  126OSM   H10S13436   0.599   2.913   7.691  0.3885 -0.0288  4.0259
  126OSM   H10T13437   0.681   2.760   7.701  0.4085  2.4309  0.6225
  126OSM   C11S13438   0.508   2.752   7.815 -0.6642 -0.0591 -0.1687
  126OSM   H11S13439   0.482   2.645   7.803  1.8665 -1.0739  2.4207
  126OSM   H11T13440   0.415   2.814   7.820 -0.5299  0.1660 -0.4265
  126OSM   C12S13441   0.591   2.753   7.942 -0.8249  0.4050 -0.2353
  126OSM   H12S13442   0.621   2.855   7.974  0.5439 -0.4106  1.2238
  126OSM   H12T13443   0.684   2.692   7.932 -1.3116 -0.6942  1.4603
  126OSM   C13S13444   0.511   2.701   8.057  0.1896 -0.7655  0.1841
  126OSM   H13S13445   0.481   2.598   8.027 -0.6241 -0.2294 -0.9121
  126OSM   H13T13446   0.417   2.756   8.081 -1.0709 -1.5156 -2.5751
  126OSM   C14S13447   0.585   2.694   8.194  1.0591  0.4776  0.5674
  126OSM   H14S13448   0.592   2.794   8.240  0.2057 -0.9202  4.0531
  126OSM   H14T13449   0.690   2.663   8.174  0.6888 -2.5467  2.6248
  126OSM   C15S13450   0.517   2.595   8.287 -0.0369 -0.1936 -0.4128
  126OSM   H15S13451   0.579   2.591   8.380 -1.4067  2.6615  0.7375
  126OSM   H15T13452   0.518   2.490   8.249  0.8669 -0.5762  0.6037
  126OSM   C16S13453   0.377   2.639   8.335 -0.3944 -0.0225  0.0674
  126OSM   H16S13454   0.300   2.640   8.255  1.3050  0.7395 -1.6313
  126OSM   H16T13455   0.391   2.741   8.376  0.3428 -0.7663  1.7846
  126OSM   C17S13456   0.331   2.554   8.454  0.4462  0.6954  0.0382
  126OSM   H17S13457   0.409   2.566   8.533  0.4695 -0.3272  0.1806
  126OSM   H17T13458   0.334   2.449   8.418  3.7428  1.1861 -1.4609
  126OSM   C18S13459   0.183   2.580   8.503 -0.4803  0.1555 -0.2673
  126OSM   H18S13460   0.162   2.522   8.595 -2.7951  0.9181 -0.2693
  126OSM   H18T13461   0.111   2.550   8.424 -2.0402  2.2725  0.2685
  126OSM   H18U13462   0.171   2.685   8.536  1.4689  0.3736 -0.1209
  126OSM    C1F13463   0.623   2.237   6.998  0.1058  0.2774 -0.7213
  126OSM     OF13464   0.702   2.210   6.913 -0.4014 -0.4687  0.4564
  126OSM    C2F13465   0.602   2.144   7.117 -0.3055 -0.0369 -0.0518
  126OSM    H2F13466   0.608   2.043   7.071  2.1649 -0.8452  1.7904
  126OSM    H2G13467   0.498   2.157   7.153 -1.6913 -2.0947 -2.9839
  126OSM    C3F13468   0.720   2.142   7.220 -0.0591  0.2030  1.2453
  126OSM    H3F13469   0.814   2.121   7.165 -0.6897  0.3531  0.0780
  126OSM    H3G13470   0.691   2.058   7.288 -0.0334  0.4109  1.5144
  126OSM    C4F13471   0.739   2.264   7.306 -0.0117  0.4957 -0.4233
  126OSM    H4F13472   0.769   2.351   7.245  1.8352 -0.1741 -0.5421
  126OSM    H4G13473   0.827   2.237   7.368 -1.1715 -2.5336  0.0831
  126OSM    C5F13474   0.634   2.297   7.417 -0.2543 -0.6446  0.6721
  126OSM    H5F13475   0.545   2.291   7.351  2.3015  0.6645 -3.2583
  126OSM    H5G13476   0.641   2.396   7.466  2.3724 -0.3124 -0.1869
  126OSM    C6F13477   0.630   2.189   7.524 -0.1744 -0.2050 -0.2124
  126OSM    H6F13478   0.613   2.091   7.475 -1.1548 -0.2713  0.2311
  126OSM    H6G13479   0.537   2.213   7.580 -0.2121 -0.0113 -0.3535
  126OSM    C7F13480   0.745   2.184   7.623 -0.0491 -0.5199  0.0512
  126OSM    H7F13481   0.804   2.277   7.608  0.2420 -0.7599 -0.3060
  126OSM    H7G13482   0.819   2.103   7.605  0.6975  0.3123 -0.7015
  126OSM    C8F13483   0.700   2.173   7.767  0.4844 -0.3403 -0.1193
  126OSM    H8F13484   0.649   2.269   7.790  1.3471  0.3619 -1.0620
  126OSM    H8G13485   0.792   2.188   7.828 -0.2144  1.4076  0.5685
  126OSM    C9F13486   0.611   2.052   7.799 -0.7837 -0.1529 -0.0732
  126OSM    H9F13487   0.659   1.954   7.784 -1.2861 -0.2224 -1.3624
  126OSM   C10F13488   0.480   2.054   7.843 -0.1684  0.3100 -0.7537
  126OSM   H10F13489   0.426   1.960   7.860 -0.6298  0.5681 -0.7672
  126OSM   C11F13490   0.404   2.184   7.864  0.0115  0.5689  0.4617
  126OSM   H11F13491   0.299   2.172   7.831  1.1332 -1.8689 -2.7916
  126OSM   H11G13492   0.443   2.265   7.799  1.6782 -1.2123 -0.9047
  126OSM   C12F13493   0.423   2.236   8.006  0.1924  1.0383 -0.4857
  126OSM   H12F13494   0.396   2.343   8.010 -0.4211  0.9218 -1.3437
  126OSM   H12G13495   0.517   2.216   8.061 -1.4638  1.2903  2.7136
  126OSM   C13F13496   0.320   2.159   8.097  0.0071 -0.0739 -0.6098
  126OSM   H13F13497   0.357   2.054   8.102 -0.1077 -0.0744  3.3093
  126OSM   H13G13498   0.216   2.184   8.068 -0.5237 -1.4639  0.0148
  126OSM   C14F13499   0.335   2.214   8.244  0.0913 -0.0541 -0.0898
  126OSM   H14F13500   0.342   2.325   8.246  1.3947 -0.1287  1.4086
  126OSM   H14G13501   0.429   2.181   8.294  0.1319  1.7668  1.1301
  126OSM   C15F13502   0.225   2.160   8.332  0.5393 -0.8618 -0.2996
  126OSM   H15F13503   0.257   2.166   8.438  0.2172 -3.8455  0.0524
  126OSM   H15G13504   0.197   2.052   8.326 -1.0332 -0.4758 -0.4642
  126OSM   C16F13505   0.096   2.242   8.304 -0.6477  0.2874 -0.5235
  126OSM   H16F13506   0.046   2.201   8.214 -2.0386 -1.5460  1.0007
  126OSM   H16G13507   0.135   2.344   8.287  2.4190 -0.3897  1.5454
  126OSM   C17F13508  -0.006   2.240   8.424 -0.2710 -0.1658 -0.0933
  126OSM   H17F13509   0.039   2.281   8.517 -0.3629  2.0754 -0.9793
  126OSM   H17G13510  -0.030   2.132   8.434  0.8430 -0.4488 -0.3777
  126OSM   C18F13511  -0.140   2.320   8.403  0.1231 -0.0436 -1.2298
  126OSM   H18F13512  -0.206   2.295   8.489  0.5578  0.1269 -0.8400
  126OSM   H18G13513  -0.188   2.282   8.311 -0.2041 -0.5746 -0.8478
  126OSM   H18H13514  -0.113   2.428   8.394  2.4652 -0.5661 -1.0864
  127OSM      N13515   5.531   3.593   5.988  0.0639 -0.2351 -0.2323
  127OSM    C1513516   5.542   3.488   6.099 -0.0138  0.2558  0.1123
  127OSM   H15A13517   5.623   3.511   6.167  0.4352  1.5639 -0.8234
  127OSM   H15B13518   5.546   3.391   6.051 -2.0773  0.6861 -1.0450
  127OSM   H15C13519   5.448   3.494   6.151 -0.0939  0.2320 -0.0294
  127OSM    C1413520   5.656   3.583   5.908  0.0590  0.0778  0.2703
  127OSM   H14A13521   5.655   3.500   5.839 -1.6780  1.4398 -1.4677
  127OSM   H14B13522   5.740   3.576   5.975 -1.8852 -0.3362  2.8403
  127OSM   H14C13523   5.675   3.675   5.854  5.9444 -0.7778  0.2475
  127OSM    C1313524   5.409   3.571   5.910 -0.0710  0.2640 -0.4643
  127OSM   H13A13525   5.416   3.471   5.871  2.8096 -0.6546  2.0251
  127OSM   H13B13526   5.398   3.642   5.829 -0.8475 -0.1219 -0.7031
  127OSM   H13C13527   5.328   3.562   5.981  1.7518  1.6676  1.9789
  127OSM    C1213528   5.533   3.735   6.041  0.0678  0.6013  0.2440
  127OSM   H12A13529   5.517   3.798   5.955  0.0201 -0.3044 -0.4275
  127OSM   H12B13530   5.629   3.762   6.081  1.0720 -1.1113 -0.8968
  127OSM    C1113531   5.434   3.767   6.157 -0.9250 -0.2179 -0.5640
  127OSM   H11A13532   5.446   3.873   6.187  0.2955 -0.2765 -0.8062
  127OSM   H11B13533   5.470   3.711   6.247 -2.3777 -0.3273 -0.0231
  127OSM      P13534   5.209   3.672   6.243  0.0405  0.1337  0.2370
  127OSM    O1313535   5.069   3.684   6.193  0.2699 -0.3384  0.3990
  127OSM    O1413536   5.263   3.540   6.281 -0.4177 -0.3233 -0.0877
  127OSM    O1113537   5.232   3.771   6.364 -0.7740  0.2349  0.4242
  127OSM    O1213538   5.299   3.732   6.129 -0.3565  0.1880 -0.1468
  127OSM    C1S13539   5.168   3.735   6.492 -0.1524 -0.4105  0.6459
  127OSM    H1S13540   5.228   3.651   6.535  0.4940  0.4274  1.4202
  127OSM    H1T13541   5.061   3.710   6.481  0.2300 -1.8081 -0.1292
  127OSM     NF13542   5.135   3.825   6.706 -0.2808  0.7857  0.2865
  127OSM    HNF13543   5.039   3.844   6.723 -0.7707  0.3227 -1.7575
  127OSM    C2S13544   5.188   3.861   6.576  0.1363  0.2400  0.5422
  127OSM    H2S13545   5.296   3.887   6.584  0.1432  0.5377 -0.4019
  127OSM    C3S13546   5.120   3.988   6.518  0.2245  0.2216  0.5319
  127OSM    H3S13547   5.010   3.976   6.507 -0.1046  1.4529  2.0622
  127OSM     O313548   5.171   4.032   6.387 -0.1370 -0.2816 -0.2241
  127OSM    HO313549   5.230   3.958   6.370 -1.1750 -1.3743  0.7412
  127OSM    C4S13550   5.146   4.098   6.619  0.0214  0.4449 -0.3517
  127OSM    H4S13551   5.249   4.137   6.626 -0.1224  0.4716  2.5155
  127OSM    C5S13552   5.055   4.150   6.708 -0.2986 -0.1470  0.0335
  127OSM    H5S13553   4.956   4.102   6.709  0.4748 -1.8240  1.5611
  127OSM    C6S13554   5.077   4.264   6.803  0.7833 -0.5870 -0.2413
  127OSM    H6S13555   4.988   4.329   6.791  2.0900  1.7347  1.7961
  127OSM    H6T13556   5.167   4.323   6.774  1.0180 -1.2879 -0.9973
  127OSM    C7S13557   5.111   4.213   6.946 -0.4621 -0.0423 -0.8222
  127OSM    H7S13558   5.198   4.144   6.938 -1.4743 -1.8425  2.0928
  127OSM    H7T13559   5.031   4.158   7.000  0.8459 -1.4947 -0.2907
  127OSM    C8S13560   5.153   4.334   7.039 -0.1432 -0.1005 -0.2084
  127OSM    H8S13561   5.097   4.427   7.018  0.7088  0.1532 -1.4807
  127OSM    H8T13562   5.254   4.374   7.016 -0.8397  1.3262 -0.8714
  127OSM    C9S13563   5.144   4.300   7.185 -0.4091 -0.7236 -0.2499
  127OSM    H9S13564   5.200   4.206   7.203  2.9515  1.0406 -0.6742
  127OSM    H9T13565   5.034   4.291   7.199 -0.5705  2.1036  1.1014
  127OSM   C10S13566   5.203   4.410   7.275  0.5808 -0.1825 -0.4053
  127OSM   H10S13567   5.137   4.500   7.275  1.1070  0.2936  2.8294
  127OSM   H10T13568   5.301   4.443   7.236  0.3697 -0.3249 -1.0836
  127OSM   C11S13569   5.217   4.390   7.429 -0.2627  0.8525  0.5377
  127OSM   H11S13570   5.290   4.467   7.461  1.8158 -0.1141 -1.5898
  127OSM   H11T13571   5.272   4.295   7.450  0.3461  1.4043  1.5685
  127OSM   C12S13572   5.095   4.405   7.519  0.0376 -0.2268 -0.2728
  127OSM   H12S13573   5.023   4.329   7.482  0.0648  0.6926 -2.3475
  127OSM   H12T13574   5.047   4.503   7.500  0.0799 -0.2314 -0.4070
  127OSM   C13S13575   5.131   4.389   7.669  0.4625  0.6688 -0.3572
  127OSM   H13S13576   5.210   4.458   7.705 -1.0385  0.9541  2.6515
  127OSM   H13T13577   5.154   4.281   7.683 -2.3683  0.0543  0.1872
  127OSM   C14S13578   5.009   4.412   7.760 -0.4482  0.4281  0.0270
  127OSM   H14S13579   4.937   4.333   7.732  0.6540  0.1646 -2.3003
  127OSM   H14T13580   4.966   4.506   7.720  1.6213  0.5460 -2.1317
  127OSM   C15S13581   5.062   4.409   7.905  0.4027 -0.3469  0.2695
  127OSM   H15S13582   5.128   4.498   7.913 -0.7819  0.5728  0.0189
  127OSM   H15T13583   5.114   4.316   7.934  1.2821  0.1313  0.2575
  127OSM   C16S13584   4.942   4.432   7.998 -0.3444 -0.2997  0.3397
  127OSM   H16S13585   4.856   4.361   7.992 -0.8246  0.0863  2.0136
  127OSM   H16T13586   4.901   4.535   7.993 -2.2661 -1.0513 -0.1285
  127OSM   C17S13587   5.004   4.410   8.138  0.3239 -0.1968  0.4204
  127OSM   H17S13588   5.090   4.477   8.159 -0.7137  1.5962 -0.7718
  127OSM   H17T13589   5.037   4.304   8.141  1.0918  0.0168 -0.1538
  127OSM   C18S13590   4.903   4.426   8.252  0.2990  0.0952  0.0480
  127OSM   H18S13591   4.918   4.360   8.340 -3.0328 -3.2007 -1.5603
  127OSM   H18T13592   4.804   4.391   8.215  1.4781 -0.6796 -2.6750
  127OSM   H18U13593   4.894   4.534   8.274 -0.2736  0.3849 -1.4658
  127OSM    C1F13594   5.210   3.767   6.793 -0.1110  0.1018  0.1006
  127OSM     OF13595   5.327   3.739   6.774  0.0411 -0.2644 -0.0074
  127OSM    C2F13596   5.129   3.738   6.921 -0.0122 -0.4952  0.4972
  127OSM    H2F13597   5.096   3.632   6.919 -0.6561 -0.3885 -3.5461
  127OSM    H2G13598   5.035   3.798   6.922 -0.1541 -0.7264  1.1177
  127OSM    C3F13599   5.222   3.759   7.047 -0.0211  0.6530 -0.1567
  127OSM    H3F13600   5.253   3.865   7.049  1.0705  0.3728 -1.2600
  127OSM    H3G13601   5.313   3.696   7.038  0.3716  0.8165  2.0757
  127OSM    C4F13602   5.134   3.723   7.171  0.4456 -1.2659 -0.4464
  127OSM    H4F13603   5.093   3.620   7.168 -1.8358 -0.3856 -1.3487
  127OSM    H4G13604   5.054   3.800   7.171  1.7486  0.1519  0.1567
  127OSM    C5F13605   5.207   3.745   7.304  0.9097  0.2094  0.4055
  127OSM    H5F13606   5.313   3.722   7.282  0.9382 -0.3236  1.0625
  127OSM    H5G13607   5.173   3.661   7.369 -0.3406 -2.0649 -2.9444
  127OSM    C6F13608   5.188   3.888   7.366 -0.4110 -0.2991  0.3801
  127OSM    H6F13609   5.081   3.919   7.368  0.2156  2.0396  0.1980
  127OSM    H6G13610   5.236   3.960   7.296 -1.5195  1.0249  0.9279
  127OSM    C7F13611   5.259   3.904   7.507  0.6604  0.4038  0.1498
  127OSM    H7F13612   5.365   3.913   7.475  0.4314 -0.1003 -0.8002
  127OSM    H7G13613   5.233   3.813   7.564  0.6010  1.0762  1.2234
  127OSM    C8F13614   5.209   4.019   7.603 -0.0289  0.3604 -0.6756
  127OSM    H8F13615   5.219   4.114   7.546  0.3424  0.0665 -1.0992
  127OSM    H8G13616   5.274   4.035   7.692 -0.8589  3.3528 -0.4982
  127OSM    C9F13617   5.068   4.006   7.648  0.4198 -0.4121 -0.3141
  127OSM    H9F13618   4.997   4.048   7.576  1.5005 -0.5604 -1.4997
  127OSM   C10F13619   5.026   3.974   7.778  0.3422 -0.5907 -0.8743
  127OSM   H10F13620   4.919   3.960   7.795  0.7015 -1.7662  0.7072
  127OSM   C11F13621   5.110   3.954   7.900 -0.3917  0.4254 -0.4029
  127OSM   H11F13622   5.203   4.014   7.892 -0.0553  0.0186  0.4061
  127OSM   H11G13623   5.142   3.849   7.917 -2.0667 -0.0406  0.0846
  127OSM   C12F13624   5.048   4.015   8.028  0.5534  1.1564  0.3597
  127OSM   H12F13625   5.009   4.118   8.013  1.2307  1.7642  2.4330
  127OSM   H12G13626   5.124   4.012   8.109  0.5725  0.7038  0.3290
  127OSM   C13F13627   4.938   3.922   8.076  0.1658  0.0992  0.4227
  127OSM   H13F13628   4.987   3.824   8.091 -1.6636 -1.3035 -2.0844
  127OSM   H13G13629   4.872   3.909   7.988  2.1513  0.5005 -1.1997
  127OSM   C14F13630   4.871   3.968   8.205  0.6953 -0.3273 -0.1894
  127OSM   H14F13631   4.807   3.886   8.245 -0.9795  1.1866  0.3952
  127OSM   H14G13632   4.807   4.054   8.177 -0.4780 -0.3681  2.0826
  127OSM   C15F13633   4.965   4.015   8.320 -0.2635  0.4963 -0.5626
  127OSM   H15F13634   5.005   4.112   8.282 -0.0451 -0.4349 -2.8745
  127OSM   H15G13635   5.055   3.950   8.322  0.3376  1.3128 -0.4041
  127OSM   C16F13636   4.901   4.021   8.463  0.1577  0.5442  0.7554
  127OSM   H16F13637   4.855   3.920   8.468  0.7760  0.2003 -0.1363
  127OSM   H16G13638   4.814   4.090   8.459 -0.3118 -0.0415 -3.0589
  127OSM   C17F13639   5.007   4.036   8.576  0.0722 -0.1066 -0.2633
  127OSM   H17F13640   5.096   3.975   8.550  0.8638  1.3077 -1.0249
  127OSM   H17G13641   4.972   4.011   8.678 -0.9528  1.5057 -0.1930
  127OSM   C18F13642   5.052   4.181   8.591  0.2931 -0.5841  0.1544
  127OSM   H18F13643   4.981   4.246   8.647 -0.7298 -2.1846  0.7768
  127OSM   H18G13644   5.059   4.219   8.487 -1.2444  1.4192  0.7260
  127OSM   H18H13645   5.153   4.185   8.635  0.1320 -0.6898  0.5319
  128OSM      N13646   3.376   0.945   6.117 -0.0699  0.5238 -0.1019
  128OSM    C1513647   3.350   0.894   5.971 -0.3029 -0.6589  0.3417
  128OSM   H15A13648   3.261   0.945   5.936  1.6015  1.8369 -1.2115
  128OSM   H15B13649   3.346   0.787   5.967  0.1831 -0.7331  1.5286
  128OSM   H15C13650   3.425   0.918   5.897 -0.6991 -0.2980  0.0504
  128OSM    C1413651   3.379   1.095   6.124  0.1162 -0.1449  0.8178
  128OSM   H14A13652   3.446   1.134   6.049 -0.3412 -0.4673  0.2305
  128OSM   H14B13653   3.406   1.122   6.225  2.0188 -0.4415  0.4336
  128OSM   H14C13654   3.278   1.128   6.111  0.2206  0.7370  2.0370
  128OSM    C1313655   3.263   0.890   6.201 -0.4327 -0.2744 -0.0744
  128OSM   H13A13656   3.263   0.782   6.192 -0.0920 -0.1780 -1.4531
  128OSM   H13B13657   3.170   0.938   6.177 -0.0132  1.6802  1.9191
  128OSM   H13C13658   3.271   0.906   6.308  1.1803 -1.2879  0.0032
  128OSM    C1213659   3.512   0.901   6.170  0.1175 -0.0819  0.8561
  128OSM   H12A13660   3.512   0.793   6.171  0.0833 -0.2029 -2.2851
  128OSM   H12B13661   3.519   0.940   6.270  2.1164  0.4922  0.5523
  128OSM    C1113662   3.644   0.956   6.115  0.0031  0.0229 -0.1630
  128OSM   H11A13663   3.648   0.949   6.004  0.2892 -0.4828 -0.1276
  128OSM   H11B13664   3.722   0.889   6.158 -0.4325  0.3039  1.1308
  128OSM      P13665   3.723   1.133   6.296  0.1634 -0.2390  0.3887
  128OSM    O1313666   3.807   1.257   6.280  0.2235  0.7780 -0.1867
  128OSM    O1413667   3.609   1.139   6.394 -0.2221 -0.2245  0.0300
  128OSM    O1113668   3.823   1.014   6.324 -0.2779 -0.4058 -0.2100
  128OSM    O1213669   3.670   1.093   6.157 -0.3790  0.1253  0.2957
  128OSM    C1S13670   3.938   1.027   6.407 -0.0961  0.3210 -0.1230
  128OSM    H1S13671   3.990   1.122   6.385  0.9348  0.0121  0.8751
  128OSM    H1T13672   4.007   0.948   6.368 -0.2512 -0.9611  2.0456
  128OSM     NF13673   4.027   1.032   6.637 -0.8557 -0.3946  0.0047
  128OSM    HNF13674   4.069   0.967   6.701 -0.1011  1.1319  1.1114
  128OSM    C2S13675   3.906   1.000   6.555 -0.4587 -0.7042  0.5417
  128OSM    H2S13676   3.821   1.067   6.582 -1.3396 -0.9465 -1.4559
  128OSM    C3S13677   3.865   0.855   6.587 -0.1395  0.1980  0.5114
  128OSM    H3S13678   3.949   0.786   6.565 -0.9161 -0.1628 -1.5909
  128OSM     O313679   3.763   0.807   6.493 -0.2860  0.6200  0.3124
  128OSM    HO313680   3.771   0.866   6.418  0.7117  0.7418  0.5060
  128OSM    C4S13681   3.812   0.842   6.725 -0.0658  0.2774  0.5263
  128OSM    H4S13682   3.713   0.886   6.742 -0.5222 -1.4142  2.6686
  128OSM    C5S13683   3.867   0.778   6.822 -0.0601 -0.0066 -0.0406
  128OSM    H5S13684   3.958   0.725   6.790 -0.1084  0.7255 -1.4824
  128OSM    C6S13685   3.801   0.771   6.955  0.1777  0.1191 -0.5266
  128OSM    H6S13686   3.786   0.669   6.994 -0.3140 -0.3185 -1.8003
  128OSM    H6T13687   3.701   0.819   6.963  0.3603  0.3300  0.7059
  128OSM    C7S13688   3.892   0.831   7.063  0.2611 -0.3925  0.3293
  128OSM    H7S13689   3.922   0.931   7.025 -2.5913  0.0643 -0.9735
  128OSM    H7T13690   3.982   0.766   7.076  0.6277 -0.2055 -1.0590
  128OSM    C8S13691   3.816   0.843   7.197  0.3766  0.2363  0.9185
  128OSM    H8S13692   3.787   0.745   7.240 -3.0463  0.3154 -0.8537
  128OSM    H8T13693   3.720   0.895   7.176  0.3186 -0.0524  0.4552
  128OSM    C9S13694   3.886   0.922   7.300 -0.0333 -0.4080 -0.9874
  128OSM    H9S13695   3.913   1.021   7.257  1.6069  0.1544  1.1483
  128OSM    H9T13696   3.988   0.893   7.333  0.8002  2.5165 -0.6379
  128OSM   C10S13697   3.801   0.926   7.431 -0.4227 -0.1176 -0.0085
  128OSM   H10S13698   3.773   0.825   7.466  1.5081 -0.0935  1.7502
  128OSM   H10T13699   3.706   0.964   7.386 -0.6520 -1.3981 -0.6652
  128OSM   C11S13700   3.862   1.022   7.534  0.5104 -0.1170  0.8912
  128OSM   H11S13701   3.898   1.097   7.460 -1.7946 -1.7324 -2.0775
  128OSM   H11T13702   3.950   0.986   7.590 -0.2153 -1.1053  1.4274
  128OSM   C12S13703   3.750   1.096   7.607  0.2701 -0.2902  0.1088
  128OSM   H12S13704   3.656   1.115   7.550 -1.4078  0.5859  2.9941
  128OSM   H12T13705   3.781   1.201   7.625 -0.2945  0.5870 -3.3193
  128OSM   C13S13706   3.719   1.034   7.741 -0.3537 -0.0570 -0.3870
  128OSM   H13S13707   3.801   1.057   7.812 -1.8250 -2.5968  2.3386
  128OSM   H13T13708   3.714   0.924   7.730 -0.7966  0.1034 -2.0860
  128OSM   C14S13709   3.591   1.093   7.794  0.1778 -0.3814 -0.1503
  128OSM   H14S13710   3.520   1.098   7.709 -0.5624  0.6232  0.4905
  128OSM   H14T13711   3.610   1.202   7.808  2.4027 -0.9980  2.6629
  128OSM   C15S13712   3.529   1.011   7.902 -0.2771 -0.6448  0.0370
  128OSM   H15S13713   3.582   1.029   7.998 -1.2708  2.3716  0.1333
  128OSM   H15T13714   3.527   0.905   7.870  0.6082  0.1133 -2.8296
  128OSM   C16S13715   3.382   1.051   7.915 -0.0136  0.4596  0.9905
  128OSM   H16S13716   3.339   1.033   7.814 -1.3692  0.3187  1.5743
  128OSM   H16T13717   3.371   1.159   7.938 -0.4080  0.6052  0.1640
  128OSM   C17S13718   3.317   0.967   8.013 -0.4004 -0.0498 -0.1773
  128OSM   H17S13719   3.377   0.971   8.106  0.2209 -1.6225 -0.4712
  128OSM   H17T13720   3.307   0.863   7.975 -0.1853  0.2457 -1.0641
  128OSM   C18S13721   3.176   1.010   8.033  0.4162  0.5549 -0.1764
  128OSM   H18S13722   3.168   1.114   8.072  0.7142  0.2845  0.6388
  128OSM   H18T13723   3.112   0.939   8.090  0.3016  2.1808  1.8427
  128OSM   H18U13724   3.131   0.996   7.932  1.5422  1.0142 -0.7529
  128OSM    C1F13725   4.082   1.151   6.649  0.1394 -0.0033 -0.3250
  128OSM     OF13726   4.019   1.244   6.596  0.2926  0.0705  0.3433
  128OSM    C2F13727   4.202   1.163   6.743  1.2875 -0.0873  0.1255
  128OSM    H2F13728   4.286   1.212   6.689  0.3696  1.7795  0.2839
  128OSM    H2G13729   4.239   1.062   6.768  0.9350  0.3166  2.4946
  128OSM    C3F13730   4.174   1.242   6.868 -0.5979 -0.4243  0.4320
  128OSM    H3F13731   4.152   1.350   6.855 -0.4022 -0.6146 -2.0512
  128OSM    H3G13732   4.271   1.242   6.922  1.0059  1.5956 -2.1772
  128OSM    C4F13733   4.079   1.167   6.964 -0.1773 -0.1063 -0.0313
  128OSM    H4F13734   4.116   1.066   6.990  1.6346  0.6044  0.2867
  128OSM    H4G13735   3.987   1.155   6.903 -0.5055  1.3938  0.1318
  128OSM    C5F13736   4.038   1.256   7.085  0.3405  0.4640  0.5057
  128OSM    H5F13737   3.952   1.208   7.137 -0.1033  0.6003 -0.0930
  128OSM    H5G13738   3.998   1.353   7.048 -0.9259  1.0099  3.0841
  128OSM    C6F13739   4.145   1.287   7.183  0.3261 -0.5131 -0.1728
  128OSM    H6F13740   4.227   1.340   7.131 -2.2471  0.8194 -3.2005
  128OSM    H6G13741   4.194   1.194   7.221  0.2289 -0.6834 -0.4589
  128OSM    C7F13742   4.089   1.360   7.304  0.4614  0.3067 -0.2752
  128OSM    H7F13743   3.999   1.304   7.340 -1.0014  2.0440 -1.0430
  128OSM    H7G13744   4.045   1.453   7.262  0.5413 -0.4666 -2.1629
  128OSM    C8F13745   4.185   1.394   7.417  0.0360 -0.0168 -0.6436
  128OSM    H8F13746   4.138   1.471   7.482  0.6970 -0.7023  0.6733
  128OSM    H8G13747   4.282   1.435   7.383  1.2371 -1.8218  0.4592
  128OSM    C9F13748   4.208   1.266   7.497 -0.4074  0.0676  0.0814
  128OSM    H9F13749   4.282   1.200   7.448 -0.9219  1.6457 -3.0820
  128OSM   C10F13750   4.156   1.238   7.621 -0.3876  0.8106 -0.1801
  128OSM   H10F13751   4.175   1.142   7.670 -1.3170  1.9242  2.5511
  128OSM   C11F13752   4.067   1.326   7.701 -0.8665 -0.2864 -0.3906
  128OSM   H11F13753   3.994   1.251   7.736  1.1394 -1.8394  0.6755
  128OSM   H11G13754   4.020   1.397   7.630  0.3736  0.8203 -0.1380
  128OSM   C12F13755   4.141   1.401   7.801 -0.1585 -0.3080  0.4694
  128OSM   H12F13756   4.073   1.478   7.845  2.8291  1.7806  1.7540
  128OSM   H12G13757   4.224   1.463   7.761 -1.8473  0.5585 -1.9694
  128OSM   C13F13758   4.197   1.304   7.908  0.5486 -0.5115 -0.5398
  128OSM   H13F13759   4.260   1.359   7.981 -0.6483  1.9761 -1.3031
  128OSM   H13G13760   4.261   1.227   7.859 -1.9237 -1.9086 -1.7441
  128OSM   C14F13761   4.078   1.230   7.976 -0.6693 -0.6532 -0.8732
  128OSM   H14F13762   4.127   1.179   8.061 -1.2069  3.9314  2.5683
  128OSM   H14G13763   4.014   1.163   7.914 -3.5465  3.0447 -2.2637
  128OSM   C15F13764   3.968   1.332   8.026 -0.0715  0.0489 -0.0659
  128OSM   H15F13765   3.906   1.377   7.946  0.8358  1.0629 -0.2272
  128OSM   H15G13766   4.019   1.412   8.084 -1.7056  1.7539 -0.8518
  128OSM   C16F13767   3.890   1.256   8.134 -0.0516 -0.1478  0.2862
  128OSM   H16F13768   3.962   1.221   8.211  0.7035 -2.7631 -1.4827
  128OSM   H16G13769   3.835   1.174   8.084 -1.9422  1.5666 -0.5852
  128OSM   C17F13770   3.787   1.334   8.216  0.8331  0.1506  0.1979
  128OSM   H17F13771   3.834   1.431   8.241 -0.2001  0.8674 -0.5566
  128OSM   H17G13772   3.761   1.283   8.311  0.8050  2.0026  1.2317
  128OSM   C18F13773   3.663   1.375   8.143 -1.1077  0.1335 -0.0706
  128OSM   H18F13774   3.600   1.287   8.119 -0.8161  0.3211 -1.6682
  128OSM   H18G13775   3.698   1.410   8.043 -0.3048 -3.9380 -1.3964
  128OSM   H18H13776   3.607   1.452   8.201  0.1468  0.0713  1.2844
  129OSM      N13777   2.999   2.889   5.822  0.0205 -0.3591 -0.7304
  129OSM    C1513778   3.109   2.899   5.726 -0.5413 -0.4455 -0.3469
  129OSM   H15A13779   3.111   2.820   5.652  0.5246 -1.3408  0.5930
  129OSM   H15B13780   3.204   2.899   5.776 -1.3895 -0.3448  1.3385
  129OSM   H15C13781   3.092   2.993   5.675 -1.4262  0.8275  2.1350
  129OSM    C1413782   2.978   3.018   5.889 -0.0644 -0.1583 -0.0220
  129OSM   H14A13783   2.922   3.003   5.980 -0.1365 -1.0277 -0.1987
  129OSM   H14B13784   2.924   3.083   5.823 -0.2951 -0.6962 -0.3753
  129OSM   H14C13785   3.070   3.062   5.923  0.3580  0.0078 -1.3096
  129OSM    C1313786   2.875   2.846   5.741  0.0701 -0.3651  0.0267
  129OSM   H13A13787   2.904   2.757   5.689  0.3835  0.5072 -1.3304
  129OSM   H13B13788   2.843   2.922   5.671  1.6989 -1.3551 -1.8629
  129OSM   H13C13789   2.790   2.834   5.808  1.4222 -0.3486  1.8233
  129OSM    C1213790   3.037   2.778   5.921  0.0265  0.0008  0.1585
  129OSM   H12A13791   3.134   2.805   5.959  0.0304  0.0587  0.1078
  129OSM   H12B13792   3.049   2.683   5.870  0.0856 -0.9570  1.8963
  129OSM    C1113793   2.938   2.749   6.039 -0.2707  0.1166  0.0507
  129OSM   H11A13794   2.920   2.832   6.110 -2.8104 -0.7755  0.5487
  129OSM   H11B13795   2.991   2.678   6.106  0.8620  1.5742  0.7424
  129OSM      P13796   2.796   2.557   5.939 -0.3117 -0.2454 -0.3308
  129OSM    O1313797   2.658   2.526   5.886 -0.5484  0.2096  0.3984
  129OSM    O1413798   2.917   2.511   5.869  0.5518  0.5005  0.1284
  129OSM    O1113799   2.798   2.480   6.081 -0.3417  0.6111 -0.1036
  129OSM    O1213800   2.810   2.705   5.991 -0.4353  0.1221  0.9145
  129OSM    C1S13801   2.691   2.523   6.165 -0.1496  1.3528 -0.8550
  129OSM    H1S13802   2.590   2.497   6.126 -0.2968 -1.0108  0.8361
  129OSM    H1T13803   2.694   2.630   6.192 -1.6387  0.6496  2.5304
  129OSM     NF13804   2.576   2.500   6.379  0.5079 -0.0474  0.1144
  129OSM    HNF13805   2.591   2.563   6.454  1.1195 -0.5405  0.4134
  129OSM    C2S13806   2.689   2.456   6.304 -0.2680  0.4835  0.1290
  129OSM    H2S13807   2.673   2.349   6.283  1.4209  0.2479 -0.1267
  129OSM    C3S13808   2.819   2.479   6.380 -0.6962 -0.7018 -0.4304
  129OSM    H3S13809   2.843   2.586   6.392  1.0396 -1.2571  1.6942
  129OSM     O313810   2.940   2.433   6.318 -0.0689 -0.2406 -0.2313
  129OSM    HO313811   2.923   2.442   6.224 -2.3768 -3.0750 -0.2308
  129OSM    C4S13812   2.825   2.407   6.505 -0.3058  0.3953  0.4408
  129OSM    H4S13813   2.784   2.306   6.490 -1.6348  0.9132  0.4588
  129OSM    C5S13814   2.852   2.442   6.628 -0.4681 -0.7955 -0.3867
  129OSM    H5S13815   2.871   2.548   6.651 -1.0885 -0.7192 -0.1972
  129OSM    C6S13816   2.862   2.349   6.745  0.3740  0.5791  0.1493
  129OSM    H6S13817   2.797   2.260   6.731  1.2000  0.2572 -1.9249
  129OSM    H6T13818   2.830   2.407   6.835  3.0993  1.3464  0.7048
  129OSM    C7S13819   3.008   2.315   6.773 -0.1354 -0.0306 -0.3387
  129OSM    H7S13820   3.060   2.413   6.777 -1.9368  0.9256  1.5068
  129OSM    H7T13821   3.063   2.266   6.690  0.9550 -0.0071  0.3476
  129OSM    C8S13822   3.031   2.241   6.905 -0.2684  0.7002  0.0926
  129OSM    H8S13823   3.136   2.206   6.894 -0.2290 -0.2870  2.7238
  129OSM    H8T13824   2.962   2.155   6.919 -1.0493  0.9237 -2.0671
  129OSM    C9S13825   3.028   2.326   7.027  0.3049  0.5415 -0.1094
  129OSM    H9S13826   2.922   2.331   7.061  0.8366 -0.7977  1.9510
  129OSM    H9T13827   3.051   2.433   7.010  1.1935  0.4558  0.4988
  129OSM   C10S13828   3.125   2.269   7.129  0.1085 -0.2780  0.6141
  129OSM   H10S13829   3.223   2.257   7.078 -0.3927  0.4287 -0.5554
  129OSM   H10T13830   3.091   2.172   7.171  2.0333 -1.9194 -1.3354
  129OSM   C11S13831   3.131   2.358   7.249  0.3507  0.2329 -0.3553
  129OSM   H11S13832   3.143   2.465   7.219  0.9485  0.6851  1.3838
  129OSM   H11T13833   3.225   2.328   7.301  0.3144 -0.0044 -0.4286
  129OSM   C12S13834   3.010   2.354   7.340 -0.3368 -0.2667 -0.0259
  129OSM   H12S13835   2.990   2.247   7.364  0.1623 -0.7494 -1.6156
  129OSM   H12T13836   2.914   2.392   7.301  0.1220  1.2817  0.3124
  129OSM   C13S13837   3.046   2.420   7.477  0.2573  0.4373  0.1023
  129OSM   H13S13838   3.046   2.531   7.469  1.5608  0.4522  0.2234
  129OSM   H13T13839   3.152   2.390   7.488  0.0949  0.2729  1.3439
  129OSM   C14S13840   2.955   2.367   7.595 -0.3802  0.3546  0.7534
  129OSM   H14S13841   2.975   2.258   7.598  1.2025  0.4470 -2.2978
  129OSM   H14T13842   2.848   2.385   7.574 -0.2053  1.8362  1.0174
  129OSM   C15S13843   2.991   2.425   7.736  0.5007  0.3418  0.1265
  129OSM   H15S13844   2.975   2.534   7.733  0.4107  0.3178 -0.9085
  129OSM   H15T13845   3.102   2.418   7.744  0.6348 -0.5402 -1.8851
  129OSM   C16S13846   2.927   2.355   7.858  0.4024  0.6665  0.3435
  129OSM   H16S13847   2.965   2.251   7.862 -2.9899 -0.6868  2.9547
  129OSM   H16T13848   2.819   2.340   7.835  0.5255  2.7881 -2.0750
  129OSM   C17S13849   2.924   2.430   7.994 -0.1610 -0.6517 -0.0517
  129OSM   H17S13850   2.873   2.362   8.064  0.3958 -0.3160  0.6934
  129OSM   H17T13851   2.864   2.522   7.975 -0.4312 -1.1325 -1.6689
  129OSM   C18S13852   3.064   2.453   8.058 -0.8728 -0.2110  0.1170
  129OSM   H18S13853   3.132   2.482   7.975  0.1729 -1.4360  0.5202
  129OSM   H18T13854   3.103   2.359   8.103 -0.1026  0.4509  0.8585
  129OSM   H18U13855   3.061   2.536   8.131  2.1815 -0.1119  0.2577
  129OSM    C1F13856   2.456   2.454   6.351  1.0682  0.2581  0.9240
  129OSM     OF13857   2.432   2.377   6.259  0.9263 -0.2836  0.5549
  129OSM    C2F13858   2.352   2.503   6.442 -0.0851 -0.1434  0.4525
  129OSM    H2F13859   2.267   2.542   6.383  1.4373 -0.2770 -1.9640
  129OSM    H2G13860   2.399   2.582   6.503 -0.5414  1.6926 -1.4686
  129OSM    C3F13861   2.300   2.376   6.521  0.2841 -0.3668 -0.8413
  129OSM    H3F13862   2.264   2.307   6.442 -2.1028  0.3968 -0.5101
  129OSM    H3G13863   2.209   2.406   6.577  2.0626  1.0077  1.5301
  129OSM    C4F13864   2.396   2.301   6.617  0.0595  0.0058  0.1718
  129OSM    H4F13865   2.450   2.367   6.688  0.7254  0.3539 -0.6369
  129OSM    H4G13866   2.476   2.255   6.554 -1.4539 -2.2278 -0.1981
  129OSM    C5F13867   2.327   2.181   6.684  0.2021 -0.5277 -0.5482
  129OSM    H5F13868   2.282   2.126   6.598 -1.3240 -0.0088 -0.1159
  129OSM    H5G13869   2.242   2.227   6.738 -1.4714 -1.6367 -2.1302
  129OSM    C6F13870   2.425   2.101   6.774  0.6419 -0.3801  0.0054
  129OSM    H6F13871   2.481   2.040   6.700 -3.0478 -2.7003 -1.2134
  129OSM    H6G13872   2.365   2.038   6.844  0.3722  0.4886  0.5793
  129OSM    C7F13873   2.513   2.186   6.857  0.5648 -0.6707  0.6708
  129OSM    H7F13874   2.439   2.255   6.903  0.1999 -0.7782  0.2485
  129OSM    H7G13875   2.590   2.238   6.795  0.0661 -0.2353  0.4137
  129OSM    C8F13876   2.589   2.110   6.960  0.2173 -0.5812  0.0278
  129OSM    H8F13877   2.655   2.042   6.901  1.1150  1.0203 -0.8865
  129OSM    H8G13878   2.512   2.049   7.011  0.3295  1.1077  2.3438
  129OSM    C9F13879   2.661   2.199   7.057 -0.2932 -0.1072  0.4659
  129OSM    H9F13880   2.767   2.218   7.034  0.0816  0.0900  2.2065
  129OSM   C10F13881   2.613   2.236   7.178  0.3363  0.1537 -0.1421
  129OSM   H10F13882   2.675   2.290   7.251  2.3819  1.5593 -2.7457
  129OSM   C11F13883   2.468   2.202   7.214 -0.3909  0.1530 -0.1309
  129OSM   H11F13884   2.453   2.092   7.211  0.3941 -0.0285  1.3680
  129OSM   H11G13885   2.390   2.245   7.148 -0.1383 -0.0742 -0.5810
  129OSM   C12F13886   2.429   2.262   7.354  0.0873 -0.0389 -0.0266
  129OSM   H12F13887   2.325   2.225   7.368  0.1370 -0.5234 -0.8773
  129OSM   H12G13888   2.438   2.373   7.351  2.1488 -0.0945  1.3691
  129OSM   C13F13889   2.518   2.214   7.467 -0.8343 -0.8168  0.0410
  129OSM   H13F13890   2.620   2.255   7.450 -0.7848 -0.6982  0.6220
  129OSM   H13G13891   2.517   2.103   7.461  0.7208 -0.8821  0.5183
  129OSM   C14F13892   2.469   2.248   7.609 -0.0626 -0.3911 -0.3399
  129OSM   H14F13893   2.365   2.213   7.621 -0.2729  0.5717  0.8663
  129OSM   H14G13894   2.479   2.357   7.625 -0.0212 -0.7831  3.0119
  129OSM   C15F13895   2.565   2.200   7.724 -0.6016 -0.2902  0.5240
  129OSM   H15F13896   2.658   2.260   7.722 -1.7750  1.5945 -0.4543
  129OSM   H15G13897   2.594   2.098   7.689 -0.3092  0.5156 -1.7628
  129OSM   C16F13898   2.499   2.198   7.855  0.2657  0.1602 -0.0787
  129OSM   H16F13899   2.396   2.156   7.851  0.3603 -0.0436 -0.4041
  129OSM   H16G13900   2.496   2.300   7.897  2.4592  0.3643 -0.3009
  129OSM   C17F13901   2.572   2.119   7.964 -0.4972  0.7371 -0.2207
  129OSM   H17F13902   2.672   2.168   7.969  0.4541 -1.1333 -0.2777
  129OSM   H17G13903   2.592   2.017   7.926 -1.1181  0.1952  0.8622
  129OSM   C18F13904   2.500   2.103   8.096 -0.2458  0.4210  0.2370
  129OSM   H18F13905   2.491   2.201   8.147 -2.1116  0.9693 -1.0447
  129OSM   H18G13906   2.555   2.028   8.156 -0.9096 -0.1090  0.1903
  129OSM   H18H13907   2.397   2.067   8.078  0.0196  0.3643 -1.3837
  130OSM      N13908   3.974   0.633   5.955 -0.5339  0.1606 -0.5147
  130OSM    C1513909   3.890   0.753   5.962 -0.3321  0.1967  0.0771
  130OSM   H15A13910   3.809   0.727   6.028 -1.7649  1.5416 -1.0672
  130OSM   H15B13911   3.850   0.781   5.865 -1.7132  3.6063  1.4665
  130OSM   H15C13912   3.942   0.834   6.011  0.1048  0.0629 -0.1625
  130OSM    C1413913   3.892   0.515   5.905 -0.3505 -0.3237  0.0633
  130OSM   H14A13914   3.812   0.519   5.977  0.2024  0.6855  0.6574
  130OSM   H14B13915   3.945   0.421   5.898  1.3526  0.5141  0.8284
  130OSM   H14C13916   3.860   0.538   5.805 -0.9055  1.5645  0.6301
  130OSM    C1313917   4.097   0.660   5.866  0.1656 -0.8790 -0.4176
  130OSM   H13A13918   4.056   0.686   5.769 -2.9233  0.2196  1.0427
  130OSM   H13B13919   4.153   0.569   5.851 -2.2618 -2.0121 -3.7678
  130OSM   H13C13920   4.155   0.741   5.908  0.6628 -1.3314 -0.2153
  130OSM    C1213921   4.016   0.595   6.089  0.7799 -0.0592  0.0976
  130OSM   H12A13922   4.097   0.656   6.125 -1.3187  1.8622  1.8385
  130OSM   H12B13923   4.068   0.502   6.068  0.6593  0.5860 -3.8017
  130OSM    C1113924   3.906   0.572   6.200  0.7043  0.3678 -0.2267
  130OSM   H11A13925   3.841   0.661   6.214 -0.9447 -0.7949 -0.2537
  130OSM   H11B13926   3.954   0.574   6.300  1.2797  2.3861 -0.5127
  130OSM      P13927   3.882   0.305   6.211  0.1521  0.5889  0.2753
  130OSM    O1313928   3.785   0.206   6.152  0.0219 -0.0041  0.3545
  130OSM    O1413929   4.019   0.286   6.156  0.5054 -0.3976  0.6552
  130OSM    O1113930   3.874   0.297   6.367 -0.0622 -0.1651  0.3804
  130OSM    O1213931   3.832   0.453   6.183  0.2381 -0.3168 -0.3694
  130OSM    C1S13932   3.758   0.360   6.430  0.1524  0.0990 -0.3818
  130OSM    H1S13933   3.668   0.325   6.375  0.1755 -0.2692 -0.1826
  130OSM    H1T13934   3.766   0.471   6.425  0.2852  0.0472 -1.7351
  130OSM     NF13935   3.614   0.355   6.639  0.0839  0.5429  0.1988
  130OSM    HNF13936   3.601   0.450   6.668 -1.2166  0.0268  1.4042
  130OSM    C2S13937   3.751   0.324   6.585  0.2435 -0.0531  0.2506
  130OSM    H2S13938   3.765   0.214   6.594 -0.2856 -0.0908  0.6236
  130OSM    C3S13939   3.874   0.396   6.658 -0.9152  0.4375 -0.3688
  130OSM    H3S13940   3.865   0.506   6.647  0.5153  0.4815 -1.4096
  130OSM     O313941   4.001   0.368   6.589 -0.5333  0.1031  0.4513
  130OSM    HO313942   3.977   0.350   6.498  0.2030 -2.7379  0.7138
  130OSM    C4S13943   3.882   0.367   6.805  0.2227  0.0808 -0.4797
  130OSM    H4S13944   3.828   0.432   6.875 -1.5061 -2.3409  0.5986
  130OSM    C5S13945   3.960   0.280   6.875 -0.4386 -0.8873 -0.0892
  130OSM    H5S13946   4.036   0.218   6.825  0.1059 -0.0262 -0.3408
  130OSM    C6S13947   3.958   0.274   7.021 -0.6379  0.4081 -0.9928
  130OSM    H6S13948   4.067   0.274   7.044 -0.2976 -0.2136 -2.4417
  130OSM    H6T13949   3.917   0.178   7.059 -3.2928  2.5764  2.1010
  130OSM    C7S13950   3.900   0.385   7.112  0.6042 -0.1454  0.0078
  130OSM    H7S13951   3.791   0.369   7.124  0.6156  0.6225  1.2576
  130OSM    H7T13952   3.923   0.481   7.061 -0.2830 -2.3878 -5.2899
  130OSM    C8S13953   3.958   0.380   7.252  0.6158 -0.5346 -0.5924
  130OSM    H8S13954   3.923   0.472   7.303 -0.4964 -1.2927  0.0405
  130OSM    H8T13955   4.067   0.403   7.244  1.0512 -0.9725  2.6607
  130OSM    C9S13956   3.913   0.260   7.330  0.2830 -0.3478 -0.4110
  130OSM    H9S13957   3.956   0.165   7.289  3.4750  0.1919  1.3030
  130OSM    H9T13958   3.803   0.254   7.319  0.2371 -0.7551  0.2215
  130OSM   C10S13959   3.949   0.266   7.477 -0.2108 -0.6029 -0.4169
  130OSM   H10S13960   3.930   0.174   7.537 -0.6441 -0.9893 -1.1262
  130OSM   H10T13961   3.877   0.336   7.524 -2.8561 -2.0811 -1.9614
  130OSM   C11S13962   4.093   0.318   7.498 -0.3325 -0.7797  0.4478
  130OSM   H11S13963   4.098   0.428   7.487  1.7172 -0.9782 -1.3588
  130OSM   H11T13964   4.155   0.275   7.416 -1.7580 -3.0394  0.4670
  130OSM   C12S13965   4.159   0.277   7.631  0.8271 -0.5980 -0.3136
  130OSM   H12S13966   4.266   0.305   7.638  1.0715 -1.8581  3.4643
  130OSM   H12T13967   4.146   0.167   7.639  1.0173 -0.7515 -1.8259
  130OSM   C13S13968   4.097   0.357   7.752  0.0612 -0.4441 -0.8500
  130OSM   H13S13969   3.993   0.326   7.774  1.2064 -3.3524  1.1412
  130OSM   H13T13970   4.101   0.466   7.734 -0.3328 -0.1067  0.9582
  130OSM   C14S13971   4.177   0.334   7.881  0.4239 -0.1234  0.3753
  130OSM   H14S13972   4.269   0.396   7.872  1.4722 -1.7355 -0.5090
  130OSM   H14T13973   4.196   0.225   7.887 -0.1641 -0.2594 -0.2065
  130OSM   C15S13974   4.103   0.368   8.007  0.0627  0.1075 -0.1752
  130OSM   H15S13975   4.012   0.306   8.020  1.0925 -1.5563 -0.5108
  130OSM   H15T13976   4.071   0.474   8.019  2.3103  0.6170  2.4059
  130OSM   C16S13977   4.189   0.337   8.128 -1.2559 -0.3849 -0.2940
  130OSM   H16S13978   4.128   0.379   8.211  0.8874  0.1936  1.0619
  130OSM   H16T13979   4.286   0.390   8.115 -1.6350  0.8751  1.6044
  130OSM   C17S13980   4.232   0.192   8.150 -0.3676 -0.4082 -0.4400
  130OSM   H17S13981   4.271   0.193   8.254  1.5477  1.5901 -1.0813
  130OSM   H17T13982   4.309   0.173   8.072  1.8724  2.9339  0.7328
  130OSM   C18S13983   4.123   0.084   8.135 -0.7922 -0.3338 -0.6302
  130OSM   H18S13984   4.079   0.086   8.033 -1.0498  1.4915 -0.5230
  130OSM   H18T13985   4.049   0.105   8.215 -0.7632 -0.7275 -0.4994
  130OSM   H18U13986   4.169  -0.011   8.170 -1.2499  0.2058  1.6160
  130OSM    C1F13987   3.515   0.274   6.600 -0.7407 -0.2251 -0.1416
  130OSM     OF13988   3.545   0.169   6.541  0.5456 -0.2945  0.6408
  130OSM    C2F13989   3.373   0.308   6.636  0.0260  0.4143 -0.3164
  130OSM    H2F13990   3.317   0.213   6.627 -1.1724  0.9689  1.0015
  130OSM    H2G13991   3.339   0.381   6.559 -0.1168 -0.9982 -1.6495
  130OSM    C3F13992   3.350   0.358   6.784  0.3343 -0.4076 -0.0815
  130OSM    H3F13993   3.243   0.357   6.812  0.6085  1.0980  1.1850
  130OSM    H3G13994   3.375   0.466   6.774  0.4336 -0.4267 -0.0381
  130OSM    C4F13995   3.433   0.298   6.895 -0.7541 -0.2988 -0.3753
  130OSM    H4F13996   3.543   0.304   6.879 -0.4810  1.8068  1.6322
  130OSM    H4G13997   3.417   0.189   6.892 -0.5953 -0.5222  2.7967
  130OSM    C5F13998   3.395   0.358   7.034 -0.6784  0.4896  0.0392
  130OSM    H5F13999   3.287   0.357   7.062 -1.2823 -1.0124 -2.0352
  130OSM    H5G14000   3.414   0.467   7.030  0.0772  0.3823  0.6518
  130OSM    C6F14001   3.483   0.304   7.152 -0.1385  0.8511 -0.1983
  130OSM    H6F14002   3.587   0.325   7.120  0.1596 -0.7690 -0.4056
  130OSM    H6G14003   3.469   0.194   7.150 -0.0531  0.8083  0.9588
  130OSM    C7F14004   3.446   0.358   7.289 -0.3309  0.2008  0.5372
  130OSM    H7F14005   3.472   0.300   7.380 -0.1228  1.1550  1.1097
  130OSM    H7G14006   3.338   0.339   7.302  0.0834 -1.0832  2.6068
  130OSM    C8F14007   3.480   0.501   7.312  0.7025 -0.1190 -0.1769
  130OSM    H8F14008   3.414   0.531   7.397 -1.3054 -1.5070 -1.1788
  130OSM    H8G14009   3.449   0.562   7.225  2.8258 -0.5199 -1.2585
  130OSM    C9F14010   3.618   0.523   7.339 -1.0961 -0.1789  0.0134
  130OSM    H9F14011   3.687   0.521   7.253 -0.5967  0.2639  0.3987
  130OSM   C10F14012   3.679   0.560   7.455  0.3255  0.2023  0.2793
  130OSM   H10F14013   3.788   0.572   7.444  0.3331  0.5599  0.7243
  130OSM   C11F14014   3.616   0.600   7.578 -0.4267 -0.7369  0.1906
  130OSM   H11F14015   3.525   0.542   7.602 -0.5708 -0.1742  1.0529
  130OSM   H11G14016   3.597   0.708   7.562 -1.3810 -1.3587 -3.9821
  130OSM   C12F14017   3.695   0.548   7.699  0.0869 -0.1021  0.6274
  130OSM   H12F14018   3.788   0.609   7.698 -0.6893  1.1317 -0.4171
  130OSM   H12G14019   3.729   0.443   7.686 -0.6673 -0.1318 -1.6034
  130OSM   C13F14020   3.608   0.556   7.833  0.1214 -0.1226  0.2517
  130OSM   H13F14021   3.520   0.493   7.810  2.2852 -3.2275 -0.1643
  130OSM   H13G14022   3.569   0.659   7.850 -4.4914 -1.2431 -1.9723
  130OSM   C14F14023   3.687   0.507   7.959  0.0875 -0.3178 -0.2073
  130OSM   H14F14024   3.779   0.568   7.972 -1.3840  2.2718 -1.2703
  130OSM   H14G14025   3.716   0.400   7.943 -1.7682 -0.8347 -0.3394
  130OSM   C15F14026   3.614   0.536   8.087  0.9808  0.1082 -0.1165
  130OSM   H15F14027   3.507   0.511   8.073  0.8943  0.2841  0.2295
  130OSM   H15G14028   3.611   0.646   8.100  0.8748  0.1737 -0.6937
  130OSM   C16F14029   3.667   0.460   8.212 -1.0977 -0.4209  0.4675
  130OSM   H16F14030   3.760   0.514   8.240  0.2867 -2.3737 -0.1468
  130OSM   H16G14031   3.691   0.360   8.171  1.0704  0.3453 -0.2990
  130OSM   C17F14032   3.564   0.449   8.327 -0.7744  0.9711  0.3640
  130OSM   H17F14033   3.627   0.395   8.401 -0.1603 -1.3667 -1.7271
  130OSM   H17G14034   3.479   0.381   8.305 -2.5626  3.9805 -3.2611
  130OSM   C18F14035   3.502   0.582   8.374 -0.7257 -0.8097  0.1546
  130OSM   H18F14036   3.571   0.656   8.420 -0.8583 -0.9945  0.6631
  130OSM   H18G14037   3.422   0.557   8.448 -1.6929 -0.3829 -0.7228
  130OSM   H18H14038   3.455   0.618   8.280  1.0778 -0.7548 -0.7676
  131OSM      N14039   4.520   3.274   6.305  0.3392  0.4738  0.0913
  131OSM    C1514040   4.375   3.299   6.298 -0.1438 -0.3335 -0.0244
  131OSM   H15A14041   4.335   3.326   6.202  1.5152 -1.5163 -1.0857
  131OSM   H15B14042   4.350   3.371   6.375  1.1576 -0.0882  0.1807
  131OSM   H15C14043   4.326   3.210   6.337  2.1773 -1.4473  0.4981
  131OSM    C1414044   4.589   3.396   6.244 -0.8208  0.1008  0.2017
  131OSM   H14A14045   4.697   3.388   6.234 -0.8532  0.5986 -0.6526
  131OSM   H14B14046   4.564   3.487   6.296  0.8476  0.2964  0.7363
  131OSM   H14C14047   4.555   3.409   6.142  2.0391  1.8972 -0.6352
  131OSM    C1314048   4.570   3.264   6.443  0.2409  0.3824 -0.4266
  131OSM   H13A14049   4.553   3.352   6.504  1.6487 -0.9810  2.1107
  131OSM   H13B14050   4.673   3.229   6.445 -0.0021 -0.3533 -0.7113
  131OSM   H13C14051   4.518   3.185   6.496  2.5065  0.2978  1.9082
  131OSM    C1214052   4.565   3.154   6.223  0.4492  0.6676  0.2969
  131OSM   H12A14053   4.668   3.127   6.243  0.7850  0.0636 -1.9096
  131OSM   H12B14054   4.568   3.181   6.118 -0.0141 -0.3291  0.0039
  131OSM    C1114055   4.481   3.019   6.242 -0.5170 -0.2910  0.3367
  131OSM   H11A14056   4.481   2.993   6.350 -2.7130 -0.9342  0.2205
  131OSM   H11B14057   4.529   2.938   6.183 -0.8739  1.2188 -2.2005
  131OSM      P14058   4.221   2.976   6.255 -0.1514  0.2419  0.3129
  131OSM    O1314059   4.101   3.034   6.194  0.2845  0.2753  0.2184
  131OSM    O1414060   4.234   2.830   6.228 -0.1138  0.1288  0.2904
  131OSM    O1114061   4.229   3.010   6.411  0.6816  0.2281  0.4743
  131OSM    O1214062   4.349   3.044   6.196 -0.7101 -0.0562  0.3268
  131OSM    C1S14063   4.135   3.105   6.470  0.7089  0.2194 -0.0301
  131OSM    H1S14064   4.031   3.084   6.439  0.8870  0.5055 -0.8336
  131OSM    H1T14065   4.159   3.207   6.434  1.8571 -0.1341 -0.3250
  131OSM     NF14066   4.057   3.192   6.685 -0.6129 -0.1114 -0.4807
  131OSM    HNF14067   4.102   3.268   6.732  1.2100 -1.1688 -0.4354
  131OSM    C2S14068   4.147   3.102   6.623 -0.7917  0.4346 -0.5183
  131OSM    H2S14069   4.125   2.999   6.659 -1.0654  0.5238 -0.4266
  131OSM    C3S14070   4.291   3.131   6.666 -0.6161 -0.0374  0.4187
  131OSM    H3S14071   4.318   3.236   6.641 -0.7431 -0.1856 -0.3460
  131OSM     O314072   4.386   3.049   6.601 -0.8685 -0.0241  0.1292
  131OSM    HO314073   4.358   3.031   6.511  2.7715 -2.8897 -0.6764
  131OSM    C4S14074   4.306   3.118   6.815 -0.1537  0.0976 -0.5074
  131OSM    H4S14075   4.274   3.017   6.844 -1.4229  0.5766 -0.1705
  131OSM    C5S14076   4.353   3.210   6.903 -0.0788 -0.1416 -0.6339
  131OSM    H5S14077   4.377   3.310   6.862  1.9262 -0.2982  0.0800
  131OSM    C6S14078   4.362   3.197   7.054  0.2644 -0.1429  1.4105
  131OSM    H6S14079   4.265   3.226   7.100  0.1899  1.3092  0.3986
  131OSM    H6T14080   4.437   3.274   7.084 -1.0537  0.2706  3.9686
  131OSM    C7S14081   4.396   3.064   7.107 -0.5262 -0.4725  0.0656
  131OSM    H7S14082   4.497   3.033   7.073  0.6755  1.1274  1.9567
  131OSM    H7T14083   4.326   2.984   7.072  0.9143 -1.8387  0.2076
  131OSM    C8S14084   4.402   3.075   7.260 -0.0353 -0.1403  0.2413
  131OSM    H8S14085   4.311   3.122   7.302 -1.3149 -1.5536 -0.7917
  131OSM    H8T14086   4.495   3.131   7.283  1.3996 -2.3386  0.0702
  131OSM    C9S14087   4.418   2.936   7.330 -0.0373 -0.1105  0.8271
  131OSM    H9S14088   4.516   2.892   7.304  0.2781  0.2499  1.3754
  131OSM    H9T14089   4.337   2.870   7.293  0.8809 -0.8981  0.1917
  131OSM   C10S14090   4.421   2.944   7.483  0.8178  0.2072  0.0704
  131OSM   H10S14091   4.318   2.975   7.512  0.7214  1.5825 -1.6017
  131OSM   H10T14092   4.481   3.032   7.517 -0.4537  0.7427  1.0217
  131OSM   C11S14093   4.470   2.820   7.542  0.0913 -0.9012  0.4801
  131OSM   H11S14094   4.579   2.805   7.527  0.5951  0.0074  2.7940
  131OSM   H11T14095   4.413   2.734   7.501 -1.1005  0.0578  0.0653
  131OSM   C12S14096   4.453   2.819   7.689 -0.1204 -0.0408 -0.0304
  131OSM   H12S14097   4.353   2.791   7.729 -0.0149 -0.9418 -0.3659
  131OSM   H12T14098   4.456   2.923   7.728  1.5006 -0.5876  1.3792
  131OSM   C13S14099   4.559   2.736   7.767 -0.3791  0.4510  0.6357
  131OSM   H13S14100   4.657   2.750   7.717 -1.1500 -1.4065 -1.5421
  131OSM   H13T14101   4.532   2.629   7.753  0.3749  0.2678  0.5304
  131OSM   C14S14102   4.571   2.775   7.915 -0.3723  0.1672 -0.4605
  131OSM   H14S14103   4.475   2.811   7.956  0.0325  1.0501 -0.2545
  131OSM   H14T14104   4.646   2.857   7.916  1.6346 -1.5878  0.6932
  131OSM   C15S14105   4.622   2.668   8.016 -0.2643  0.1667 -0.5123
  131OSM   H15S14106   4.719   2.632   7.976 -1.0932 -0.6869 -1.8378
  131OSM   H15T14107   4.545   2.588   8.016 -0.9295  0.7479  1.8612
  131OSM   C16S14108   4.656   2.703   8.163 -0.4547  1.0599 -0.4999
  131OSM   H16S14109   4.750   2.763   8.162  0.4175 -0.2723 -1.6016
  131OSM   H16T14110   4.678   2.606   8.212  2.1552  0.7894 -2.0365
  131OSM   C17S14111   4.551   2.791   8.236 -0.1693  0.1164  0.1370
  131OSM   H17S14112   4.550   2.779   8.347 -0.3354  1.8169  0.3389
  131OSM   H17T14113   4.452   2.757   8.197 -0.3601 -0.0404  0.7441
  131OSM   C18S14114   4.571   2.945   8.208 -0.1521 -0.0282 -0.5541
  131OSM   H18S14115   4.676   2.973   8.228  1.0400  0.2625 -5.8256
  131OSM   H18T14116   4.503   3.010   8.268  0.5258  0.9503 -0.8191
  131OSM   H18U14117   4.562   2.970   8.100 -1.9489 -0.9896 -0.6648
  131OSM    C1F14118   3.922   3.177   6.687 -0.1174  0.6652 -0.4539
  131OSM     OF14119   3.874   3.068   6.651  0.2479 -0.3612  0.3557
  131OSM    C2F14120   3.841   3.292   6.735 -0.5982 -0.1307 -0.5699
  131OSM    H2F14121   3.781   3.334   6.652  2.9719  1.7924 -2.4056
  131OSM    H2G14122   3.906   3.376   6.766 -2.7238  1.1833  0.5836
  131OSM    C3F14123   3.763   3.272   6.869  0.1319 -0.4209  0.6002
  131OSM    H3F14124   3.714   3.173   6.852 -1.5651  0.2611  1.2303
  131OSM    H3G14125   3.682   3.348   6.875 -0.0543 -0.5839  0.2298
  131OSM    C4F14126   3.840   3.265   7.002 -0.8012  1.0629  0.2527
  131OSM    H4F14127   3.943   3.227   6.982 -1.2895 -1.3175  1.8114
  131OSM    H4G14128   3.799   3.184   7.066  0.8074 -0.9440 -1.1427
  131OSM    C5F14129   3.846   3.397   7.077  0.1056  0.5439  0.6703
  131OSM    H5F14130   3.756   3.417   7.139 -1.5817 -1.7899 -0.8660
  131OSM    H5G14131   3.851   3.482   7.006 -0.6158 -0.0465 -0.1006
  131OSM    C6F14132   3.975   3.405   7.163 -1.0020 -0.1274 -0.5373
  131OSM    H6F14133   4.001   3.512   7.172 -0.3404 -0.2746 -0.6426
  131OSM    H6G14134   4.058   3.357   7.107 -0.5256 -0.0427  0.0931
  131OSM    C7F14135   3.961   3.339   7.301  0.3887  0.2947 -0.0429
  131OSM    H7F14136   4.056   3.291   7.334 -0.3178 -0.8866  0.3553
  131OSM    H7G14137   3.887   3.256   7.298 -0.0258  0.4759  2.7720
  131OSM    C8F14138   3.887   3.431   7.400  0.4740  0.2600 -0.6969
  131OSM    H8F14139   3.777   3.424   7.388  0.7163 -2.1561 -2.0354
  131OSM    H8G14140   3.912   3.532   7.360 -1.5211  1.6599  1.3331
  131OSM    C9F14141   3.926   3.396   7.539  0.2930 -0.1128 -0.0785
  131OSM    H9F14142   3.990   3.307   7.551 -1.6694 -1.3607  1.9783
  131OSM   C10F14143   3.903   3.461   7.656  0.0918  0.7868 -0.0067
  131OSM   H10F14144   3.939   3.410   7.746 -0.4135 -2.9174 -1.7031
  131OSM   C11F14145   3.829   3.589   7.661 -0.8412  0.3456 -0.0026
  131OSM   H11F14146   3.733   3.564   7.610 -0.0271 -5.3746  0.5439
  131OSM   H11G14147   3.879   3.672   7.608 -0.4642 -0.3354 -0.7466
  131OSM   C12F14148   3.805   3.613   7.813 -0.1269  0.5275  0.1281
  131OSM   H12F14149   3.766   3.716   7.829 -0.0786  0.2534  2.2825
  131OSM   H12G14150   3.897   3.617   7.876 -1.1242  0.6233  1.6239
  131OSM   C13F14151   3.708   3.514   7.881  0.4860  0.5266  0.0569
  131OSM   H13F14152   3.772   3.426   7.902 -0.3115 -0.4419 -1.3888
  131OSM   H13G14153   3.628   3.492   7.806  0.2637  0.7126  0.2398
  131OSM   C14F14154   3.649   3.575   8.007 -0.3747 -0.2246 -0.6683
  131OSM   H14F14155   3.581   3.657   7.976 -0.4972 -0.4536 -1.0089
  131OSM   H14G14156   3.741   3.615   8.056  2.0762 -6.6737  1.1238
  131OSM   C15F14157   3.578   3.480   8.097 -0.2386  0.1668 -0.1919
  131OSM   H15F14158   3.643   3.395   8.129 -1.4156 -0.6455  0.1137
  131OSM   H15G14159   3.495   3.437   8.038 -0.4624 -0.4494  0.5585
  131OSM   C16F14160   3.507   3.535   8.222 -0.0809 -0.2278  0.0419
  131OSM   H16F14161   3.412   3.479   8.240  1.0939 -2.3960 -0.1543
  131OSM   H16G14162   3.474   3.640   8.209 -2.0723 -0.7481  0.5777
  131OSM   C17F14163   3.598   3.522   8.342  0.9423  0.3197 -0.5402
  131OSM   H17F14164   3.686   3.586   8.322  1.4268 -0.7168 -1.9548
  131OSM   H17G14165   3.625   3.418   8.371 -2.0333 -0.0857  1.1142
  131OSM   C18F14166   3.515   3.562   8.471 -0.5366 -0.7244  0.1725
  131OSM   H18F14167   3.446   3.481   8.503 -1.6796  0.8529  1.8758
  131OSM   H18G14168   3.460   3.656   8.453  1.6077  0.6162  0.2707
  131OSM   H18H14169   3.586   3.570   8.557 -1.2419 -2.6181  0.9984
  132OSM      N14170   5.601   1.481   6.218  0.2767 -0.1614  0.2357
  132OSM    C1514171   5.669   1.412   6.107 -0.8744  0.0807  0.1899
  132OSM   H15A14172   5.776   1.429   6.108 -0.5507 -1.4001 -1.8029
  132OSM   H15B14173   5.636   1.457   6.015 -0.1653  1.6094  0.6565
  132OSM   H15C14174   5.667   1.304   6.116 -0.2006  0.0777  0.3659
  132OSM    C1414175   5.635   1.622   6.226 -0.8549 -0.0718 -0.4318
  132OSM   H14A14176   5.631   1.670   6.130 -0.5350  2.7777  0.8662
  132OSM   H14B14177   5.730   1.644   6.274 -1.8095  1.7785  0.7220
  132OSM   H14C14178   5.568   1.670   6.296 -0.6003 -1.1823  0.6223
  132OSM    C1314179   5.449   1.466   6.193 -0.2925  0.4077  1.0192
  132OSM   H13A14180   5.389   1.521   6.264  2.1622  1.6159  2.2900
  132OSM   H13B14181   5.434   1.359   6.187 -1.1209  0.5871 -0.8055
  132OSM   H13C14182   5.419   1.511   6.099 -0.0173 -0.7487  0.3658
  132OSM    C1214183   5.635   1.413   6.349 -0.3512 -0.2140  0.0414
  132OSM   H12A14184   5.584   1.468   6.426 -1.0484 -3.1938  1.8918
  132OSM   H12B14185   5.741   1.424   6.366 -0.1505 -1.0721 -0.5478
  132OSM    C1114186   5.595   1.267   6.378  0.0978 -0.0556 -0.1593
  132OSM   H11A14187   5.485   1.255   6.366  0.2993 -0.9659 -1.3017
  132OSM   H11B14188   5.619   1.249   6.485  0.0147 -0.6947 -0.2468
  132OSM      P14189   5.809   1.133   6.302 -0.5928 -0.3107 -0.3885
  132OSM    O1314190   5.843   1.041   6.191  0.4279  0.1843 -0.0086
  132OSM    O1414191   5.882   1.259   6.310 -0.3673  0.4874 -0.2453
  132OSM    O1114192   5.814   1.055   6.430 -0.3975  0.2948 -0.0610
  132OSM    O1214193   5.652   1.169   6.295 -0.3124  0.2113  0.4793
  132OSM    C1S14194   5.726   0.961   6.492  0.3935  0.3185 -0.2010
  132OSM    H1S14195   5.723   0.876   6.421  2.4281  1.8355 -2.2932
  132OSM    H1T14196   5.631   1.014   6.513  0.7794  0.2862  1.7690
  132OSM     NF14197   5.719   0.791   6.675  0.1020 -0.2482  0.1207
  132OSM    HNF14198   5.669   0.788   6.762 -1.1331  0.6949 -0.5228
  132OSM    C2S14199   5.786   0.911   6.627 -0.6677  0.1940 -0.3165
  132OSM    H2S14200   5.894   0.888   6.615 -0.7798  0.4376 -1.9191
  132OSM    C3S14201   5.775   1.022   6.731  0.0211  0.1261 -0.2201
  132OSM    H3S14202   5.670   1.025   6.767  0.3810 -1.7549  1.1193
  132OSM     O314203   5.816   1.146   6.681  0.2653  0.2585 -0.8079
  132OSM    HO314204   5.843   1.129   6.590 -1.2642 -0.4640 -1.1501
  132OSM    C4S14205   5.850   0.994   6.853  0.2836  0.0777  0.0705
  132OSM    H4S14206   5.805   0.915   6.916  1.0157 -1.0964 -0.8319
  132OSM    C5S14207   5.971   1.031   6.896  0.6612 -0.2078  0.1886
  132OSM    H5S14208   6.022   1.095   6.823 -0.8458 -0.0887 -0.8091
  132OSM    C6S14209   6.046   0.995   7.017 -0.3062 -0.5319 -0.4102
  132OSM    H6S14210   6.079   1.087   7.070  0.3014 -1.1375  0.2816
  132OSM    H6T14211   6.138   0.942   6.984  0.3268  0.2775  0.0267
  132OSM    C7S14212   5.968   0.903   7.110 -0.3211 -0.3019 -0.0526
  132OSM    H7S14213   5.928   0.809   7.067 -2.4247  1.6525 -2.7138
  132OSM    H7T14214   5.885   0.959   7.160  0.3750  0.0424  0.7462
  132OSM    C8S14215   6.051   0.863   7.233  0.1681 -0.2476  0.3147
  132OSM    H8S14216   6.120   0.944   7.266  1.7283 -1.2229 -0.4817
  132OSM    H8T14217   6.119   0.781   7.201  0.8367 -0.2273  1.6308
  132OSM    C9S14218   5.965   0.829   7.354 -0.7646 -0.6065 -0.2723
  132OSM    H9S14219   5.882   0.765   7.316 -2.8227  0.9130  1.4008
  132OSM    H9T14220   5.916   0.921   7.391  0.4277  0.6161 -1.6248
  132OSM   C10S14221   6.047   0.754   7.459  0.1188 -0.2760  0.5563
  132OSM   H10S14222   6.127   0.824   7.491 -0.1258  0.2893 -0.0476
  132OSM   H10T14223   6.082   0.654   7.424  1.1903 -0.9855  3.3453
  132OSM   C11S14224   5.960   0.718   7.583  0.1626  0.7539 -0.2566
  132OSM   H11S14225   5.868   0.666   7.551 -0.0960  1.3498 -0.5105
  132OSM   H11T14226   5.929   0.816   7.627  1.1845 -0.2507  2.9628
  132OSM   C12S14227   6.044   0.639   7.680 -0.2064  0.2626 -0.1692
  132OSM   H12S14228   6.121   0.698   7.734  0.8495 -0.2493 -1.0656
  132OSM   H12T14229   6.089   0.550   7.630  0.3322 -0.1209  0.9491
  132OSM   C13S14230   5.954   0.590   7.798 -0.1121  0.6695 -0.0760
  132OSM   H13S14231   5.873   0.526   7.758 -3.6341  4.3381  0.5869
  132OSM   H13T14232   5.899   0.670   7.852  0.8183 -0.7116  3.1690
  132OSM   C14S14233   6.015   0.507   7.918  0.1784  0.0929 -0.4532
  132OSM   H14S14234   6.020   0.562   8.014 -3.5310 -1.0606  0.5939
  132OSM   H14T14235   6.113   0.469   7.882  0.4627  0.2485  0.1467
  132OSM   C15S14236   5.931   0.388   7.963 -0.2530  0.4144  0.4685
  132OSM   H15S14237   5.917   0.309   7.886 -0.0946  1.5522 -0.7795
  132OSM   H15T14238   5.832   0.435   7.983  0.3804  2.9685 -1.7076
  132OSM   C16S14239   5.968   0.331   8.101  0.2916  0.3607 -0.4168
  132OSM   H16S14240   5.960   0.399   8.189 -0.4737  0.0015 -0.1966
  132OSM   H16T14241   6.076   0.306   8.092 -0.1013 -1.9021  0.6604
  132OSM   C17S14242   5.885   0.201   8.128 -0.2392 -0.8925 -0.1020
  132OSM   H17S14243   5.891   0.146   8.031  0.4823 -3.0533  1.0960
  132OSM   H17T14244   5.779   0.229   8.146 -0.3556 -1.4582  0.1044
  132OSM   C18S14245   5.938   0.121   8.249 -1.0349 -0.2304 -0.1749
  132OSM   H18S14246   5.917   0.178   8.342 -0.0648 -1.1632  0.6432
  132OSM   H18T14247   6.045   0.099   8.231 -0.6841  1.0389  0.2255
  132OSM   H18U14248   5.881   0.026   8.249 -3.9320  1.3354 -2.6568
  132OSM    C1F14249   5.735   0.679   6.608  0.5062 -0.1175  0.8344
  132OSM     OF14250   5.791   0.672   6.501 -0.3236  0.3419  0.5360
  132OSM    C2F14251   5.680   0.559   6.682 -0.1702 -0.1309 -0.4479
  132OSM    H2F14252   5.627   0.491   6.612 -1.7080  1.5217 -0.9743
  132OSM    H2G14253   5.611   0.588   6.764  1.1767 -0.4912  0.8547
  132OSM    C3F14254   5.796   0.477   6.751 -0.3993 -0.0935 -0.2149
  132OSM    H3F14255   5.883   0.461   6.685 -0.4350  0.5806 -0.4388
  132OSM    H3G14256   5.743   0.380   6.764 -1.1886 -0.1275 -3.0129
  132OSM    C4F14257   5.843   0.511   6.899  0.0824  0.0195 -0.1302
  132OSM    H4F14258   5.840   0.619   6.924 -0.9743 -0.1672  0.6239
  132OSM    H4G14259   5.950   0.483   6.905  0.4110  0.7052 -2.0917
  132OSM    C5F14260   5.773   0.426   7.013 -0.4432 -0.3414 -0.3600
  132OSM    H5F14261   5.756   0.321   6.980 -1.0080 -0.9067  1.5446
  132OSM    H5G14262   5.677   0.479   7.032 -0.0854  0.2667 -0.2323
  132OSM    C6F14263   5.848   0.424   7.146  0.0205 -0.2174 -0.0130
  132OSM    H6F14264   5.839   0.528   7.185  2.9788  0.4225 -0.7925
  132OSM    H6G14265   5.957   0.409   7.128  0.8387  2.8747  1.6448
  132OSM    C7F14266   5.789   0.344   7.264  0.3731 -0.7565 -0.3911
  132OSM    H7F14267   5.770   0.237   7.239  0.0948 -1.1006  1.2151
  132OSM    H7G14268   5.688   0.388   7.280  1.2311  1.0629  0.2719
  132OSM    C8F14269   5.868   0.364   7.397  0.0801  0.0799  0.3535
  132OSM    H8F14270   5.880   0.473   7.417  0.6559 -0.2578  1.9779
  132OSM    H8G14271   5.971   0.329   7.374 -0.8835 -0.8973 -2.9733
  132OSM    C9F14272   5.805   0.285   7.504 -0.1150 -0.1645 -0.0655
  132OSM    H9F14273   5.736   0.355   7.554  1.6834  1.1383  0.7386
  132OSM   C10F14274   5.844   0.167   7.551 -0.9742 -0.4742 -0.6041
  132OSM   H10F14275   5.793   0.136   7.644  2.1613  0.2752  1.5256
  132OSM   C11F14276   5.962   0.087   7.505  0.2418  0.8027 -0.5457
  132OSM   H11F14277   6.033   0.096   7.590  0.9249 -1.4947 -0.8056
  132OSM   H11G14278   6.016   0.122   7.415  0.8235 -1.2599 -1.0548
  132OSM   C12F14279   5.929  -0.067   7.480 -0.0264 -1.3859  0.4949
  132OSM   H12F14280   5.910  -0.104   7.582 -0.2299 -0.0143  0.9767
  132OSM   H12G14281   6.021  -0.117   7.443  0.8437  0.9040 -0.7044
  132OSM   C13F14282   5.815  -0.091   7.388  0.5450 -0.2737  0.1118
  132OSM   H13F14283   5.836  -0.049   7.288  0.5081 -0.5592 -0.0173
  132OSM   H13G14284   5.725  -0.043   7.432  1.5895  1.8105  0.0678
  132OSM   C14F14285   5.792  -0.250   7.362  0.3179  0.2663  0.0828
  132OSM   H14F14286   5.753  -0.277   7.463 -1.2995 -2.1710 -1.0874
  132OSM   H14G14287   5.890  -0.302   7.360  0.7119  1.0077 -1.8549
  132OSM   C15F14288   5.696  -0.280   7.246 -0.9180  0.0023 -0.2617
  132OSM   H15F14289   5.613  -0.206   7.256 -0.2881  0.7871 -0.7002
  132OSM   H15G14290   5.647  -0.379   7.254 -1.1846  0.2398  1.4267
  132OSM   C16F14291   5.766  -0.274   7.112  0.2736  0.0674 -0.3724
  132OSM   H16F14292   5.835  -0.187   7.104 -0.2630  0.4730 -0.6138
  132OSM   H16G14293   5.693  -0.265   7.029  1.8298  1.2789 -1.6805
  132OSM   C17F14294   5.844  -0.406   7.087  0.6632 -0.0815  0.1529
  132OSM   H17F14295   5.776  -0.494   7.093 -0.9575  1.1689  1.1726
  132OSM   H17G14296   5.920  -0.429   7.164  1.1687 -1.5477 -0.7498
  132OSM   C18F14297   5.924  -0.397   6.962 -0.2223  0.0926  0.0354
  132OSM   H18F14298   5.959  -0.496   6.925 -0.1185  0.6759 -1.5308
  132OSM   H18G14299   6.007  -0.326   6.985  0.0088  0.1278 -0.8582
  132OSM   H18H14300   5.874  -0.343   6.879  1.1868 -1.1118 -1.7063
  133SAPE     N14301   1.642   5.371  11.048 -0.2322  0.1121 -0.1125
  133SAPE   HN114302   1.595   5.280  11.068 -1.6505  0.8193 -0.0441
  133SAPE   HN214303   1.739   5.337  11.036 -1.2384 -2.5571 -1.6749
  133SAPE   HN314304   1.641   5.421  11.139 -0.3193 -2.0919  1.1705
  133SAPE   C1214305   1.598   5.419  10.911 -0.4228  0.6803 -0.4170
  133SAPE  H12A14306   1.645   5.518  10.890 -0.4196  0.4099 -1.8268
  133SAPE  H12B14307   1.488   5.432  10.905 -0.3944  1.3755  0.3130
  133SAPE   C1114308   1.644   5.319  10.802 -0.5038  0.0638 -0.8163
  133SAPE  H11A14309   1.754   5.313  10.788 -0.4324  0.7287 -0.5773
  133SAPE  H11B14310   1.599   5.360  10.709 -0.6891 -0.7136 -1.0814
  133SAPE     P14311   1.485   5.108  10.755 -0.3114  0.7171  0.0977
  133SAPE   O1314312   1.521   4.963  10.749 -0.2589  0.0140 -0.1327
  133SAPE   O1414313   1.354   5.144  10.815  0.1591  0.3119 -0.1972
  133SAPE   O1214314   1.592   5.191  10.831  0.5887 -0.1496  0.0415
  133SAPE   O1114315   1.501   5.172  10.617 -0.3073 -0.2290 -0.1980
  133SAPE    C114316   1.386   5.228  10.548  0.5227  0.1384 -0.5232
  133SAPE    HA14317   1.327   5.298  10.611  2.8039  0.9625  0.8562
  133SAPE    HB14318   1.404   5.292  10.459 -0.7718  1.0065 -0.1808
  133SAPE    C214319   1.309   5.114  10.481 -0.7649  0.2362 -0.4074
  133SAPE    HS14320   1.295   5.027  10.549  0.9531 -0.1061 -0.4376
  133SAPE   O2114321   1.374   5.073  10.362 -0.5170  0.2781 -0.2736
  133SAPE   C2114322   1.376   4.949  10.344 -0.3985 -0.4913 -1.1905
  133SAPE   O2214323   1.353   4.862  10.425  0.1496  0.2815 -0.0090
  133SAPE   C2214324   1.409   4.928  10.196  0.2018 -0.0396  0.0205
  133SAPE   H2R14325   1.334   4.985  10.138 -0.3909 -0.1643  0.6578
  133SAPE   H2S14326   1.512   4.968  10.183  0.2385  0.6022  1.9786
  133SAPE    C314327   1.163   5.158  10.451  0.0731  0.1200 -1.0370
  133SAPE    HX14328   1.156   5.258  10.402 -2.0460  0.8182  0.5765
  133SAPE    HY14329   1.123   5.196  10.547 -0.0624  1.3265 -1.5496
  133SAPE   O3114330   1.078   5.058  10.384 -0.9318 -0.3447  0.0508
  133SAPE   C3114331   1.043   4.956  10.456 -0.2306  0.8256 -0.2625
  133SAPE   O3214332   1.087   4.925  10.567  0.3925  0.3358  0.2576
  133SAPE   C3214333   0.927   4.885  10.396  0.1745  0.1361  0.5541
  133SAPE   H2X14334   0.863   4.967  10.359  1.1698  1.9102  2.5858
  133SAPE   H2Y14335   0.874   4.818  10.467 -2.5497 -0.3524 -1.7783
  133SAPE   C2314336   1.409   4.773  10.169  0.1191 -0.3814 -0.4977
  133SAPE   H3R14337   1.308   4.733  10.191  0.5089  0.5745  4.1802
  133SAPE   H3S14338   1.481   4.732  10.244 -2.0047 -0.7700  1.4515
  133SAPE   C2414339   1.442   4.745  10.027 -0.0245  0.4517  0.1196
  133SAPE   H4R14340   1.507   4.822   9.982 -0.2817  0.8917  0.4966
  133SAPE   H4S14341   1.344   4.749   9.975 -0.2798 -2.2060  0.2606
  133SAPE   C2514342   1.502   4.610  10.017 -0.1656  0.0530 -0.1795
  133SAPE   H5R14343   1.608   4.614  10.044 -1.2552 -0.5528  5.1212
  133SAPE   C2614344   1.444   4.491   9.996 -0.1368  0.3850 -0.3182
  133SAPE   H6R14345   1.498   4.397  10.016 -0.2332  0.1068 -1.2949
  133SAPE   C2714346   1.293   4.472   9.964  0.3190  0.0923 -0.0937
  133SAPE   H7R14347   1.252   4.565   9.920  0.5487  0.1153 -0.2584
  133SAPE   H7S14348   1.239   4.460  10.060 -0.8252  0.4445 -0.6689
  133SAPE   C2814349   1.258   4.356   9.879 -0.0170 -0.0936 -0.0269
  133SAPE   H8R14350   1.223   4.263   9.928 -2.5912  0.5894 -0.4073
  133SAPE   C2914351   1.275   4.356   9.743 -0.1161 -0.5542 -0.1264
  133SAPE   H9R14352   1.234   4.273   9.683  1.2242 -0.6248 -1.0034
  133SAPE  C21014353   1.336   4.472   9.661  0.6806  0.5861  0.6111
  133SAPE  H10R14354   1.446   4.459   9.667  0.5543 -0.4076  0.9552
  133SAPE  H10S14355   1.316   4.569   9.711  1.4841  0.0679  1.9820
  133SAPE  C21114356   1.291   4.472   9.515 -0.2601  0.2103 -0.5711
  133SAPE  H11R14357   1.197   4.417   9.498 -0.2037 -0.1229  0.1466
  133SAPE  C21214358   1.357   4.531   9.419  0.3395 -0.1074 -0.2022
  133SAPE  H12R14359   1.313   4.519   9.319 -0.7286 -1.8620  0.4223
  133SAPE  C21314360   1.480   4.617   9.420  0.0400 -0.2770 -0.2159
  133SAPE  H13R14361   1.547   4.598   9.333 -1.7640  0.0578 -1.7486
  133SAPE  H13S14362   1.539   4.582   9.508 -0.4786  2.2703  1.2379
  133SAPE  C21414363   1.442   4.759   9.439 -0.2775 -0.0517  0.4050
  133SAPE  H14R14364   1.389   4.775   9.534 -2.2238 -0.8677 -0.4847
  133SAPE  C21514365   1.467   4.864   9.357 -1.1611 -0.3169  0.0262
  133SAPE  H15R14366   1.435   4.966   9.380 -0.3698  0.5244 -2.3393
  133SAPE  C21614367   1.537   4.869   9.218 -0.0142  0.2172  0.7692
  133SAPE  H16R14368   1.457   4.904   9.149  1.8493  2.2608 -0.4529
  133SAPE  H16S14369   1.567   4.768   9.181  0.6209  0.8902 -0.6208
  133SAPE  C21714370   1.649   4.975   9.216 -0.1844  0.6757 -0.4795
  133SAPE  H17R14371   1.735   4.938   9.277  0.3079 -0.1862 -1.6548
  133SAPE  H17S14372   1.615   5.076   9.246  1.1219  1.1238 -0.4225
  133SAPE  C21814373   1.718   4.981   9.080 -0.3860 -0.0722  0.4397
  133SAPE  H18R14374   1.722   4.880   9.035  0.7075 -1.3549  3.1918
  133SAPE  H18S14375   1.822   5.012   9.106  0.1308 -2.3091  1.2959
  133SAPE  C21914376   1.645   5.071   8.976  0.2809 -0.2631  0.4039
  133SAPE  H19R14377   1.612   5.171   9.012 -0.7506  0.2067 -1.6586
  133SAPE  H19S14378   1.554   5.021   8.937 -0.6381  0.7756  1.1669
  133SAPE  C22014379   1.735   5.097   8.852  0.0669 -0.8576  0.5965
  133SAPE  H20R14380   1.664   5.132   8.774 -0.0595 -0.2317  0.9857
  133SAPE  H20S14381   1.777   5.001   8.815  0.5873  0.0838 -1.4499
  133SAPE  H20T14382   1.817   5.172   8.864 -1.1733  0.5476  0.5897
  133SAPE   C3314383   0.980   4.790  10.282 -0.3909  0.2934 -0.0402
  133SAPE   H3X14384   1.011   4.691  10.319 -0.1918 -0.1391 -1.3247
  133SAPE   H3Y14385   1.061   4.837  10.223 -2.4106  2.2816 -1.4356
  133SAPE   C3414386   0.867   4.769  10.185 -0.3461  0.6891  0.3134
  133SAPE   H4X14387   0.824   4.865  10.149 -1.3900  1.0900  2.4377
  133SAPE   H4Y14388   0.781   4.717  10.232  1.1413 -0.7683  1.5363
  133SAPE   C3514389   0.905   4.687  10.055 -0.2287  0.4914  0.1183
  133SAPE   H5X14390   0.974   4.605  10.084 -0.3835  0.1189 -0.5555
  133SAPE   H5Y14391   0.959   4.748   9.981  2.7384 -1.6659  0.3270
  133SAPE   C3614392   0.778   4.642   9.976  0.6405 -0.1396  0.0824
  133SAPE   H6X14393   0.713   4.732   9.980 -0.8977 -1.2292  0.3626
  133SAPE   H6Y14394   0.742   4.558  10.038  1.1468  0.2152  0.8863
  133SAPE   C3714395   0.797   4.600   9.826  1.0360 -1.1233 -0.1876
  133SAPE   H7X14396   0.854   4.504   9.821 -0.6177 -2.2592  1.4672
  133SAPE   H7Y14397   0.851   4.684   9.778 -0.9667  0.3205 -0.0397
  133SAPE   C3814398   0.660   4.579   9.756 -0.4648  0.1172 -0.0399
  133SAPE   H8X14399   0.594   4.669   9.753  0.3599  0.8067  1.3088
  133SAPE   H8Y14400   0.610   4.490   9.798  0.5506 -0.3181  0.2954
  133SAPE   C3914401   0.675   4.530   9.611 -1.0230 -0.1087  0.1288
  133SAPE   H9X14402   0.573   4.501   9.576 -2.6228  2.6655  2.1326
  133SAPE   H9Y14403   0.741   4.441   9.617 -2.5537 -1.2714  0.4937
  133SAPE  C31014404   0.718   4.632   9.502 -0.4173  0.3253  0.5135
  133SAPE  H10X14405   0.802   4.699   9.530  0.4499 -0.0623 -1.0189
  133SAPE  H10Y14406   0.642   4.713   9.491 -3.4107 -2.4280 -0.9333
  133SAPE  C31114407   0.775   4.573   9.370 -0.1893  0.4537 -0.7409
  133SAPE  H11X14408   0.838   4.484   9.393 -0.4280  0.2933 -0.7020
  133SAPE  H11Y14409   0.829   4.653   9.314  0.5498  0.1088 -0.5436
  133SAPE  C31214410   0.672   4.519   9.275 -0.1325 -0.4954  0.3351
  133SAPE  H12X14411   0.604   4.596   9.232 -0.4662 -1.7037 -1.4444
  133SAPE  H12Y14412   0.619   4.436   9.327 -2.1476  1.8940  2.2827
  133SAPE  C31314413   0.725   4.466   9.136 -0.2933 -0.1893  0.2742
  133SAPE  H13X14414   0.795   4.382   9.152  0.0723  0.1922  0.6969
  133SAPE  H13Y14415   0.778   4.550   9.087  0.7677 -0.5818  0.7300
  133SAPE  C31414416   0.617   4.399   9.040  0.1055  0.0133 -0.5479
  133SAPE  H14X14417   0.543   4.346   9.103 -0.1136 -0.8322 -1.4925
  133SAPE  H14Y14418   0.666   4.320   8.979 -0.3195 -1.8109  1.3617
  133SAPE  C31514419   0.522   4.490   8.960  0.0371  0.8190  0.2118
  133SAPE  H15X14420   0.589   4.546   8.891 -0.0964  0.3175 -0.3355
  133SAPE  H15Y14421   0.479   4.553   9.040  3.3631  1.0199  2.0053
  133SAPE  C31614422   0.405   4.416   8.885 -0.1121  0.0133 -0.3081
  133SAPE  H16X14423   0.355   4.499   8.831 -0.0126 -0.3086 -0.9149
  133SAPE  H16Y14424   0.336   4.356   8.949 -0.1044  0.8311  0.4825
  133SAPE  C31714425   0.454   4.333   8.763  0.1610 -0.2583  0.0349
  133SAPE  H17X14426   0.535   4.259   8.780 -1.3366 -1.4428  2.7496
  133SAPE  H17Y14427   0.494   4.412   8.696  1.5999 -0.5177  0.5393
  133SAPE  C31814428   0.348   4.255   8.691 -0.0051  0.2074  0.5226
  133SAPE  H18X14429   0.377   4.222   8.589  1.3380  3.1315 -0.1805
  133SAPE  H18Y14430   0.257   4.318   8.680 -1.5683 -2.0335  0.1012
  133SAPE  H18Z14431   0.322   4.161   8.743  2.2404 -1.3844 -1.0439
  134SAPE     N14432   4.535   6.535  10.870  0.0556  0.3743  0.6602
  134SAPE   HN114433   4.621   6.527  10.812  0.2024 -0.1862  0.9461
  134SAPE   HN214434   4.535   6.619  10.931  1.7907 -0.3997  1.8014
  134SAPE   HN314435   4.532   6.448  10.927  0.9494 -0.5854 -0.6825
  134SAPE   C1214436   4.409   6.521  10.780  0.4666  0.7029  0.4199
  134SAPE  H12A14437   4.377   6.617  10.735 -1.6644 -0.8816 -1.6755
  134SAPE  H12B14438   4.330   6.488  10.851  1.3567 -2.8667 -0.0619
  134SAPE   C1114439   4.440   6.416  10.676  1.0319 -0.0446  0.5235
  134SAPE  H11A14440   4.524   6.449  10.612  1.6511 -0.6858  0.9967
  134SAPE  H11B14441   4.353   6.412  10.607 -0.2453  0.2327  2.0519
  134SAPE     P14442   4.546   6.172  10.689 -0.1819  0.2551 -0.3946
  134SAPE   O1314443   4.674   6.170  10.763 -0.0458  0.1451 -0.1655
  134SAPE   O1414444   4.458   6.052  10.698 -0.1166 -0.4142  0.3067
  134SAPE   O1214445   4.460   6.291  10.736 -0.2794 -0.2217  0.1185
  134SAPE   O1114446   4.581   6.205  10.548  0.1599  0.1599 -0.1422
  134SAPE    C114447   4.621   6.093  10.464  0.2445  0.3318  0.5681
  134SAPE    HA14448   4.731   6.085  10.453  0.4922  4.2309 -1.2991
  134SAPE    HB14449   4.580   5.994  10.496  0.7177  0.2307  0.8889
  134SAPE    C214450   4.576   6.107  10.315  0.5388  0.2098  0.0871
  134SAPE    HS14451   4.599   6.012  10.262  1.2692 -0.0483  0.8393
  134SAPE   O2114452   4.655   6.213  10.251  0.8149  0.5410  0.1951
  134SAPE   C2114453   4.768   6.174  10.216 -0.3769  0.2033  0.6915
  134SAPE   O2214454   4.813   6.059  10.218 -0.4333  0.1648  0.0777
  134SAPE   C2214455   4.842   6.297  10.162  0.0053  0.0534 -1.0995
  134SAPE   H2R14456   4.764   6.366  10.122 -1.0761  0.1492  0.9980
  134SAPE   H2S14457   4.896   6.354  10.241  2.7323 -0.2207 -2.6533
  134SAPE    C314458   4.423   6.140  10.293 -0.0988  0.0263 -0.1023
  134SAPE    HX14459   4.409   6.236  10.347 -0.5485  0.6731 -1.3384
  134SAPE    HY14460   4.361   6.060  10.340 -4.0221  2.4457 -0.6795
  134SAPE   O3114461   4.389   6.156  10.153 -0.5890 -0.5364 -0.1342
  134SAPE   C3114462   4.355   6.051  10.081 -0.5324  0.2490  0.2414
  134SAPE   O3214463   4.348   5.937  10.126 -0.0306 -0.1207 -0.5786
  134SAPE   C3214464   4.333   6.082   9.932  0.5306 -0.5783 -0.0228
  134SAPE   H2X14465   4.403   6.157   9.890  0.6891 -1.5689 -1.6159
  134SAPE   H2Y14466   4.230   6.118   9.910  0.3308 -0.6479  0.7726
  134SAPE   C2314467   4.960   6.274  10.057 -0.1234 -0.4709 -0.5912
  134SAPE   H3R14468   5.018   6.188  10.098  0.9311  0.1280 -0.7861
  134SAPE   H3S14469   5.028   6.361  10.060 -0.4469 -0.2277  1.1400
  134SAPE   C2414470   4.910   6.254   9.914  0.3075  0.6528  0.0718
  134SAPE   H4R14471   4.851   6.160   9.903 -1.4083  1.6646  0.2129
  134SAPE   H4S14472   4.999   6.239   9.849  0.2795  2.3620 -0.3998
  134SAPE   C2514473   4.839   6.374   9.865 -0.0452  0.0008  0.9388
  134SAPE   H5R14474   4.886   6.469   9.893  0.1960 -0.4520  2.1535
  134SAPE   C2614475   4.728   6.371   9.796 -0.9134  0.4617  1.1553
  134SAPE   H6R14476   4.691   6.470   9.767 -0.9096  0.2204  0.2887
  134SAPE   C2714477   4.644   6.250   9.757 -0.3572  0.0238  0.1495
  134SAPE   H7R14478   4.541   6.287   9.775 -0.0954  1.4399 -1.0225
  134SAPE   H7S14479   4.664   6.154   9.809 -4.1791 -1.1893 -0.3283
  134SAPE   C2814480   4.667   6.228   9.609  0.6181 -0.0024 -0.5884
  134SAPE   H8R14481   4.655   6.316   9.544 -0.6495  0.8243  0.7070
  134SAPE   C2914482   4.726   6.126   9.545  0.1046  0.2987 -0.7278
  134SAPE   H9R14483   4.749   6.138   9.438 -0.6776 -2.7821 -1.3630
  134SAPE  C21014484   4.775   5.996   9.601 -0.1301 -0.5071  0.2595
  134SAPE  H10R14485   4.714   5.961   9.688  1.8307 -0.0072  1.8963
  134SAPE  H10S14486   4.875   6.025   9.639 -0.2468 -1.4247  1.3105
  134SAPE  C21114487   4.799   5.882   9.498 -0.8926  0.0186 -0.7399
  134SAPE  H11R14488   4.708   5.824   9.476  0.2787 -1.7273 -1.1672
  134SAPE  C21214489   4.906   5.863   9.418  0.8939  0.2187  0.0799
  134SAPE  H12R14490   4.902   5.768   9.364  0.6074  0.4737 -0.3517
  134SAPE  C21314491   5.028   5.950   9.414 -0.7500 -0.1801  0.2436
  134SAPE  H13R14492   5.100   5.905   9.485 -1.6990 -1.0473  0.6845
  134SAPE  H13S14493   5.018   6.054   9.451 -1.4784  0.1207 -0.7348
  134SAPE  C21414494   5.084   5.958   9.275 -0.3883 -0.1468 -0.6033
  134SAPE  H14R14495   5.135   5.870   9.232 -0.3374 -0.0633 -0.7131
  134SAPE  C21514496   5.059   6.059   9.186  0.2115  0.3079  0.2227
  134SAPE  H15R14497   5.097   6.057   9.083 -2.9990 -1.9595 -1.0679
  134SAPE  C21614498   4.968   6.178   9.208  0.9852 -0.4517 -0.8157
  134SAPE  H16R14499   5.043   6.250   9.248  0.4884  0.0974 -0.8626
  134SAPE  H16S14500   4.887   6.155   9.280  1.4946  1.0829  0.3027
  134SAPE  C21714501   4.927   6.233   9.068  0.0564 -0.5746  0.9635
  134SAPE  H17R14502   4.881   6.155   9.005 -1.4463 -0.6308  2.0497
  134SAPE  H17S14503   5.021   6.280   9.033 -2.0632  2.1588 -1.6668
  134SAPE  C21814504   4.824   6.342   9.096 -0.2362  0.6303 -0.1596
  134SAPE  H18R14505   4.828   6.429   9.028 -1.5385  0.3920 -0.5528
  134SAPE  H18S14506   4.842   6.375   9.201 -0.1388 -0.9700  0.3620
  134SAPE  C21914507   4.672   6.304   9.080  0.0400 -0.0144 -0.4626
  134SAPE  H19R14508   4.663   6.281   8.972  1.5431 -0.5829 -0.4910
  134SAPE  H19S14509   4.609   6.394   9.096 -0.6857 -0.3896 -1.1406
  134SAPE  C22014510   4.625   6.199   9.174  0.6346 -0.6702  0.0117
  134SAPE  H20R14511   4.639   6.237   9.278  1.8280  2.4196 -1.1671
  134SAPE  H20S14512   4.676   6.100   9.169 -1.2957 -1.6700 -0.6647
  134SAPE  H20T14513   4.520   6.165   9.160  0.6228 -1.1223  1.0500
  134SAPE   C3314514   4.352   5.959   9.851  0.0548  0.1028 -0.1739
  134SAPE   H3X14515   4.277   5.882   9.877 -0.1664  0.5470  0.5367
  134SAPE   H3Y14516   4.455   5.924   9.872  0.4299 -0.1706 -2.2504
  134SAPE   C3414517   4.343   5.993   9.702 -0.3440  0.0442  0.0241
  134SAPE   H4X14518   4.403   6.080   9.667  0.1633 -0.9742 -1.8146
  134SAPE   H4Y14519   4.235   6.012   9.685 -0.0285  0.9036 -1.2135
  134SAPE   C3514520   4.387   5.886   9.604 -0.3314  0.2477  0.0156
  134SAPE   H5X14521   4.320   5.796   9.604 -1.0016  0.7335 -0.5948
  134SAPE   H5Y14522   4.491   5.863   9.634 -0.5492  2.1800  2.5710
  134SAPE   C3614523   4.392   5.934   9.459 -0.3932  0.4871 -0.6455
  134SAPE   H6X14524   4.463   6.019   9.452  0.4248  0.0440  1.4283
  134SAPE   H6Y14525   4.292   5.978   9.435 -0.1659  0.6481 -1.3126
  134SAPE   C3714526   4.426   5.819   9.368 -0.4880 -1.1955  0.0365
  134SAPE   H7X14527   4.350   5.738   9.363 -2.1737  0.3853 -1.7560
  134SAPE   H7Y14528   4.514   5.768   9.412  0.5581  1.0865  0.7392
  134SAPE   C3814529   4.449   5.886   9.227  0.0248  0.3402 -0.7131
  134SAPE   H8X14530   4.514   5.976   9.239  1.3910 -0.6715 -0.3707
  134SAPE   H8Y14531   4.349   5.923   9.198  0.4373  1.3659 -0.8815
  134SAPE   C3914532   4.507   5.790   9.121  0.5101 -0.4659 -1.3385
  134SAPE   H9X14533   4.430   5.712   9.105 -1.4114  0.9369  0.5658
  134SAPE   H9Y14534   4.600   5.748   9.167  0.5420  1.6985  0.7801
  134SAPE  C31014535   4.549   5.848   8.989  0.2463 -0.3800 -0.0414
  134SAPE  H10X14536   4.622   5.780   8.940  2.2513  0.7594  1.2309
  134SAPE  H10Y14537   4.610   5.941   8.999 -0.2740 -0.1473  1.0734
  134SAPE  C31114538   4.426   5.896   8.907  0.6625 -0.1397 -0.1779
  134SAPE  H11X14539   4.463   5.937   8.811 -0.8755 -2.3833 -1.8479
  134SAPE  H11Y14540   4.380   5.981   8.961 -0.2034  0.2921 -1.5517
  134SAPE  C31214541   4.315   5.792   8.865 -0.0825  0.4317  0.2378
  134SAPE  H12X14542   4.250   5.796   8.955 -0.2345  0.7327  0.1154
  134SAPE  H12Y14543   4.357   5.690   8.852  0.2393  0.6285 -0.3358
  134SAPE  C31314544   4.234   5.852   8.740 -0.3278  0.5694  0.2359
  134SAPE  H13X14545   4.214   5.961   8.755 -2.7909  0.1278  0.6684
  134SAPE  H13Y14546   4.131   5.808   8.739 -0.1604  0.1699  0.4735
  134SAPE  C31414547   4.292   5.809   8.606  1.0051  0.0702 -0.2520
  134SAPE  H14X14548   4.400   5.832   8.611  0.9594  0.2298 -0.0112
  134SAPE  H14Y14549   4.253   5.875   8.526 -1.7270  2.4881  2.7889
  134SAPE  C31514550   4.273   5.663   8.570 -0.0630 -0.2808 -0.0677
  134SAPE  H15X14551   4.164   5.644   8.574 -0.0861 -0.0659  0.4060
  134SAPE  H15Y14552   4.316   5.592   8.644 -1.1466 -0.1498  0.7042
  134SAPE  C31614553   4.327   5.632   8.437 -0.2059  0.1173  0.1413
  134SAPE  H16X14554   4.291   5.713   8.370  0.2542 -0.4512 -0.8109
  134SAPE  H16Y14555   4.288   5.537   8.395  0.3815 -0.5371  1.0515
  134SAPE  C31714556   4.480   5.615   8.423  0.4222 -0.5799 -0.0334
  134SAPE  H17X14557   4.533   5.694   8.481  1.5653 -0.1948 -1.5584
  134SAPE  H17Y14558   4.504   5.635   8.317 -0.7885 -2.7368 -0.7732
  134SAPE  C31814559   4.538   5.476   8.460 -0.3749 -0.1036 -0.2826
  134SAPE  H18X14560   4.497   5.451   8.560  3.7203 -0.8136  1.4267
  134SAPE  H18Y14561   4.649   5.463   8.458 -0.5784 -2.0767 -1.8078
  134SAPE  H18Z14562   4.487   5.398   8.400  0.6610 -0.4000 -0.7928
  135SAPE     N14563   3.396   6.063  10.482  0.1514 -0.3280 -0.0179
  135SAPE   HN114564   3.435   6.158  10.497  1.9859 -1.0483  0.0043
  135SAPE   HN214565   3.360   6.020  10.570  1.1716  0.2518  0.7063
  135SAPE   HN314566   3.483   6.008  10.464  1.7242  2.2373 -0.7691
  135SAPE   C1214567   3.304   6.039  10.368  0.4224 -0.6017 -0.4811
  135SAPE  H12A14568   3.363   6.053  10.275 -0.8912  1.5094 -1.0662
  135SAPE  H12B14569   3.229   6.121  10.378  0.5389 -0.5008 -0.4294
  135SAPE   C1114570   3.247   5.897  10.372  0.7630  0.0669  0.2170
  135SAPE  H11A14571   3.321   5.815  10.366  0.8133  0.0375  1.1275
  135SAPE  H11B14572   3.190   5.880  10.278  0.6139  3.9455 -0.5360
  135SAPE     P14573   3.204   5.809  10.615  0.4387 -0.1953  0.3608
  135SAPE   O1314574   3.309   5.900  10.672 -0.6694 -0.2365  0.3375
  135SAPE   O1414575   3.082   5.785  10.692 -0.0951  0.0711  0.1123
  135SAPE   O1214576   3.159   5.875  10.482  0.3786 -0.3399  0.1743
  135SAPE   O1114577   3.273   5.674  10.570  0.6556 -0.1901 -0.0414
  135SAPE    C114578   3.207   5.549  10.550  0.4031  0.2348  0.6483
  135SAPE    HA14579   3.234   5.486  10.638  0.4376  0.8448  1.0815
  135SAPE    HB14580   3.096   5.555  10.553  0.4046  0.9646 -0.2785
  135SAPE    C214581   3.240   5.495  10.411 -0.3397  0.7663  0.3053
  135SAPE    HS14582   3.349   5.515  10.400 -0.7766  3.3995 -0.0588
  135SAPE   O2114583   3.167   5.569  10.311  0.3581  0.3156 -0.1261
  135SAPE   C2114584   3.221   5.556  10.196  0.2974  0.2418  0.1010
  135SAPE   O2214585   3.312   5.480  10.169 -0.0655  0.1810 -0.0187
  135SAPE   C2214586   3.150   5.641  10.091  0.0733 -0.5552  0.3192
  135SAPE   H2R14587   3.079   5.708  10.144 -1.1526  0.4280 -2.3897
  135SAPE   H2S14588   3.233   5.697  10.043  0.2864 -0.6827  0.5351
  135SAPE    C314589   3.195   5.347  10.397  1.0283 -0.3132 -0.2676
  135SAPE    HX14590   3.240   5.295  10.485 -2.5876 -0.6720  1.5424
  135SAPE    HY14591   3.229   5.299  10.303  0.0173  0.1966 -0.9087
  135SAPE   O3114592   3.052   5.336  10.400  0.2350  0.6624 -0.6090
  135SAPE   C3114593   3.001   5.229  10.453  0.4737 -0.3757  0.4870
  135SAPE   O3214594   3.062   5.126  10.487 -0.0979  0.2021 -0.0813
  135SAPE   C3214595   2.849   5.238  10.452  0.1341 -0.7351 -0.4323
  135SAPE   H2X14596   2.819   5.337  10.490 -1.4742 -0.9900 -0.9839
  135SAPE   H2Y14597   2.806   5.154  10.511  0.0195 -0.7121 -0.4847
  135SAPE   C2314598   3.069   5.553   9.991 -0.1662 -0.6614 -0.3276
  135SAPE   H3R14599   3.001   5.625   9.941 -2.1193 -0.8027  1.9814
  135SAPE   H3S14600   3.016   5.480  10.056  0.0792  0.2348  0.9122
  135SAPE   C2414601   3.156   5.476   9.883  0.1485 -0.6181  0.2857
  135SAPE   H4R14602   3.222   5.396   9.923  0.7012 -0.4152 -0.1916
  135SAPE   H4S14603   3.222   5.555   9.840  1.0636 -1.2172  0.5412
  135SAPE   C2514604   3.067   5.415   9.781  0.1939 -0.0841  0.0263
  135SAPE   H5R14605   3.025   5.315   9.796 -2.0412  0.7774 -0.0739
  135SAPE   C2614606   3.036   5.468   9.665  0.3390  0.0416 -0.0369
  135SAPE   H6R14607   2.955   5.419   9.609 -1.8739  1.8494  1.4199
  135SAPE   C2714608   3.079   5.600   9.608 -0.5400  0.0403 -0.1095
  135SAPE   H7R14609   3.109   5.674   9.685 -2.2301  0.7906 -0.1314
  135SAPE   H7S14610   2.993   5.653   9.563  1.1023  2.9132 -0.1217
  135SAPE   C2814611   3.201   5.592   9.515  0.6748 -0.7112 -0.0230
  135SAPE   H8R14612   3.292   5.547   9.558 -0.7581 -3.6942  0.1235
  135SAPE   C2914613   3.193   5.608   9.385 -0.4013  0.8962  0.2448
  135SAPE   H9R14614   3.283   5.600   9.322  0.0271  1.4761  0.7776
  135SAPE  C21014615   3.067   5.647   9.311  0.4471  0.3582  0.5277
  135SAPE  H10R14616   3.099   5.715   9.229  1.7039  0.9325  1.4606
  135SAPE  H10S14617   3.000   5.708   9.375  0.4862  2.8950 -1.6803
  135SAPE  C21114618   2.982   5.533   9.271  0.8204  0.0465  0.3031
  135SAPE  H11R14619   2.959   5.463   9.353 -0.1077  1.3806  1.2299
  135SAPE  C21214620   2.922   5.518   9.155  0.0031  1.0886 -0.7016
  135SAPE  H12R14621   2.865   5.426   9.133 -1.6965  1.8764  0.2773
  135SAPE  C21314622   2.942   5.599   9.038  0.4169 -0.4320 -0.0593
  135SAPE  H13R14623   3.012   5.562   8.960  1.6393  0.1284  0.7364
  135SAPE  H13S14624   2.989   5.697   9.063 -0.5766  0.9224 -3.0043
  135SAPE  C21414625   2.810   5.643   8.973  0.6514 -1.2209  0.2716
  135SAPE  H14R14626   2.730   5.663   9.046 -1.1247 -1.4863 -1.5011
  135SAPE  C21514627   2.775   5.658   8.844 -0.3294  0.7095  0.3885
  135SAPE  H15R14628   2.669   5.675   8.823 -0.2552 -0.1051 -0.7731
  135SAPE  C21614629   2.851   5.619   8.720  0.2123 -0.1375 -0.2241
  135SAPE  H16R14630   2.959   5.636   8.741  0.0806 -1.8594  2.3174
  135SAPE  H16S14631   2.814   5.674   8.631  1.1076  2.4328  0.8729
  135SAPE  C21714632   2.827   5.465   8.680  0.2336 -0.2917 -0.6519
  135SAPE  H17R14633   2.718   5.460   8.657 -0.0782 -0.3358  0.7380
  135SAPE  H17S14634   2.848   5.395   8.764  0.5908  2.1670  1.4464
  135SAPE  C21814635   2.915   5.425   8.562 -0.3021 -0.3406 -0.6920
  135SAPE  H18R14636   3.006   5.383   8.612 -1.4469 -0.8973  1.0147
  135SAPE  H18S14637   2.937   5.508   8.491  1.9343  0.1316  0.4503
  135SAPE  C21914638   2.857   5.309   8.476  0.1170  0.3123  1.0180
  135SAPE  H19R14639   2.828   5.221   8.537 -3.3806  1.4756  1.2744
  135SAPE  H19S14640   2.932   5.289   8.396 -0.1977 -1.5728  1.1513
  135SAPE  C22014641   2.733   5.352   8.402  0.4227 -0.6479  0.0894
  135SAPE  H20R14642   2.649   5.375   8.472 -0.4509 -1.0144 -0.8160
  135SAPE  H20S14643   2.696   5.269   8.339  1.3207 -0.5830 -0.5390
  135SAPE  H20T14644   2.753   5.436   8.332 -0.5254 -1.0501 -0.6821
  135SAPE   C3314645   2.787   5.239  10.312  0.4664 -0.7973  0.7190
  135SAPE   H3X14646   2.836   5.318  10.250 -1.1177  0.5599  1.1362
  135SAPE   H3Y14647   2.685   5.279  10.330  0.7781 -0.1713  1.1310
  135SAPE   C3414648   2.773   5.104  10.239 -0.0095  0.0352 -0.2624
  135SAPE   H4X14649   2.732   5.021  10.301 -0.5952  0.3618 -0.2008
  135SAPE   H4Y14650   2.875   5.073  10.208 -0.1308  0.5881 -1.2699
  135SAPE   C3514651   2.682   5.115  10.112 -0.4855  0.5449 -0.9009
  135SAPE   H5X14652   2.583   5.160  10.135 -0.5529  0.7052 -1.5129
  135SAPE   H5Y14653   2.664   5.009  10.084  1.9802 -0.2870  0.3621
  135SAPE   C3614654   2.733   5.195   9.989 -0.1714  0.0163  0.1531
  135SAPE   H6X14655   2.819   5.156   9.930 -1.9331 -0.6435 -2.1500
  135SAPE   H6Y14656   2.764   5.298  10.015  2.5013 -0.7282  0.1979
  135SAPE   C3714657   2.617   5.206   9.888 -0.1343  0.2575  0.7991
  135SAPE   H7X14658   2.522   5.247   9.929 -1.0224  1.0292 -1.8240
  135SAPE   H7Y14659   2.586   5.106   9.850  2.0341  0.3210 -1.4278
  135SAPE   C3814660   2.649   5.288   9.762  0.0617  0.6581 -0.5597
  135SAPE   H8X14661   2.741   5.241   9.720  0.3710 -0.4604  1.2346
  135SAPE   H8Y14662   2.680   5.391   9.787 -1.3410  0.5942  1.7763
  135SAPE   C3914663   2.546   5.281   9.658 -0.7346 -0.6829  0.1781
  135SAPE   H9X14664   2.466   5.348   9.695 -1.1523 -0.9200 -0.2887
  135SAPE   H9Y14665   2.500   5.182   9.644 -2.3425 -0.2344  1.8926
  135SAPE  C31014666   2.598   5.329   9.522 -0.2190  0.0875 -0.2239
  135SAPE  H10X14667   2.644   5.241   9.471 -1.8187 -1.1720  0.4476
  135SAPE  H10Y14668   2.680   5.403   9.528  2.9588 -2.9742 -2.0743
  135SAPE  C31114669   2.477   5.370   9.427  0.4071  0.0488  0.3586
  135SAPE  H11X14670   2.421   5.455   9.470  0.4395  2.3157 -3.5294
  135SAPE  H11Y14671   2.413   5.279   9.425  0.4155  0.0320  0.7738
  135SAPE  C31214672   2.524   5.419   9.291 -0.0790 -0.0859 -0.1763
  135SAPE  H12X14673   2.576   5.337   9.236  0.3008  0.3280 -0.4422
  135SAPE  H12Y14674   2.611   5.487   9.309 -0.4169  0.9311 -2.1371
  135SAPE  C31314675   2.414   5.484   9.213 -0.1468 -0.2043 -0.0800
  135SAPE  H13X14676   2.386   5.566   9.282 -1.2018 -1.1669  0.6856
  135SAPE  H13Y14677   2.328   5.413   9.202 -0.4444  0.3309 -1.3725
  135SAPE  C31414678   2.465   5.518   9.068  1.0045  0.0191 -0.7801
  135SAPE  H14X14679   2.545   5.591   9.091 -0.0050  0.6141  1.0262
  135SAPE  H14Y14680   2.378   5.564   9.017 -1.2600 -1.7011  1.2832
  135SAPE  C31514681   2.515   5.408   8.971 -0.0237  0.4440  0.2511
  135SAPE  H15X14682   2.604   5.355   9.011  0.0425  0.9257  0.7624
  135SAPE  H15Y14683   2.555   5.448   8.876  1.6941  2.2289  1.6235
  135SAPE  C31614684   2.407   5.307   8.935  0.3903 -0.0620  0.0106
  135SAPE  H16X14685   2.306   5.350   8.953 -0.9520 -2.2200 -1.8795
  135SAPE  H16Y14686   2.402   5.227   9.012 -2.6466 -0.1422 -0.1592
  135SAPE  C31714687   2.421   5.247   8.797  0.2348  0.5306  0.5891
  135SAPE  H17X14688   2.361   5.154   8.795 -0.8433  1.2148 -0.3194
  135SAPE  H17Y14689   2.524   5.212   8.773 -0.2963  0.7537 -2.3495
  135SAPE  C31814690   2.366   5.329   8.680 -0.8461  0.2600  0.4901
  135SAPE  H18X14691   2.255   5.323   8.680 -0.8981  1.0426 -0.0193
  135SAPE  H18Y14692   2.400   5.284   8.584  0.0944  1.6519  0.1273
  135SAPE  H18Z14693   2.409   5.432   8.680  0.0909 -0.1213  0.3726
  136SAPE     N14694   6.507   5.287  10.972  0.1320  0.4085 -0.1766
  136SAPE   HN114695   6.452   5.339  11.043  3.0433  0.4742  2.2167
  136SAPE   HN214696   6.609   5.305  10.977  0.6413 -2.0593 -0.0331
  136SAPE   HN314697   6.482   5.322  10.877 -1.0234  0.3563  0.0865
  136SAPE   C1214698   6.476   5.136  10.978  0.1703  0.0641 -1.0348
  136SAPE  H12A14699   6.392   5.110  10.910 -0.0036 -3.1527  0.2747
  136SAPE  H12B14700   6.447   5.123  11.084  0.4541  2.5940 -0.5722
  136SAPE   C1114701   6.609   5.055  10.952 -0.0332  0.0963  0.0826
  136SAPE  H11A14702   6.683   5.076  11.032 -2.5936 -2.9762  3.6090
  136SAPE  H11B14703   6.645   5.078  10.850  0.7940 -2.0808 -0.1735
  136SAPE     P14704   6.532   4.821  10.861  0.1844 -0.2633  0.3317
  136SAPE   O1314705   6.584   4.683  10.869 -0.1405  0.5119 -0.2542
  136SAPE   O1414706   6.381   4.827  10.854 -0.4337 -0.2241  0.1686
  136SAPE   O1214707   6.584   4.917  10.974 -0.3554 -0.1307  0.6041
  136SAPE   O1114708   6.586   4.882  10.717  0.2396  0.2833  0.4115
  136SAPE    C114709   6.503   4.971  10.645 -0.1273 -0.8137 -0.4869
  136SAPE    HA14710   6.471   5.054  10.711  1.6993 -1.0290  0.7476
  136SAPE    HB14711   6.580   5.009  10.575  0.8301  0.9094  1.3887
  136SAPE    C214712   6.398   4.890  10.562  0.2686  1.3118  0.2112
  136SAPE    HS14713   6.315   4.858  10.628 -0.2800  1.6400 -0.3073
  136SAPE   O2114714   6.461   4.774  10.500  0.1270 -0.6291 -0.4769
  136SAPE   C2114715   6.373   4.688  10.444  1.0421  0.2762 -0.7668
  136SAPE   O2214716   6.248   4.693  10.458 -0.2538  0.2120  0.4623
  136SAPE   C2214717   6.440   4.590  10.348  0.8129 -0.4494  0.3265
  136SAPE   H2R14718   6.527   4.542  10.396  0.0702 -0.5813  1.5877
  136SAPE   H2S14719   6.366   4.511  10.325  2.3110 -1.0772 -2.8271
  136SAPE    C314720   6.322   4.981  10.460  0.2963  0.7584 -0.3086
  136SAPE    HX14721   6.277   5.065  10.516 -0.8030 -1.6796  2.7604
  136SAPE    HY14722   6.250   4.910  10.414  1.2701 -1.1086  0.9191
  136SAPE   O3114723   6.415   5.023  10.362  0.2505 -0.2910 -0.4035
  136SAPE   C3114724   6.366   5.127  10.288 -0.2904  0.5346 -0.6283
  136SAPE   O3214725   6.250   5.167  10.286 -0.7928 -0.2369  0.1543
  136SAPE   C3214726   6.479   5.194  10.219  0.7315  1.3961  0.2174
  136SAPE   H2X14727   6.554   5.236  10.290  0.4711  1.9127  0.1921
  136SAPE   H2Y14728   6.434   5.269  10.151 -0.0513  1.1874  0.4950
  136SAPE   C2314729   6.478   4.664  10.211 -0.2371  0.3346 -0.5185
  136SAPE   H3R14730   6.564   4.603  10.177  0.0765  0.2780  0.3488
  136SAPE   H3S14731   6.522   4.764  10.230 -0.8997  0.4576  0.4098
  136SAPE   C2414732   6.373   4.667  10.098  0.5059 -0.0405  0.3196
  136SAPE   H4R14733   6.414   4.727  10.014 -0.0162  0.2563  0.2722
  136SAPE   H4S14734   6.286   4.717  10.145  1.3197  1.4625  0.3201
  136SAPE   C2514735   6.348   4.524  10.050  0.0477  0.4633 -0.3488
  136SAPE   H5R14736   6.275   4.475  10.116 -1.2562  2.1498 -0.4734
  136SAPE   C2614737   6.400   4.468   9.934  0.1675 -0.7520 -0.2664
  136SAPE   H6R14738   6.350   4.378   9.896  0.3570 -1.9370  2.1082
  136SAPE   C2714739   6.480   4.550   9.829  0.1717 -0.1362 -0.2886
  136SAPE   H7R14740   6.539   4.472   9.775 -1.7896 -1.6231 -0.4031
  136SAPE   H7S14741   6.552   4.613   9.886 -0.2525 -0.6141  0.8165
  136SAPE   C2814742   6.404   4.644   9.743  0.2189 -0.1260 -0.6937
  136SAPE   H8R14743   6.377   4.745   9.777  0.7062  0.3209 -1.5861
  136SAPE   C2914744   6.395   4.631   9.612  0.6595 -0.3972 -0.2932
  136SAPE   H9R14745   6.347   4.717   9.564 -0.9301 -0.2158  1.5134
  136SAPE  C21014746   6.438   4.523   9.518 -0.3745  0.3953  0.2097
  136SAPE  H10R14747   6.347   4.491   9.462  1.8865 -2.2591 -2.3036
  136SAPE  H10S14748   6.475   4.436   9.576  0.3572 -0.8640 -2.0524
  136SAPE  C21114749   6.539   4.559   9.408 -0.1501 -0.0274 -0.1789
  136SAPE  H11R14750   6.637   4.601   9.437  0.0121 -1.0370  0.7678
  136SAPE  C21214751   6.520   4.571   9.274  0.4802 -0.3076  0.1177
  136SAPE  H12R14752   6.606   4.617   9.221 -0.4923  1.6755  0.1621
  136SAPE  C21314753   6.384   4.566   9.198  0.4679  1.1203 -1.1883
  136SAPE  H13R14754   6.304   4.612   9.260 -0.5236  0.8050 -2.2160
  136SAPE  H13S14755   6.356   4.460   9.187 -1.7894  1.3513  1.2671
  136SAPE  C21414756   6.376   4.629   9.066 -0.3313  0.4593  0.5169
  136SAPE  H14R14757   6.349   4.736   9.076 -0.2545  0.7623 -1.9703
  136SAPE  C21514758   6.410   4.581   8.946  0.5831 -0.1027  0.7717
  136SAPE  H15R14759   6.392   4.649   8.861  0.9315  2.4821  2.6504
  136SAPE  C21614760   6.469   4.446   8.912 -0.9530  0.2206 -0.5902
  136SAPE  H16R14761   6.389   4.370   8.921  0.3040 -1.5458 -3.2902
  136SAPE  H16S14762   6.557   4.412   8.970 -0.1932 -1.0358 -2.4030
  136SAPE  C21714763   6.530   4.435   8.768  0.1278 -0.5045  0.0009
  136SAPE  H17R14764   6.612   4.510   8.759 -2.1272  1.8461 -3.1593
  136SAPE  H17S14765   6.452   4.460   8.693  2.0911 -2.3213 -2.8163
  136SAPE  C21814766   6.590   4.302   8.734  0.2881  0.4955  0.4550
  136SAPE  H18R14767   6.532   4.215   8.772  2.7960 -1.7621 -0.5585
  136SAPE  H18S14768   6.688   4.281   8.782 -0.0427 -0.6588  0.6389
  136SAPE  C21914769   6.622   4.285   8.584  0.1925 -0.2968  0.7001
  136SAPE  H19R14770   6.693   4.363   8.551 -0.9106  1.4264  2.2181
  136SAPE  H19S14771   6.532   4.281   8.518  1.1523  0.3497 -0.6888
  136SAPE  C22014772   6.697   4.152   8.566 -0.2093  0.7940  0.3025
  136SAPE  H20R14773   6.798   4.150   8.614 -0.2204  2.4033  0.4325
  136SAPE  H20S14774   6.705   4.125   8.459 -2.3424  0.0799  0.2756
  136SAPE  H20T14775   6.640   4.067   8.609  2.5548 -0.6378  1.4129
  136SAPE   C3314776   6.549   5.085  10.135 -0.1957  0.0247 -0.1455
  136SAPE   H3X14777   6.481   5.064  10.050  0.1106  0.0904 -0.4044
  136SAPE   H3Y14778   6.589   5.000  10.195  0.1893  0.6882  0.5579
  136SAPE   C3414779   6.673   5.146  10.074 -0.7692  0.0981 -0.4224
  136SAPE   H4X14780   6.739   5.195  10.148 -0.0328  0.7195 -1.4587
  136SAPE   H4Y14781   6.643   5.222   9.998 -0.0846  0.3008 -0.4957
  136SAPE   C3514782   6.756   5.045   9.995 -0.3913  0.4255  0.0313
  136SAPE   H5X14783   6.755   4.959  10.066  0.6469  0.2337 -0.1779
  136SAPE   H5Y14784   6.861   5.077   9.979  0.4217 -2.8113 -2.1201
  136SAPE   C3614785   6.697   5.011   9.857 -0.8291 -0.3930  0.4260
  136SAPE   H6X14786   6.694   5.112   9.809  2.7759  0.6246  1.9945
  136SAPE   H6Y14787   6.594   4.971   9.856 -0.7895 -0.6905 -2.7157
  136SAPE   C3714788   6.788   4.911   9.782 -0.0165 -0.2118 -0.4090
  136SAPE   H7X14789   6.814   4.821   9.842 -0.0559 -0.0599 -0.1643
  136SAPE   H7Y14790   6.886   4.954   9.753 -0.0698 -0.9176 -1.7434
  136SAPE   C3814791   6.717   4.862   9.655 -0.0414 -0.1100  0.1302
  136SAPE   H8X14792   6.609   4.863   9.681 -0.3125  1.6649 -0.8649
  136SAPE   H8Y14793   6.736   4.757   9.625  2.6569 -0.7066  3.3060
  136SAPE   C3914794   6.739   4.954   9.528 -0.1761  0.2786 -0.0144
  136SAPE   H9X14795   6.824   4.924   9.463  0.0456  1.3473 -0.2365
  136SAPE   H9Y14796   6.770   5.054   9.566 -0.4851 -0.0121  1.0154
  136SAPE  C31014797   6.623   4.945   9.430 -0.4067  0.6606  0.3163
  136SAPE  H10X14798   6.544   5.011   9.471  0.1389  2.1570 -0.9522
  136SAPE  H10Y14799   6.580   4.842   9.432 -0.1534  0.5625  1.9488
  136SAPE  C31114800   6.655   5.001   9.289  0.7459 -0.2154 -0.0853
  136SAPE  H11X14801   6.754   4.971   9.251  0.8883  0.8226 -0.5700
  136SAPE  H11Y14802   6.660   5.112   9.285 -2.5220 -0.0095 -2.2168
  136SAPE  C31214803   6.550   4.987   9.173  0.4816  0.2456 -0.3559
  136SAPE  H12X14804   6.521   4.880   9.160 -1.0320  0.5619  0.2105
  136SAPE  H12Y14805   6.599   5.027   9.081  1.7615 -0.8626 -0.1884
  136SAPE  C31314806   6.422   5.071   9.191  0.2454  0.6610 -0.6224
  136SAPE  H13X14807   6.448   5.178   9.174 -3.6344  1.4854 -2.3809
  136SAPE  H13Y14808   6.381   5.057   9.293  2.0405 -0.1992  0.0251
  136SAPE  C31414809   6.300   5.031   9.093 -0.5963 -0.2043  0.3319
  136SAPE  H14X14810   6.219   5.103   9.118  0.9327  0.4866  3.9329
  136SAPE  H14Y14811   6.270   4.927   9.118  2.1694 -1.4109 -0.9342
  136SAPE  C31514812   6.349   5.022   8.952  0.4048 -0.7788  0.4585
  136SAPE  H15X14813   6.263   4.990   8.889 -0.3129 -0.4938  1.2619
  136SAPE  H15Y14814   6.433   4.952   8.936  1.3701  0.7590 -1.6300
  136SAPE  C31614815   6.409   5.153   8.899 -0.6076 -0.1689 -0.0159
  136SAPE  H16X14816   6.490   5.178   8.971 -1.7339 -0.0016  1.2322
  136SAPE  H16Y14817   6.333   5.234   8.895 -0.2315  0.1415 -0.9916
  136SAPE  C31714818   6.463   5.141   8.760 -0.3044 -0.0724 -0.3818
  136SAPE  H17X14819   6.389   5.113   8.682  0.4574 -0.9293 -0.8060
  136SAPE  H17Y14820   6.529   5.052   8.753  0.0251  0.1940 -0.6948
  136SAPE  C31814821   6.541   5.269   8.718  0.3510  0.6489 -0.0127
  136SAPE  H18X14822   6.578   5.257   8.614  0.8539 -0.6364  0.2982
  136SAPE  H18Y14823   6.625   5.282   8.790  0.0286 -0.4546  0.5782
  136SAPE  H18Z14824   6.479   5.359   8.739  1.0304  1.4128 -1.1579
  137SAPE     N14825   4.882   0.623  11.275  0.1464 -0.4532 -0.1632
  137SAPE   HN114826   4.903   0.698  11.206 -1.2143 -1.2769 -1.5479
  137SAPE   HN214827   4.840   0.655  11.364 -0.2785 -2.7317  0.5195
  137SAPE   HN314828   4.964   0.565  11.304 -0.0228 -0.8754 -0.5162
  137SAPE   C1214829   4.782   0.534  11.215 -0.1109 -0.1401 -0.1446
  137SAPE  H12A14830   4.677   0.557  11.241 -0.3487 -1.5327  0.2488
  137SAPE  H12B14831   4.815   0.436  11.256 -1.5566  0.4691  2.7247
  137SAPE   C1114832   4.795   0.525  11.061  0.3414  0.5420  0.1680
  137SAPE  H11A14833   4.710   0.457  11.037  1.1306 -0.2004 -0.5802
  137SAPE  H11B14834   4.889   0.480  11.022 -0.6242  0.6473 -2.4538
  137SAPE     P14835   4.649   0.730  10.986  0.5720 -0.1310 -0.4505
  137SAPE   O1314836   4.540   0.632  11.008  0.2442 -0.3685  0.0143
  137SAPE   O1414837   4.647   0.850  11.072  0.2496 -0.6536 -0.5226
  137SAPE   O1214838   4.780   0.653  11.002 -0.4028  0.2824 -0.1773
  137SAPE   O1114839   4.647   0.769  10.837  0.1553  0.2060  0.3589
  137SAPE    C114840   4.760   0.848  10.780 -0.8209 -0.7156 -0.3892
  137SAPE    HA14841   4.818   0.910  10.852 -0.6377 -1.6533  0.2841
  137SAPE    HB14842   4.827   0.774  10.730  1.6216  0.2762  1.2371
  137SAPE    C214843   4.708   0.934  10.663  0.3123  0.1688 -0.3462
  137SAPE    HS14844   4.630   0.997  10.712  1.3931  0.4508  1.0885
  137SAPE   O2114845   4.654   0.850  10.556 -0.4427  0.6823 -0.4103
  137SAPE   C2114846   4.568   0.911  10.486  0.5370 -0.1517  0.4721
  137SAPE   O2214847   4.519   1.020  10.509 -0.4603  0.2602 -0.3393
  137SAPE   C2214848   4.532   0.818  10.366  0.0908 -0.3040  0.3021
  137SAPE   H2R14849   4.621   0.820  10.299 -1.0101  0.4028 -1.1954
  137SAPE   H2S14850   4.522   0.712  10.401  0.9804 -1.1642 -1.8776
  137SAPE    C314851   4.826   1.004  10.606  0.1744 -0.6762  0.2092
  137SAPE    HX14852   4.884   0.930  10.547  0.2795  0.4858 -1.2014
  137SAPE    HY14853   4.885   1.054  10.686  1.7871 -0.1106 -1.2833
  137SAPE   O3114854   4.785   1.108  10.514 -0.1306 -0.3775 -0.1494
  137SAPE   C3114855   4.744   1.222  10.560 -0.5776  0.1890 -0.2307
  137SAPE   O3214856   4.761   1.262  10.674 -0.6759  0.1078 -0.2334
  137SAPE   C3214857   4.692   1.308  10.450  0.7539 -0.3728  0.2950
  137SAPE   H2X14858   4.729   1.410  10.473  2.0141 -1.0729  1.5872
  137SAPE   H2Y14859   4.582   1.308  10.463  0.6218 -0.9714 -0.7597
  137SAPE   C2314860   4.410   0.863  10.287 -0.1798  0.2809 -0.0592
  137SAPE   H3R14861   4.331   0.894  10.359 -0.0862 -1.5848  0.9167
  137SAPE   H3S14862   4.375   0.773  10.232 -0.6431  0.3025  0.1945
  137SAPE   C2414863   4.437   0.989  10.207 -0.1382  0.1156 -0.7787
  137SAPE   H4R14864   4.519   0.970  10.134  0.4846  0.2384 -0.1201
  137SAPE   H4S14865   4.482   1.058  10.282  0.2107 -0.6518 -0.2787
  137SAPE   C2514866   4.313   1.043  10.140 -0.2242  0.2162  0.0872
  137SAPE   H5R14867   4.228   1.054  10.210  0.2349  0.2918  0.6387
  137SAPE   C2614868   4.293   1.082  10.015 -0.2030 -0.3785 -0.1259
  137SAPE   H6R14869   4.198   1.132   9.993 -0.6788 -2.2846 -2.9480
  137SAPE   C2714870   4.388   1.091   9.901 -0.3267 -0.3366  0.1206
  137SAPE   H7R14871   4.489   1.062   9.935  0.4725  2.4040  0.3117
  137SAPE   H7S14872   4.402   1.197   9.871 -0.9638 -0.4276 -0.5171
  137SAPE   C2814873   4.348   1.013   9.781 -0.1073  0.5805 -0.5408
  137SAPE   H8R14874   4.327   0.908   9.806  0.3963  0.5383 -0.2901
  137SAPE   C2914875   4.378   1.047   9.653 -0.4586 -0.2774  0.3793
  137SAPE   H9R14876   4.364   0.978   9.569  3.3156 -0.6990 -0.0661
  137SAPE  C21014877   4.446   1.171   9.610 -0.1565  0.0007  0.4126
  137SAPE  H10R14878   4.543   1.142   9.564 -0.3409  0.2475 -0.1390
  137SAPE  H10S14879   4.461   1.249   9.688 -0.5475  0.8978 -0.3793
  137SAPE  C21114880   4.347   1.227   9.508  0.0424 -0.1384  0.0862
  137SAPE  H11R14881   4.278   1.296   9.557  1.4071 -0.0809  2.0424
  137SAPE  C21214882   4.346   1.218   9.367 -0.7461 -0.3350  0.6216
  137SAPE  H12R14883   4.264   1.265   9.310  1.6512  2.2440 -0.9480
  137SAPE  C21314884   4.450   1.148   9.277  0.4101 -0.4587 -0.1280
  137SAPE  H13R14885   4.410   1.114   9.180 -0.3142  2.9380 -1.1524
  137SAPE  H13S14886   4.490   1.063   9.338  0.0508 -1.1405 -0.8287
  137SAPE  C21414887   4.570   1.239   9.253  0.2935 -1.2429 -0.2864
  137SAPE  H14R14888   4.606   1.310   9.329 -0.2155  1.1827 -2.1954
  137SAPE  C21514889   4.635   1.243   9.136 -0.5116  0.8242  0.1235
  137SAPE  H15R14890   4.725   1.305   9.126  0.8378 -1.0563  0.1015
  137SAPE  C21614891   4.612   1.154   9.011 -0.0336 -0.8836 -0.3701
  137SAPE  H16R14892   4.517   1.184   8.962  0.4720 -1.1739 -1.5458
  137SAPE  H16S14893   4.620   1.046   9.037 -0.5506 -0.8383  0.0117
  137SAPE  C21714894   4.728   1.169   8.909 -0.0794  0.1906 -0.5804
  137SAPE  H17R14895   4.724   1.090   8.831 -0.5741  0.7593 -1.1437
  137SAPE  H17S14896   4.816   1.143   8.971 -1.4246 -0.5943  1.0596
  137SAPE  C21814897   4.737   1.306   8.845 -0.0768  0.1641 -0.5082
  137SAPE  H18R14898   4.817   1.299   8.768 -2.3842 -1.1075 -2.9864
  137SAPE  H18S14899   4.782   1.377   8.917  0.9451 -2.1597  1.2601
  137SAPE  C21914900   4.619   1.363   8.770 -0.1073  0.2252 -0.9041
  137SAPE  H19R14901   4.562   1.404   8.856  1.3790  0.4808 -0.0087
  137SAPE  H19S14902   4.550   1.298   8.712 -1.9806  1.2367  0.0739
  137SAPE  C22014903   4.658   1.483   8.681 -0.2542 -0.0515  0.0567
  137SAPE  H20R14904   4.575   1.508   8.612 -0.8285  0.0606  0.7685
  137SAPE  H20S14905   4.742   1.444   8.619 -0.8481  0.1594 -0.8978
  137SAPE  H20T14906   4.686   1.578   8.730 -0.1542  0.8376 -1.6640
  137SAPE   C3314907   4.735   1.270  10.303  0.0273 -0.4535  0.1760
  137SAPE   H3X14908   4.698   1.169  10.279 -0.4159  0.1770 -1.9716
  137SAPE   H3Y14909   4.845   1.257  10.289 -0.0223 -0.5093 -0.1544
  137SAPE   C3414910   4.692   1.378  10.204 -0.7446 -0.4582  0.3368
  137SAPE   H4X14911   4.757   1.467  10.218 -1.4751  0.1941 -0.3152
  137SAPE   H4Y14912   4.589   1.416  10.220  0.0138  0.5608  3.6892
  137SAPE   C3514913   4.716   1.350  10.053 -0.0633 -0.2135  0.1683
  137SAPE   H5X14914   4.694   1.245  10.028 -3.9710  0.3274  0.7993
  137SAPE   H5Y14915   4.823   1.376  10.035 -0.5452  1.7523 -0.0774
  137SAPE   C3614916   4.636   1.436   9.957  0.8414 -0.5808 -0.0579
  137SAPE   H6X14917   4.623   1.538   9.998  2.5583 -0.2268 -0.3361
  137SAPE   H6Y14918   4.531   1.406   9.933  0.7975  1.4058 -2.8504
  137SAPE   C3714919   4.696   1.440   9.814  1.0659 -0.6091  0.4480
  137SAPE   H7X14920   4.704   1.334   9.782  0.0637 -0.5330 -0.0701
  137SAPE   H7Y14921   4.801   1.477   9.813  0.3910  1.4392 -0.5065
  137SAPE   C3814922   4.620   1.532   9.714 -0.4225  0.0543  0.1452
  137SAPE   H8X14923   4.611   1.637   9.751  0.8495  0.8583 -1.6685
  137SAPE   H8Y14924   4.520   1.486   9.700  0.0634 -1.9889  2.6711
  137SAPE   C3914925   4.701   1.531   9.577 -0.8174  0.4859 -0.5909
  137SAPE   H9X14926   4.724   1.423   9.568  0.9310  0.5687  1.8826
  137SAPE   H9Y14927   4.799   1.583   9.587  0.1022 -0.9984 -1.5328
  137SAPE  C31014928   4.618   1.595   9.468  0.8971 -0.1757  0.5225
  137SAPE  H10X14929   4.597   1.702   9.489  1.8849  0.1987 -0.3312
  137SAPE  H10Y14930   4.528   1.531   9.458  1.5753 -1.4910  2.2534
  137SAPE  C31114931   4.698   1.585   9.342  0.3301 -0.3683  0.2739
  137SAPE  H11X14932   4.704   1.477   9.318  1.3559 -0.0129 -1.2654
  137SAPE  H11Y14933   4.797   1.633   9.360 -0.3432  1.0667  0.2806
  137SAPE  C31214934   4.623   1.653   9.225 -0.3959  0.2861  0.5870
  137SAPE  H12X14935   4.602   1.762   9.231 -4.8608 -0.2592 -0.8660
  137SAPE  H12Y14936   4.523   1.604   9.218  0.8534 -2.7584  2.1990
  137SAPE  C31314937   4.694   1.639   9.091  0.2647  0.3310  0.4771
  137SAPE  H13X14938   4.711   1.532   9.066  1.4661  0.8799 -1.2535
  137SAPE  H13Y14939   4.787   1.700   9.094 -0.0024  0.6863  2.3562
  137SAPE  C31414940   4.622   1.689   8.967 -0.6712  0.3415  0.2546
  137SAPE  H14X14941   4.543   1.615   8.939 -0.1702 -0.0753 -0.0831
  137SAPE  H14Y14942   4.693   1.672   8.883 -1.4997  0.9315 -0.5971
  137SAPE  C31514943   4.556   1.831   8.973 -0.6534 -0.1770  0.3577
  137SAPE  H15X14944   4.623   1.913   9.007 -1.6123 -0.7103  4.0780
  137SAPE  H15Y14945   4.473   1.824   9.048 -1.2682  0.2914 -0.2668
  137SAPE  C31614946   4.505   1.871   8.837  0.0906  0.8347  0.3228
  137SAPE  H16X14947   4.416   1.936   8.852 -0.7792 -0.2370 -0.0482
  137SAPE  H16Y14948   4.468   1.782   8.783 -0.2612  0.2876  1.4401
  137SAPE  C31714949   4.605   1.948   8.749 -0.3370 -0.0458  0.4237
  137SAPE  H17X14950   4.694   1.883   8.750 -0.2606  0.0434  1.8036
  137SAPE  H17Y14951   4.625   2.051   8.786 -1.5368  0.4240 -0.1724
  137SAPE  C31814952   4.558   1.967   8.606 -0.5436  0.3171 -0.2265
  137SAPE  H18X14953   4.640   2.008   8.544  1.5878  0.6600  2.6133
  137SAPE  H18Y14954   4.467   2.031   8.605  0.3828  1.8392  2.5718
  137SAPE  H18Z14955   4.535   1.864   8.573  1.1815  0.2009 -1.1911
  138SAPE     N14956   2.172   2.386  10.932  0.6817 -1.0724  0.2903
  138SAPE   HN114957   2.268   2.427  10.923 -0.2651  1.7818  1.9725
  138SAPE   HN214958   2.146   2.398  11.032  0.6917 -1.4849  0.3428
  138SAPE   HN314959   2.175   2.285  10.908  0.6800 -0.8562 -0.6610
  138SAPE   C1214960   2.059   2.445  10.845  0.4004  0.6397 -0.1132
  138SAPE  H12A14961   2.052   2.555  10.851 -0.8475  0.5730 -0.0043
  138SAPE  H12B14962   1.962   2.401  10.880  1.0122  0.3080  1.2451
  138SAPE   C1114963   2.082   2.398  10.703 -0.1494 -0.3375  0.3229
  138SAPE  H11A14964   2.180   2.423  10.657 -0.9857  0.8441 -0.8857
  138SAPE  H11B14965   2.004   2.454  10.647  0.1137  0.6145  0.8936
  138SAPE     P14966   1.926   2.184  10.663 -0.4584  0.0313 -0.1523
  138SAPE   O1314967   1.919   2.044  10.706  0.1524 -0.1415  0.5965
  138SAPE   O1414968   1.820   2.265  10.724 -0.6237 -0.2258 -0.4235
  138SAPE   O1214969   2.068   2.255  10.687 -0.1680  0.2224  0.1652
  138SAPE   O1114970   1.897   2.213  10.513  0.4927 -0.4043  0.1685
  138SAPE    C114971   2.007   2.184  10.419  0.0517  0.0663  0.3255
  138SAPE    HA14972   2.082   2.266  10.429  1.2244 -1.0279  0.7726
  138SAPE    HB14973   2.067   2.091  10.429 -0.9463 -0.7399 -0.8520
  138SAPE    C214974   1.947   2.185  10.274  0.1942  0.0460  0.0998
  138SAPE    HS14975   2.035   2.173  10.207  1.5205 -1.9309  2.0432
  138SAPE   O2114976   1.857   2.298  10.245  0.3932  0.5452  0.5939
  138SAPE   C2114977   1.905   2.393  10.170 -0.0857 -0.6841  0.0891
  138SAPE   O2214978   2.023   2.417  10.155 -0.2667  0.0112 -1.0368
  138SAPE   C2214979   1.788   2.463  10.086 -0.0145 -0.0238 -0.0281
  138SAPE   H2R14980   1.720   2.508  10.161 -1.9590 -2.1437 -0.3933
  138SAPE   H2S14981   1.827   2.549  10.028  0.9173 -1.3014 -1.3813
  138SAPE    C314982   1.870   2.056  10.242 -0.5591 -0.3897 -0.0969
  138SAPE    HX14983   1.823   2.087  10.147  1.5044  1.9592 -0.4428
  138SAPE    HY14984   1.795   2.048  10.324  0.3832  0.1844  0.8553
  138SAPE   O3114985   1.962   1.943  10.234 -0.2694 -0.0771  0.2479
  138SAPE   C3114986   1.906   1.828  10.239 -0.3142 -0.3961 -0.4552
  138SAPE   O3214987   1.786   1.802  10.272  0.1247 -0.6516  0.0449
  138SAPE   C3214988   2.013   1.721  10.212  0.1168 -0.3523  0.0368
  138SAPE   H2X14989   2.038   1.680  10.312 -2.4693  0.8251  1.2715
  138SAPE   H2Y14990   2.103   1.768  10.167 -1.6597  2.2471 -1.1140
  138SAPE   C2314991   1.717   2.374   9.984 -0.2138  0.7049 -0.2528
  138SAPE   H3R14992   1.631   2.440   9.959  1.0396  2.3339 -0.4529
  138SAPE   H3S14993   1.671   2.282  10.027 -1.3452  1.5019  0.3127
  138SAPE   C2414994   1.789   2.351   9.848  0.1959 -0.0477  0.1969
  138SAPE   H4R14995   1.843   2.444   9.819  0.4230 -0.4451 -0.6912
  138SAPE   H4S14996   1.713   2.349   9.767  0.6888 -1.5472 -0.2595
  138SAPE   C2514997   1.877   2.233   9.860  0.0532  0.1331  0.5047
  138SAPE   H5R14998   1.962   2.241   9.929  0.0186 -2.1905  0.9286
  138SAPE   C2614999   1.855   2.111   9.814 -0.1589  0.5753 -0.9927
  138SAPE   H6R15000   1.926   2.030   9.833 -1.2601  0.3402  3.2154
  138SAPE   C2715001   1.739   2.065   9.722  0.1109  0.1601  0.0296
  138SAPE   H7R15002   1.787   2.019   9.633  0.7969  1.2556 -0.1861
  138SAPE   H7S15003   1.684   2.156   9.688 -0.0432  0.1322  0.1998
  138SAPE   C2815004   1.654   1.963   9.795 -0.3098 -0.2559  0.6278
  138SAPE   H8R15005   1.717   1.887   9.844  0.9819  1.2108  1.3104
  138SAPE   C2915006   1.516   1.963   9.807  0.2704  0.0362  0.0378
  138SAPE   H9R15007   1.463   1.876   9.848  0.3629  0.5051  1.1853
  138SAPE  C21015008   1.416   2.064   9.757  0.5841  0.1182 -0.0487
  138SAPE  H10R15009   1.479   2.122   9.685  0.7477 -0.4437 -0.3703
  138SAPE  H10S15010   1.395   2.140   9.835  0.9778 -0.0495  0.2210
  138SAPE  C21115011   1.290   2.011   9.685 -0.0332  0.1374  0.4379
  138SAPE  H11R15012   1.234   1.942   9.749  0.3467 -1.9102 -1.3035
  138SAPE  C21215013   1.245   2.044   9.560  0.5269 -0.3391  0.3769
  138SAPE  H12R15014   1.149   2.002   9.528  0.9413 -0.7174 -0.4088
  138SAPE  C21315015   1.301   2.144   9.462 -0.4932 -0.3422 -0.4433
  138SAPE  H13R15016   1.406   2.120   9.434  0.6457  4.3965 -1.2522
  138SAPE  H13S15017   1.327   2.231   9.527 -2.9125  0.9759 -1.1196
  138SAPE  C21415018   1.190   2.174   9.359  0.1198  0.3319  0.3702
  138SAPE  H14R15019   1.089   2.187   9.401  0.5630 -0.7937  1.8598
  138SAPE  C21515020   1.198   2.192   9.229 -0.0324 -0.5829  0.1936
  138SAPE  H15R15021   1.112   2.233   9.174 -0.6314 -0.0554  1.4741
  138SAPE  C21615022   1.326   2.181   9.152 -0.4716 -0.4092 -0.0136
  138SAPE  H16R15023   1.415   2.226   9.202 -0.4262 -0.0944 -0.3783
  138SAPE  H16S15024   1.314   2.221   9.049  0.1950 -0.8512 -0.2734
  138SAPE  C21715025   1.367   2.037   9.115 -0.6925  0.3764  0.4020
  138SAPE  H17R15026   1.370   1.990   9.216 -1.7298  0.8250  0.6655
  138SAPE  H17S15027   1.470   2.034   9.075 -1.1535 -1.0303 -0.7508
  138SAPE  C21815028   1.270   1.963   9.012  0.1261  0.3147  0.1233
  138SAPE  H18R15029   1.290   2.004   8.911 -2.7786 -1.4609 -1.3020
  138SAPE  H18S15030   1.161   1.981   9.025 -0.2558 -0.0499 -2.1672
  138SAPE  C21915031   1.306   1.821   8.999 -0.0614  0.2859 -0.0231
  138SAPE  H19R15032   1.415   1.801   8.996 -0.3356 -1.3824  0.3330
  138SAPE  H19S15033   1.258   1.789   8.904 -2.4680 -0.6075  1.4066
  138SAPE  C22015034   1.252   1.740   9.120 -0.3694 -0.3167 -0.0280
  138SAPE  H20R15035   1.259   1.631   9.098  0.4697 -0.1999 -0.3920
  138SAPE  H20S15036   1.148   1.773   9.141 -0.0335 -0.4958  2.1114
  138SAPE  H20T15037   1.318   1.769   9.204  1.6749 -0.3490 -1.5501
  138SAPE   C3315038   1.951   1.619  10.121 -0.6320  0.0586  0.1015
  138SAPE   H3X15039   1.862   1.585  10.177 -0.9988  2.0831  0.8373
  138SAPE   H3Y15040   2.017   1.530  10.115  1.4050  1.4822  0.4110
  138SAPE   C3415041   1.912   1.668   9.982  0.0748  0.7025 -1.0079
  138SAPE   H4X15042   1.834   1.747   9.986 -1.0757 -0.3844 -1.2139
  138SAPE   H4Y15043   1.866   1.586   9.922  0.2367 -0.3404  0.2555
  138SAPE   C3515044   2.025   1.708   9.889  0.7581  0.3051  0.7230
  138SAPE   H5X15045   2.107   1.633   9.882 -0.1468 -0.5648 -1.8465
  138SAPE   H5Y15046   2.086   1.789   9.933  2.9318  0.0239 -1.5227
  138SAPE   C3615047   1.981   1.732   9.744  0.5186  0.1273 -0.6351
  138SAPE   H6X15048   1.895   1.802   9.741  1.0540  0.7875 -0.8543
  138SAPE   H6Y15049   1.940   1.638   9.702 -1.0765  0.7074 -0.4259
  138SAPE   C3715050   2.106   1.780   9.663  0.7034 -0.2542 -0.7747
  138SAPE   H7X15051   2.186   1.703   9.662 -0.4803 -1.6215  1.4676
  138SAPE   H7Y15052   2.138   1.875   9.712 -0.7503 -0.5522  0.8546
  138SAPE   C3815053   2.077   1.800   9.517 -0.2409  0.8133  0.5845
  138SAPE   H8X15054   2.014   1.890   9.502 -0.2510  0.6944 -0.1337
  138SAPE   H8Y15055   2.006   1.719   9.489 -2.5252  2.8447  0.1379
  138SAPE   C3915056   2.198   1.802   9.428 -0.0737 -0.4340 -0.0025
  138SAPE   H9X15057   2.251   1.706   9.446 -5.3155 -3.3296  2.1922
  138SAPE   H9Y15058   2.272   1.884   9.438  0.0621 -0.2021 -2.3331
  138SAPE  C31015059   2.158   1.804   9.279 -0.0191  0.8531  0.3663
  138SAPE  H10X15060   2.094   1.892   9.258  0.8722  1.2872 -0.6620
  138SAPE  H10Y15061   2.103   1.710   9.255 -0.3110  0.6313  1.7950
  138SAPE  C31115062   2.281   1.816   9.190 -0.0051 -0.1969  0.3871
  138SAPE  H11X15063   2.352   1.732   9.205 -0.6358 -0.7671  0.2446
  138SAPE  H11Y15064   2.337   1.907   9.218 -1.5460  1.1225 -0.6330
  138SAPE  C31215065   2.256   1.813   9.040 -0.8221 -0.3211  0.1226
  138SAPE  H12X15066   2.186   1.894   9.009 -0.6917  0.8714  2.7101
  138SAPE  H12Y15067   2.225   1.708   9.023 -0.0658 -0.6541  0.7336
  138SAPE  C31315068   2.377   1.823   8.938 -0.4115  0.2735 -0.2396
  138SAPE  H13X15069   2.441   1.733   8.951 -1.2815 -0.0827  2.0376
  138SAPE  H13Y15070   2.435   1.916   8.956  0.4478 -0.7529  3.0563
  138SAPE  C31415071   2.333   1.814   8.791 -0.0127  0.0217 -0.0067
  138SAPE  H14X15072   2.283   1.911   8.769  1.0288  0.3556 -0.9970
  138SAPE  H14Y15073   2.261   1.731   8.770 -1.7466  1.6615 -0.8756
  138SAPE  C31515074   2.451   1.786   8.700 -0.6582 -0.5962 -0.7030
  138SAPE  H15X15075   2.499   1.689   8.727 -0.1663 -0.4673 -1.0988
  138SAPE  H15Y15076   2.532   1.860   8.717 -2.2178  0.6953  1.5709
  138SAPE  C31615077   2.412   1.789   8.544  0.0553 -0.2041 -0.0322
  138SAPE  H16X15078   2.379   1.892   8.521  0.2724 -0.1060  0.0926
  138SAPE  H16Y15079   2.323   1.727   8.520 -0.2595 -0.0441  0.6873
  138SAPE  C31715080   2.531   1.756   8.459  0.4288  0.1253  0.4856
  138SAPE  H17X15081   2.581   1.659   8.481 -0.8273 -0.5184  0.5882
  138SAPE  H17Y15082   2.616   1.825   8.471  2.0886 -1.9387  1.3591
  138SAPE  C31815083   2.498   1.741   8.314 -0.1376 -0.0741  0.0188
  138SAPE  H18X15084   2.485   1.839   8.263  0.9642 -0.4012 -0.9431
  138SAPE  H18Y15085   2.404   1.688   8.289  0.9301 -0.8323 -2.8434
  138SAPE  H18Z15086   2.578   1.683   8.263 -0.2676 -0.4743  0.2679
  139SAPE     N15087   1.832   6.623  10.500 -0.1189 -0.3655 -0.0925
  139SAPE   HN115088   1.909   6.556  10.518 -2.0415 -2.3993  1.0729
  139SAPE   HN215089   1.846   6.659  10.403 -0.1979 -0.4851 -0.1481
  139SAPE   HN315090   1.837   6.711  10.556 -0.2938 -0.2357 -0.2767
  139SAPE   C1215091   1.702   6.541  10.520 -0.3118  0.0537 -0.3399
  139SAPE  H12A15092   1.726   6.474  10.605  1.3379  0.2110 -0.6474
  139SAPE  H12B15093   1.686   6.487  10.424  2.0713 -2.2755  0.4620
  139SAPE   C1115094   1.584   6.629  10.556  0.4072 -0.1289 -0.7334
  139SAPE  H11A15095   1.563   6.698  10.472  0.9881  2.4359  1.1284
  139SAPE  H11B15096   1.613   6.675  10.652 -0.5729 -2.1876  0.6330
  139SAPE     P15097   1.359   6.524  10.484 -0.1846  0.0675 -0.2100
  139SAPE   O1315098   1.279   6.414  10.534 -0.0918 -0.0913 -0.0781
  139SAPE   O1415099   1.281   6.646  10.456  0.2499  0.3446  0.0114
  139SAPE   O1215100   1.467   6.560  10.587 -0.0094  0.0333 -0.2860
  139SAPE   O1115101   1.446   6.490  10.356 -0.0869  0.1608  0.2418
  139SAPE    C115102   1.452   6.571  10.242 -0.5588  0.0728  1.1804
  139SAPE    HA15103   1.457   6.680  10.261 -0.3982  0.2524  0.1605
  139SAPE    HB15104   1.547   6.546  10.189 -1.5619  0.5639 -0.9876
  139SAPE    C215105   1.328   6.553  10.150  0.1205 -0.4742 -0.0528
  139SAPE    HS15106   1.241   6.571  10.216  0.9961  1.5573  0.6290
  139SAPE   O2115107   1.338   6.422  10.099 -0.2072 -1.1972 -0.2761
  139SAPE   C2115108   1.218   6.364  10.086  0.9909  0.1752 -0.7182
  139SAPE   O2215109   1.118   6.411  10.142  0.3305  0.0861 -0.1471
  139SAPE   C2215110   1.225   6.240   9.991 -0.3162  0.4311 -0.0584
  139SAPE   H2R15111   1.315   6.187  10.030 -0.4314 -1.5335 -2.2640
  139SAPE   H2S15112   1.130   6.186  10.011 -0.6718  0.7260 -0.9373
  139SAPE    C315113   1.319   6.661  10.042  0.5165 -0.0323 -0.1846
  139SAPE    HX15114   1.411   6.666   9.980  0.4409 -2.2461 -0.5544
  139SAPE    HY15115   1.326   6.760  10.092  0.5757 -0.1110 -0.0384
  139SAPE   O3115116   1.201   6.645   9.956 -0.2737  0.3852  0.1547
  139SAPE   C3115117   1.091   6.704  10.014 -0.5010 -0.6666 -0.0365
  139SAPE   O3215118   1.099   6.771  10.119  0.2409  0.7994  0.0171
  139SAPE   C3215119   0.957   6.664   9.947  0.5482 -0.0382  0.3676
  139SAPE   H2X15120   0.894   6.612  10.023  1.5337 -1.4452  0.2561
  139SAPE   H2Y15121   0.966   6.598   9.859 -1.1341  1.9976 -1.4516
  139SAPE   C2315122   1.258   6.273   9.841 -0.3233  0.3701  0.8104
  139SAPE   H3R15123   1.304   6.190   9.783 -0.5652  0.9219 -0.2054
  139SAPE   H3S15124   1.319   6.364   9.823  1.1860 -0.3242  2.2136
  139SAPE   C2415125   1.114   6.317   9.789 -0.2206 -0.2704 -0.3101
  139SAPE   H4R15126   1.136   6.379   9.699  0.7184 -0.1646 -0.0200
  139SAPE   H4S15127   1.061   6.365   9.874  1.9532  1.8746 -0.0753
  139SAPE   C2515128   1.029   6.207   9.731  0.4190  0.6366 -0.5878
  139SAPE   H5R15129   0.956   6.148   9.788  0.3900  0.3735 -0.8941
  139SAPE   C2615130   1.033   6.163   9.604  0.0837  0.3463  0.3571
  139SAPE   H6R15131   0.960   6.087   9.572 -1.4679  2.0952 -0.5151
  139SAPE   C2715132   1.129   6.217   9.497 -0.1670 -0.3326  0.6647
  139SAPE   H7R15133   1.227   6.246   9.540 -0.2425  1.3651 -0.2025
  139SAPE   H7S15134   1.081   6.303   9.445 -0.2915 -1.5922 -1.4201
  139SAPE   C2815135   1.159   6.111   9.397 -0.1628 -0.3128  0.1565
  139SAPE   H8R15136   1.225   6.026   9.420  0.1113 -0.5501 -1.3887
  139SAPE   C2915137   1.103   6.112   9.278  0.3082  0.2300 -0.3710
  139SAPE   H9R15138   1.137   6.038   9.205  2.4436  0.8711 -0.0815
  139SAPE  C21015139   0.999   6.220   9.232 -0.2523 -0.1447 -0.8197
  139SAPE  H10R15140   1.036   6.324   9.244 -1.1850 -0.0539  1.9024
  139SAPE  H10S15141   0.912   6.201   9.298  1.1069  0.9430  1.4186
  139SAPE  C21115142   0.950   6.209   9.092 -0.3884 -0.6438  0.0311
  139SAPE  H11R15143   0.842   6.193   9.100 -0.4505 -0.9242 -1.1844
  139SAPE  C21215144   1.018   6.194   8.974  0.6219  0.6449 -0.3025
  139SAPE  H12R15145   0.955   6.179   8.886 -0.0033 -0.4541  0.3201
  139SAPE  C21315146   1.159   6.195   8.948 -0.2394 -0.3954 -0.4593
  139SAPE  H13R15147   1.189   6.107   8.887 -1.2376  0.1265 -1.7277
  139SAPE  H13S15148   1.211   6.202   9.046 -1.0756  1.5441 -0.1105
  139SAPE  C21415149   1.191   6.319   8.871 -0.1442 -0.2002  0.2229
  139SAPE  H14R15150   1.179   6.408   8.934 -3.1581 -0.8788  0.7423
  139SAPE  C21515151   1.223   6.330   8.741  0.2338 -0.3401 -0.1477
  139SAPE  H15R15152   1.253   6.426   8.696  0.8975 -0.4827 -0.0185
  139SAPE  C21615153   1.210   6.211   8.654 -0.2728  0.0424 -0.4087
  139SAPE  H16R15154   1.255   6.122   8.703 -2.7127  0.1629  2.3379
  139SAPE  H16S15155   1.264   6.237   8.561 -0.6637 -0.2624 -0.7257
  139SAPE  C21715156   1.069   6.176   8.602  0.0978  0.4773  0.7146
  139SAPE  H17R15157   1.001   6.143   8.684  0.2284 -1.3223  0.1470
  139SAPE  H17S15158   1.064   6.090   8.532 -2.7100 -0.4918  1.9599
  139SAPE  C21815159   0.999   6.285   8.520  0.2094 -0.2325  0.4062
  139SAPE  H18R15160   1.042   6.303   8.420 -0.6766  0.3636  0.1172
  139SAPE  H18S15161   1.003   6.387   8.564  0.0398 -1.2885  3.0434
  139SAPE  C21915162   0.850   6.266   8.498 -0.0917  1.1402  0.2652
  139SAPE  H19R15163   0.808   6.354   8.446  0.0632  0.5442 -0.8989
  139SAPE  H19S15164   0.794   6.264   8.594 -1.8060 -0.9919 -0.6794
  139SAPE  C22015165   0.814   6.142   8.417  0.5256  0.1510  0.1481
  139SAPE  H20R15166   0.851   6.157   8.313 -1.3597  2.1745 -0.3055
  139SAPE  H20S15167   0.704   6.135   8.409  0.1952  2.9808  0.8295
  139SAPE  H20T15168   0.863   6.053   8.462 -1.7332 -1.2979 -0.1344
  139SAPE   C3315169   0.877   6.792   9.897 -0.9040 -0.2466  0.4976
  139SAPE   H3X15170   0.948   6.846   9.831  1.5477 -1.7939  1.7322
  139SAPE   H3Y15171   0.858   6.854   9.987 -2.1040  0.3146 -0.1074
  139SAPE   C3415172   0.742   6.763   9.838 -0.3335  0.0161  0.2571
  139SAPE   H4X15173   0.660   6.828   9.876 -0.3474  1.3354 -1.8271
  139SAPE   H4Y15174   0.725   6.660   9.876 -0.2182  0.1707  0.7331
  139SAPE   C3515175   0.742   6.766   9.684 -0.3156 -0.1872  0.6285
  139SAPE   H5X15176   0.790   6.856   9.640 -2.0701  0.1316 -0.7594
  139SAPE   H5Y15177   0.634   6.759   9.656  0.2278 -2.9604 -1.1506
  139SAPE   C3615178   0.805   6.637   9.619  0.2399 -0.2087 -0.5671
  139SAPE   H6X15179   0.746   6.551   9.657 -0.0553  1.3618  3.0099
  139SAPE   H6Y15180   0.907   6.620   9.660  1.8811  0.7150 -3.9143
  139SAPE   C3715181   0.801   6.636   9.462 -0.5476 -0.0666 -0.8402
  139SAPE   H7X15182   0.715   6.689   9.416 -2.1056 -1.6704  0.1081
  139SAPE   H7Y15183   0.779   6.528   9.451 -3.0175 -0.0979  2.8055
  139SAPE   C3815184   0.922   6.674   9.388  0.0858 -0.0839  0.3886
  139SAPE   H8X15185   1.010   6.623   9.433  0.9926  1.3481  0.3019
  139SAPE   H8Y15186   0.942   6.783   9.401  2.2400 -0.3706 -0.0604
  139SAPE   C3915187   0.910   6.652   9.240  0.1858 -0.3168  0.8164
  139SAPE   H9X15188   0.938   6.547   9.218  0.1650 -0.2153  0.2962
  139SAPE   H9Y15189   0.995   6.707   9.193 -0.8691 -0.2451 -1.0958
  139SAPE  C31015190   0.770   6.694   9.176 -0.6354  0.0170 -0.8650
  139SAPE  H10X15191   0.742   6.798   9.205 -0.7275 -0.3204  0.2987
  139SAPE  H10Y15192   0.698   6.624   9.222  1.2945 -1.5779 -0.1541
  139SAPE  C31115193   0.767   6.690   9.020  0.6259 -0.1615  0.1332
  139SAPE  H11X15194   0.817   6.783   8.985  0.4594 -0.8396 -2.0692
  139SAPE  H11Y15195   0.661   6.689   8.985  0.3515 -1.3597  0.9350
  139SAPE  C31215196   0.836   6.574   8.951  0.1464 -0.3756  0.3460
  139SAPE  H12X15197   0.782   6.478   8.942  0.3766 -0.3651 -1.8957
  139SAPE  H12Y15198   0.934   6.560   9.001  0.6350 -2.5778 -1.0947
  139SAPE  C31315199   0.878   6.607   8.803  0.5381  0.3971  0.0827
  139SAPE  H13X15200   0.965   6.545   8.772  1.1004  0.6930  1.0001
  139SAPE  H13Y15201   0.908   6.714   8.797  0.4705  0.3346 -2.3805
  139SAPE  C31415202   0.764   6.603   8.703 -0.7154 -0.6783  0.5417
  139SAPE  H14X15203   0.690   6.678   8.738 -0.1330  0.0948  0.1201
  139SAPE  H14Y15204   0.722   6.500   8.703 -0.4822 -0.7887 -0.7388
  139SAPE  C31515205   0.797   6.638   8.558 -0.5316  0.1221  0.4007
  139SAPE  H15X15206   0.863   6.559   8.516  0.1280  0.8853 -0.0293
  139SAPE  H15Y15207   0.856   6.730   8.537 -0.8132 -0.3515 -3.0592
  139SAPE  C31615208   0.685   6.644   8.456  0.4782  0.1549 -0.4141
  139SAPE  H16X15209   0.603   6.580   8.497 -1.3687  2.3048 -0.5793
  139SAPE  H16Y15210   0.638   6.744   8.452 -0.5608 -0.3463 -1.6883
  139SAPE  C31715211   0.711   6.592   8.320 -0.2255 -0.0440  0.2609
  139SAPE  H17X15212   0.683   6.484   8.314 -2.1587  0.4327  0.0252
  139SAPE  H17Y15213   0.818   6.610   8.293 -0.4661  0.2297 -0.5428
  139SAPE  C31815214   0.618   6.671   8.222  0.4410 -0.0795  0.8989
  139SAPE  H18X15215   0.510   6.660   8.244  0.0421 -0.4858 -1.1096
  139SAPE  H18Y15216   0.632   6.630   8.120 -0.2872  0.3687  0.6187
  139SAPE  H18Z15217   0.655   6.776   8.219  0.8925 -0.2521  0.3869
  140SAPE     N15218   3.650   4.297  10.847  0.0783 -0.0561 -0.0481
  140SAPE   HN115219   3.711   4.236  10.788 -0.9672 -0.2470 -0.9581
  140SAPE   HN215220   3.600   4.242  10.919  0.9448  0.0832  0.6722
  140SAPE   HN315221   3.583   4.349  10.787 -0.9700 -2.5840 -1.2209
  140SAPE   C1215222   3.745   4.386  10.927 -0.5723  0.0226  0.7249
  140SAPE  H12A15223   3.776   4.335  11.021 -2.1328 -0.8399  0.7932
  140SAPE  H12B15224   3.692   4.479  10.956 -0.0640  1.1527 -1.6873
  140SAPE   C1115225   3.868   4.420  10.844 -0.0811 -0.1113  0.0485
  140SAPE  H11A15226   3.921   4.499  10.900  1.7842 -1.3580  0.1288
  140SAPE  H11B15227   3.846   4.471  10.748  0.7495  1.4590  0.6751
  140SAPE     P15228   4.096   4.297  10.880 -0.2635 -0.0480 -0.3405
  140SAPE   O1315229   4.103   4.372  11.010 -0.3857 -0.8558  0.0238
  140SAPE   O1415230   4.138   4.155  10.881  0.2694 -0.0266 -0.1749
  140SAPE   O1215231   3.946   4.299  10.832 -0.1067 -0.0183  0.1456
  140SAPE   O1115232   4.175   4.374  10.774  0.4963 -0.2038  0.4438
  140SAPE    C115233   4.197   4.321  10.646  0.0288  0.0592  0.1912
  140SAPE    HA15234   4.307   4.328  10.632 -0.0595  0.4573 -0.3103
  140SAPE    HB15235   4.159   4.217  10.639 -0.1533  0.0675  0.9426
  140SAPE    C215236   4.128   4.410  10.542  0.7972  0.0060  0.4365
  140SAPE    HS15237   4.025   4.369  10.530  0.6528  0.1746  1.0864
  140SAPE   O2115238   4.195   4.405  10.416  0.2554 -0.3520 -0.4457
  140SAPE   C2115239   4.166   4.292  10.349  0.3939 -0.8494  0.0978
  140SAPE   O2215240   4.099   4.202  10.392  0.2145  0.1726  0.1904
  140SAPE   C2215241   4.230   4.293  10.212 -0.0167 -0.1047 -0.3649
  140SAPE   H2R15242   4.263   4.394  10.177  4.7418 -1.2497  0.0714
  140SAPE   H2S15243   4.317   4.224  10.219  0.2607 -0.1290 -2.8638
  140SAPE    C315244   4.114   4.559  10.590  0.7436  0.1909 -0.8465
  140SAPE    HX15245   4.211   4.589  10.635  1.0216 -0.4187 -1.0395
  140SAPE    HY15246   4.051   4.565  10.682  1.4432 -0.1406 -0.3407
  140SAPE   O3115247   4.068   4.651  10.494 -0.4049 -0.5368 -1.0150
  140SAPE   C3115248   3.941   4.639  10.457 -0.6811  0.4481  0.6030
  140SAPE   O3215249   3.864   4.552  10.489 -0.1539 -0.0500  0.2260
  140SAPE   C3215250   3.909   4.740  10.349  1.0107  0.4905  0.2457
  140SAPE   H2X15251   3.914   4.834  10.408 -2.2919  0.2582  1.1348
  140SAPE   H2Y15252   3.803   4.716  10.323  1.1717  0.4780 -0.4132
  140SAPE   C2315253   4.121   4.239  10.117 -0.2267  0.2605  0.1592
  140SAPE   H3R15254   4.073   4.146  10.154  0.0904 -0.0755 -0.2639
  140SAPE   H3S15255   4.163   4.207  10.020 -0.3237 -0.8134  0.4581
  140SAPE   C2415256   4.004   4.342  10.100  0.4991 -0.2617  0.7672
  140SAPE   H4R15257   4.044   4.438  10.061 -0.4814  0.0636  0.5248
  140SAPE   H4S15258   3.957   4.373  10.196 -3.2234 -3.1042  0.0908
  140SAPE   C2515259   3.890   4.280  10.024 -0.6892 -0.9424 -0.4643
  140SAPE   H5R15260   3.799   4.251  10.079 -0.8469 -3.5925 -1.9629
  140SAPE   C2615261   3.906   4.266   9.893  0.2354  0.4338 -0.2184
  140SAPE   H6R15262   3.827   4.217   9.833  0.0673 -0.9420  1.0731
  140SAPE   C2715263   4.012   4.319   9.806  0.3011 -0.5612 -0.4186
  140SAPE   H7R15264   4.027   4.238   9.732 -0.0096  1.4648 -2.8313
  140SAPE   H7S15265   4.107   4.334   9.863 -0.0990  1.4614 -0.1796
  140SAPE   C2815266   3.960   4.449   9.743  0.2673 -1.3349  0.8870
  140SAPE   H8R15267   3.996   4.534   9.802  1.9382  0.9660 -3.0988
  140SAPE   C2915268   3.895   4.468   9.624 -0.1796  0.5274 -0.8828
  140SAPE   H9R15269   3.860   4.567   9.595  0.3919  1.2516  0.7733
  140SAPE  C21015270   3.852   4.357   9.539  0.6804  0.3829  0.3006
  140SAPE  H10R15271   3.746   4.376   9.510  0.8395  0.6977 -0.0851
  140SAPE  H10S15272   3.867   4.257   9.587  0.6223 -0.0917 -0.6397
  140SAPE  C21115273   3.938   4.361   9.414 -0.6258 -0.0311 -0.4328
  140SAPE  H11R15274   4.045   4.387   9.416 -0.6059  0.5979 -3.6534
  140SAPE  C21215275   3.893   4.376   9.280  0.4356  0.4556 -0.6537
  140SAPE  H12R15276   3.964   4.378   9.196  0.0668  0.8187 -0.9595
  140SAPE  C21315277   3.750   4.386   9.232 -0.8757 -0.0387 -0.7347
  140SAPE  H13R15278   3.726   4.486   9.190  1.8086  0.6462 -0.7913
  140SAPE  H13S15279   3.686   4.387   9.323  1.6609 -0.0891  1.1441
  140SAPE  C21415280   3.702   4.269   9.157  0.6640  0.3869  0.2873
  140SAPE  H14R15281   3.644   4.203   9.222  1.5843 -0.7300  0.0013
  140SAPE  C21515282   3.717   4.233   9.023  0.2751  0.0767 -0.3231
  140SAPE  H15R15283   3.661   4.147   8.983 -0.5130  0.9096 -1.0509
  140SAPE  C21615284   3.797   4.324   8.924  0.3519  0.1914  0.0868
  140SAPE  H16R15285   3.860   4.397   8.979 -1.8983  2.1752  0.2022
  140SAPE  H16S15286   3.730   4.363   8.844 -1.1000 -2.7664 -0.2728
  140SAPE  C21715287   3.890   4.221   8.855 -0.1146 -0.4716  0.2656
  140SAPE  H17R15288   3.844   4.128   8.815  0.4919 -0.7870  0.2910
  140SAPE  H17S15289   3.962   4.184   8.932 -2.8818 -0.4490  3.0410
  140SAPE  C21815290   3.965   4.279   8.730 -0.3120  0.8680 -0.6825
  140SAPE  H18R15291   4.037   4.360   8.757 -0.7924  1.9070 -2.3834
  140SAPE  H18S15292   3.888   4.324   8.665  0.2888  1.1644 -1.2017
  140SAPE  C21915293   4.033   4.165   8.661 -0.2853 -0.6552 -0.1785
  140SAPE  H19R15294   3.972   4.076   8.637  0.5969 -0.9812 -1.2985
  140SAPE  H19S15295   4.106   4.129   8.736 -1.6442 -1.9196  0.5880
  140SAPE  C22015296   4.105   4.207   8.529  0.2345 -0.3808  0.0580
  140SAPE  H20R15297   4.142   4.311   8.538  0.6702 -0.4978 -0.3423
  140SAPE  H20S15298   4.029   4.197   8.448  1.3119 -1.1444 -0.8901
  140SAPE  H20T15299   4.183   4.131   8.507  0.2087 -0.4297  0.1349
  140SAPE   C3315300   3.998   4.750  10.223 -0.2485 -0.1217 -0.0824
  140SAPE   H3X15301   4.029   4.646  10.199  3.0771  0.8539 -0.4602
  140SAPE   H3Y15302   4.092   4.805  10.247  0.6122 -1.6069  0.0750
  140SAPE   C3415303   3.934   4.816  10.103 -0.0872  0.4896 -0.3211
  140SAPE   H4X15304   3.932   4.924  10.126 -1.3843 -0.0752  2.7854
  140SAPE   H4Y15305   3.833   4.772  10.098  0.8910 -1.9276 -0.3012
  140SAPE   C3515306   4.008   4.806   9.976 -0.1434  0.0251  0.4241
  140SAPE   H5X15307   4.033   4.701   9.951  0.7427  0.7109 -1.8418
  140SAPE   H5Y15308   4.111   4.848   9.984  0.5030 -1.1061 -1.2102
  140SAPE   C3615309   3.925   4.860   9.861 -0.7087  0.1303 -0.3829
  140SAPE   H6X15310   3.876   4.958   9.880  1.2878  1.0120  0.4353
  140SAPE   H6Y15311   3.846   4.781   9.858  1.5499 -2.2470 -0.7653
  140SAPE   C3715312   4.003   4.859   9.733  0.0335  0.3844 -0.0326
  140SAPE   H7X15313   4.040   4.754   9.728  0.0504  0.2627  1.9978
  140SAPE   H7Y15314   4.084   4.935   9.730 -0.3741  0.8576  0.5477
  140SAPE   C3815315   3.917   4.896   9.612 -0.3334  0.2472 -0.1168
  140SAPE   H8X15316   3.866   4.992   9.633  0.9629  0.7281  0.9705
  140SAPE   H8Y15317   3.842   4.814   9.599 -0.9697  0.4641  1.9484
  140SAPE   C3915318   3.992   4.898   9.476 -0.2175 -0.0721 -0.4873
  140SAPE   H9X15319   4.084   4.960   9.478  1.0789 -1.9053  0.0762
  140SAPE   H9Y15320   3.922   4.943   9.403 -0.4160 -1.1666 -0.9892
  140SAPE  C31015321   4.023   4.759   9.416 -0.0993 -0.0460  0.3848
  140SAPE  H10X15322   3.928   4.712   9.383  1.0507 -0.3317 -2.8366
  140SAPE  H10Y15323   4.081   4.694   9.484 -1.2788 -0.9654  0.5404
  140SAPE  C31115324   4.108   4.772   9.290  0.4527 -0.0416 -0.5385
  140SAPE  H11X15325   4.043   4.829   9.220 -2.5606 -2.7381 -0.1696
  140SAPE  H11Y15326   4.124   4.673   9.243  1.3536 -0.7245  1.1269
  140SAPE  C31215327   4.251   4.836   9.287 -0.0632 -0.0673 -0.4497
  140SAPE  H12X15328   4.302   4.819   9.385 -0.8394 -0.3372 -0.0864
  140SAPE  H12Y15329   4.251   4.946   9.270 -1.1761  0.3230  1.7013
  140SAPE  C31315330   4.348   4.779   9.184  0.4541  0.5339 -0.3417
  140SAPE  H13X15331   4.300   4.771   9.085 -0.5875 -2.7491  0.3038
  140SAPE  H13Y15332   4.379   4.676   9.212  1.2150  0.8854  0.1754
  140SAPE  C31415333   4.480   4.868   9.177  0.4529  0.0216  0.0486
  140SAPE  H14X15334   4.549   4.839   9.260 -0.3863 -1.6317  0.2080
  140SAPE  H14Y15335   4.453   4.973   9.199  0.0136  1.0317 -4.3797
  140SAPE  C31515336   4.549   4.853   9.038 -0.1303 -0.4474 -0.2814
  140SAPE  H15X15337   4.644   4.911   9.032 -0.5472  0.4245  0.9955
  140SAPE  H15Y15338   4.490   4.881   8.948  0.9354 -0.9746 -1.1780
  140SAPE  C31615339   4.605   4.717   9.003 -0.7254 -0.8666 -0.1312
  140SAPE  H16X15340   4.652   4.725   8.903 -0.9939 -1.6678 -0.3252
  140SAPE  H16Y15341   4.524   4.643   8.989 -1.9493 -0.2024  2.7116
  140SAPE  C31715342   4.713   4.659   9.101  0.0903 -0.3693  0.2548
  140SAPE  H17X15343   4.664   4.592   9.174 -1.2513 -0.8104 -0.9999
  140SAPE  H17Y15344   4.760   4.747   9.152 -0.6409  0.2462 -0.1077
  140SAPE  C31815345   4.818   4.583   9.021  0.2400  0.1858  0.9041
  140SAPE  H18X15346   4.871   4.517   9.094 -0.3605 -0.6120  0.6248
  140SAPE  H18Y15347   4.882   4.654   8.964 -2.0467  0.0784 -2.0005
  140SAPE  H18Z15348   4.784   4.503   8.953  0.7501 -0.1730  1.0640
  141SAPE     N15349   4.332   3.976  10.996 -0.3394  0.2739 -0.1406
  141SAPE   HN115350   4.284   3.910  11.060  0.4291  0.5473  0.7439
  141SAPE   HN215351   4.257   4.008  10.932  0.6546 -3.2606 -3.3959
  141SAPE   HN315352   4.398   3.916  10.944 -0.1922 -0.7993  1.2226
  141SAPE   C1215353   4.390   4.096  11.059 -0.0740  0.9685  0.2593
  141SAPE  H12A15354   4.329   4.130  11.145  0.5972  1.0798  0.7015
  141SAPE  H12B15355   4.399   4.182  10.989 -0.3544  1.2685  0.5890
  141SAPE   C1115356   4.532   4.056  11.114  0.1994 -0.5731  0.3372
  141SAPE  H11A15357   4.537   3.979  11.194  0.4016  1.0055  1.9026
  141SAPE  H11B15358   4.573   4.146  11.166  0.6144  0.7970 -2.2135
  141SAPE     P15359   4.753   4.097  10.976  0.1072 -0.1570  0.1951
  141SAPE   O1315360   4.843   4.114  11.090  0.5107  0.2455  0.8185
  141SAPE   O1415361   4.822   4.040  10.865  0.6684 -0.2052  0.0993
  141SAPE   O1215362   4.625   4.013  11.011 -0.3938 -0.7435 -0.0573
  141SAPE   O1115363   4.689   4.237  10.936 -0.1656  0.8072 -0.0806
  141SAPE    C115364   4.616   4.252  10.819 -0.8506  0.1670  0.1811
  141SAPE    HA15365   4.575   4.156  10.781 -0.5633  0.4646 -0.9186
  141SAPE    HB15366   4.531   4.318  10.847 -0.2054  1.9544 -1.7524
  141SAPE    C215367   4.689   4.332  10.709  0.5385  0.1800 -0.1710
  141SAPE    HS15368   4.728   4.419  10.767  1.1100 -0.3122  0.1949
  141SAPE   O2115369   4.588   4.378  10.618  0.5507  0.4112  0.3858
  141SAPE   C2115370   4.637   4.478  10.544 -0.6193  0.2713  0.2284
  141SAPE   O2215371   4.748   4.525  10.544  0.0220  0.2631 -0.2244
  141SAPE   C2215372   4.517   4.537  10.467  0.6665  0.1437  0.7211
  141SAPE   H2R15373   4.498   4.465  10.385 -1.1838 -0.1792  1.3832
  141SAPE   H2S15374   4.434   4.545  10.541  1.0498  1.9841  0.9983
  141SAPE    C315375   4.799   4.256  10.635 -0.0956  0.4785 -0.4494
  141SAPE    HX15376   4.870   4.222  10.714 -3.0463  1.5759  2.9253
  141SAPE    HY15377   4.853   4.327  10.569 -2.2827  1.5370 -1.1737
  141SAPE   O3115378   4.752   4.132  10.575 -0.2190  0.1150 -0.8202
  141SAPE   C3115379   4.690   4.141  10.459 -0.1863 -0.2747  0.1825
  141SAPE   O3215380   4.677   4.243  10.389 -0.6319  0.1306 -0.2738
  141SAPE   C3215381   4.638   4.005  10.428  0.0980 -0.5116  0.7924
  141SAPE   H2X15382   4.556   3.985  10.500  0.3826  2.8940  2.2859
  141SAPE   H2Y15383   4.717   3.928  10.441  1.0200  0.4040  0.7725
  141SAPE   C2315384   4.532   4.680  10.401 -0.6809 -0.4223 -0.1932
  141SAPE   H3R15385   4.614   4.731  10.456 -3.1137  1.3878  1.9775
  141SAPE   H3S15386   4.440   4.741  10.413 -0.0079  0.6493 -0.3638
  141SAPE   C2415387   4.569   4.672  10.254 -0.5916  0.2296  0.4117
  141SAPE   H4R15388   4.667   4.621  10.243 -0.5228 -0.1700  2.4450
  141SAPE   H4S15389   4.602   4.772  10.217 -0.3939 -0.4681 -1.3609
  141SAPE   C2515390   4.462   4.611  10.162  0.2499 -0.3782 -0.1417
  141SAPE   H5R15391   4.360   4.648  10.180 -0.5615 -4.0051  5.2091
  141SAPE   C2615392   4.474   4.525  10.059 -0.2264 -0.2620 -0.4403
  141SAPE   H6R15393   4.380   4.494  10.011 -0.4482  1.8191 -1.4863
  141SAPE   C2715394   4.606   4.480  10.007  0.3629 -0.3680 -0.7738
  141SAPE   H7R15395   4.680   4.563  10.015 -0.9431  1.0397 -2.3606
  141SAPE   H7S15396   4.600   4.462   9.897 -1.5663 -2.5932 -0.3853
  141SAPE   C2815397   4.667   4.367  10.077  0.3398 -0.3350 -0.8752
  141SAPE   H8R15398   4.709   4.384  10.177  2.4611 -1.5359 -1.5134
  141SAPE   C2915399   4.680   4.244  10.032 -0.5515  0.8196  0.0932
  141SAPE   H9R15400   4.724   4.173  10.103 -0.8836  0.3723 -0.1370
  141SAPE  C21015401   4.632   4.174   9.905 -0.3528 -0.0584 -0.1134
  141SAPE  H10R15402   4.683   4.075   9.908 -0.1830  0.0187 -0.3851
  141SAPE  H10S15403   4.675   4.229   9.819 -1.1631  2.1364  0.8122
  141SAPE  C21115404   4.483   4.159   9.893 -0.4561 -1.1215  0.4619
  141SAPE  H11R15405   4.438   4.138   9.991  0.2840  1.3482  1.4043
  141SAPE  C21215406   4.394   4.193   9.789  0.2870 -0.1330 -0.5856
  141SAPE  H12R15407   4.290   4.169   9.815  0.8920 -1.1112  1.0659
  141SAPE  C21315408   4.418   4.253   9.651 -0.1283  0.6370  0.1671
  141SAPE  H13R15409   4.521   4.294   9.641  0.6874 -1.5270 -1.2528
  141SAPE  H13S15410   4.353   4.340   9.630 -0.2195  0.4324 -0.4420
  141SAPE  C21415411   4.407   4.129   9.557  0.6511  0.7058 -0.1528
  141SAPE  H14R15412   4.419   4.027   9.597  1.7884 -0.1549 -2.5328
  141SAPE  C21515413   4.392   4.145   9.427  0.4314  0.5416 -0.1697
  141SAPE  H15R15414   4.366   4.057   9.367 -0.6347  1.4364 -1.0658
  141SAPE  C21615415   4.378   4.275   9.356  0.1349  0.6940  0.6475
  141SAPE  H16R15416   4.477   4.322   9.335 -0.1864  2.3717  2.5573
  141SAPE  H16S15417   4.324   4.351   9.416 -0.4168  1.7915 -1.1384
  141SAPE  C21715418   4.300   4.261   9.222 -0.0715 -0.5136 -0.3178
  141SAPE  H17R15419   4.201   4.218   9.248 -0.4168 -1.0587 -2.3674
  141SAPE  H17S15420   4.352   4.193   9.152 -1.5555 -1.3940 -0.6151
  141SAPE  C21815421   4.267   4.392   9.157  0.5633 -0.9265  0.4541
  141SAPE  H18R15422   4.245   4.466   9.236  1.1045  1.0252 -1.1622
  141SAPE  H18S15423   4.167   4.397   9.108  1.1625  0.3234 -0.7163
  141SAPE  C21915424   4.376   4.440   9.063  0.1943  0.1580  0.9166
  141SAPE  H19R15425   4.478   4.425   9.104  1.1290  0.5399 -1.1457
  141SAPE  H19S15426   4.361   4.550   9.061  1.9122  0.4490  1.7260
  141SAPE  C22015427   4.353   4.374   8.924 -0.6122  0.0568  0.0536
  141SAPE  H20R15428   4.252   4.403   8.889 -0.1493  0.5453 -0.9286
  141SAPE  H20S15429   4.369   4.264   8.928  0.5702  0.2486  1.2536
  141SAPE  H20T15430   4.434   4.402   8.854  0.3746 -1.3990  0.5516
  141SAPE   C3315431   4.567   4.003  10.293  1.0910 -0.7613 -0.0595
  141SAPE   H3X15432   4.627   3.951  10.215 -0.1031  0.0961 -1.5962
  141SAPE   H3Y15433   4.538   4.101  10.249  1.7749 -0.8836 -0.8054
  141SAPE   C3415434   4.442   3.925  10.304  0.0086 -0.1383 -0.4796
  141SAPE   H4X15435   4.375   3.975  10.377  0.2059 -2.5635  1.4873
  141SAPE   H4Y15436   4.474   3.825  10.339 -1.1595 -0.9581 -1.6229
  141SAPE   C3515437   4.363   3.901  10.169  0.2154  0.1706 -1.2052
  141SAPE   H5X15438   4.421   3.824  10.114  0.9264 -0.6701  0.6579
  141SAPE   H5Y15439   4.357   3.993  10.107  1.3164  1.1992  0.1525
  141SAPE   C3615440   4.225   3.844  10.196  0.2935 -0.3890  0.0518
  141SAPE   H6X15441   4.160   3.927  10.232 -1.0032 -0.1346 -2.5806
  141SAPE   H6Y15442   4.236   3.771  10.278 -0.4444 -0.4582  0.0938
  141SAPE   C3715443   4.159   3.785  10.066  0.4573 -0.1449 -0.2095
  141SAPE   H7X15444   4.060   3.746  10.100 -0.7984  1.3701 -1.9334
  141SAPE   H7Y15445   4.212   3.697  10.025 -0.6535 -0.5185 -0.8799
  141SAPE   C3815446   4.136   3.891   9.958 -0.3141  0.4352 -0.2697
  141SAPE   H8X15447   4.236   3.931   9.935  0.6698 -0.2192  2.4618
  141SAPE   H8Y15448   4.081   3.980   9.996 -0.2885  0.1090  0.5574
  141SAPE   C3915449   4.077   3.834   9.830 -0.2186  0.1734  1.1460
  141SAPE   H9X15450   4.000   3.758   9.856  1.8688 -2.9415 -1.0658
  141SAPE   H9Y15451   4.150   3.771   9.774 -0.0734  1.5263 -0.2431
  141SAPE  C31015452   4.031   3.939   9.733 -0.2356  0.0588  0.6870
  141SAPE  H10X15453   4.117   4.000   9.697 -2.9898  2.7108 -1.9765
  141SAPE  H10Y15454   3.949   3.999   9.777 -2.8539 -2.7832  0.0413
  141SAPE  C31115455   3.955   3.868   9.613  0.0304 -0.7804  0.4115
  141SAPE  H11X15456   3.865   3.810   9.643 -1.6864  1.0523 -0.9480
  141SAPE  H11Y15457   4.023   3.797   9.561  0.0587 -1.1770  0.9903
  141SAPE  C31215458   3.929   3.966   9.494  0.0826  0.6612  0.5836
  141SAPE  H12X15459   4.018   4.031   9.485  0.9405 -0.2048  2.3472
  141SAPE  H12Y15460   3.836   4.025   9.511 -0.8312  0.2641 -2.4315
  141SAPE  C31315461   3.916   3.888   9.359  0.2916  0.1326 -0.1270
  141SAPE  H13X15462   3.813   3.846   9.369 -0.2135  0.6746 -2.5730
  141SAPE  H13Y15463   4.001   3.817   9.351 -0.0595 -0.2152 -0.8888
  141SAPE  C31415464   3.903   3.981   9.231 -0.4878  0.5043 -0.2781
  141SAPE  H14X15465   3.944   4.077   9.268 -0.6929  0.6447 -0.4132
  141SAPE  H14Y15466   3.796   4.005   9.213 -0.2535  0.4164 -1.8864
  141SAPE  C31515467   3.958   3.926   9.105  0.1759 -0.4720  0.4069
  141SAPE  H15X15468   3.926   4.000   9.028 -2.3415  0.0575  1.8679
  141SAPE  H15Y15469   3.906   3.831   9.081 -2.1543  0.7741  0.2668
  141SAPE  C31615470   4.113   3.926   9.102 -0.5166 -0.1864  0.8066
  141SAPE  H16X15471   4.167   3.854   9.166  1.2990 -0.0928 -0.5443
  141SAPE  H16Y15472   4.136   4.029   9.137 -2.2043  0.3161  0.5254
  141SAPE  C31715473   4.168   3.907   8.966 -0.5417 -0.1667 -0.1423
  141SAPE  H17X15474   4.121   3.976   8.893  3.1331  3.8771  0.8550
  141SAPE  H17Y15475   4.145   3.807   8.924 -2.9202 -0.5896  1.9849
  141SAPE  C31815476   4.318   3.949   8.944  0.1356  0.2644  0.1113
  141SAPE  H18X15477   4.346   4.053   8.970 -1.6966  0.8212  0.0123
  141SAPE  H18Y15478   4.350   3.930   8.839  2.1814  1.9638  0.3563
  141SAPE  H18Z15479   4.380   3.889   9.014 -0.2806 -0.0109  0.2489
  142SAPE     N15480   4.568   3.450  11.310 -0.3935  0.0372 -0.1555
  142SAPE   HN115481   4.472   3.455  11.348 -0.8540  2.0920 -1.3929
  142SAPE   HN215482   4.624   3.375  11.354 -2.2736 -1.7239 -0.6422
  142SAPE   HN315483   4.612   3.543  11.328 -1.3919  0.5475 -0.2943
  142SAPE   C1215484   4.568   3.420  11.158 -0.5216  0.2886  0.5510
  142SAPE  H12A15485   4.491   3.344  11.130  0.6087 -0.0785 -1.7989
  142SAPE  H12B15486   4.663   3.371  11.127 -1.6415 -1.2473 -0.6227
  142SAPE   C1115487   4.548   3.546  11.071 -0.0362  0.3756 -0.7981
  142SAPE  H11A15488   4.541   3.523  10.963  2.9211 -1.2271 -0.7605
  142SAPE  H11B15489   4.640   3.607  11.084 -0.9400  1.4061  1.1550
  142SAPE     P15490   4.288   3.602  11.079 -0.1957  0.1173  0.2440
  142SAPE   O1315491   4.232   3.492  11.159 -0.4874  0.3195 -0.5017
  142SAPE   O1415492   4.212   3.727  11.069  0.2791 -0.4927 -0.2987
  142SAPE   O1215493   4.436   3.621  11.129  0.5900  0.2167 -0.6196
  142SAPE   O1115494   4.302   3.556  10.933 -0.4796 -0.3053 -0.6313
  142SAPE    C115495   4.219   3.451  10.880 -0.5935 -0.3799 -0.1473
  142SAPE    HA15496   4.263   3.352  10.906  0.3127  0.5046  1.8867
  142SAPE    HB15497   4.115   3.466  10.917 -0.6230  0.7428 -0.6638
  142SAPE    C215498   4.216   3.469  10.724  0.2493 -0.3111 -0.1256
  142SAPE    HS15499   4.207   3.370  10.676  0.0957  1.2170 -3.5464
  142SAPE   O2115500   4.334   3.538  10.677  0.3236 -0.3117  0.0713
  142SAPE   C2115501   4.444   3.465  10.684  0.3913  0.2244 -0.2126
  142SAPE   O2215502   4.452   3.345  10.700  0.2249  0.2885 -0.0987
  142SAPE   C2215503   4.563   3.554  10.656 -0.3515 -0.1491  0.1471
  142SAPE   H2R15504   4.528   3.632  10.586 -1.9580  0.4498  1.5438
  142SAPE   H2S15505   4.587   3.594  10.757 -0.0279  0.2628 -0.0931
  142SAPE    C315506   4.092   3.556  10.693  0.3845  0.2274  0.4622
  142SAPE    HX15507   4.106   3.643  10.761  0.6512  0.4405  0.1385
  142SAPE    HY15508   4.013   3.483  10.722 -0.6427  0.8376 -0.7241
  142SAPE   O3115509   4.088   3.601  10.559 -0.1386 -0.0103 -0.0506
  142SAPE   C3115510   3.967   3.642  10.524 -0.2278 -0.8486 -0.1827
  142SAPE   O3215511   3.864   3.632  10.593  0.1336  0.1347  0.1747
  142SAPE   C3215512   3.981   3.701  10.384  0.5766  0.2278 -0.5510
  142SAPE   H2X15513   4.055   3.639  10.329 -1.2403 -1.7531 -0.9089
  142SAPE   H2Y15514   4.000   3.810  10.397  1.4004 -0.1718  2.3107
  142SAPE   C2315515   4.682   3.481  10.584 -0.2838 -0.8280  0.3587
  142SAPE   H3R15516   4.697   3.380  10.627  1.7530 -0.4367  0.6637
  142SAPE   H3S15517   4.778   3.529  10.613 -0.4639 -0.3499  0.1661
  142SAPE   C2415518   4.678   3.482  10.427 -0.3361 -0.0374 -0.6212
  142SAPE   H4R15519   4.584   3.434  10.390 -1.2032  1.5047 -0.5368
  142SAPE   H4S15520   4.766   3.418  10.408  1.1501  1.1039  2.0034
  142SAPE   C2515521   4.687   3.615  10.356 -0.0432  1.4086  0.3261
  142SAPE   H5R15522   4.715   3.695  10.426  2.8256 -0.1270  1.1124
  142SAPE   C2615523   4.673   3.632  10.225  0.0761  0.8454 -0.1058
  142SAPE   H6R15524   4.691   3.734  10.188 -0.7459  1.1667  0.3540
  142SAPE   C2715525   4.662   3.519  10.117 -0.2886 -0.5228 -0.5027
  142SAPE   H7R15526   4.557   3.498  10.090 -1.5093  2.6111  1.2788
  142SAPE   H7S15527   4.691   3.419  10.157 -1.9221 -1.5838 -1.8710
  142SAPE   C2815528   4.740   3.567   9.996  0.3189  0.5317 -0.2334
  142SAPE   H8R15529   4.846   3.571  10.024 -0.2344  0.5045  2.0085
  142SAPE   C2915530   4.688   3.603   9.875 -0.4169  0.4750  0.4488
  142SAPE   H9R15531   4.752   3.657   9.805  0.9091 -0.7459  0.6701
  142SAPE  C21015532   4.542   3.593   9.841 -0.3488 -0.2028 -1.2344
  142SAPE  H10R15533   4.485   3.574   9.934  3.1150  1.3339  1.3853
  142SAPE  H10S15534   4.537   3.501   9.778  1.6034 -0.1761 -1.4712
  142SAPE  C21115535   4.484   3.708   9.768 -0.4374 -0.1116  0.2796
  142SAPE  H11R15536   4.459   3.787   9.841  2.5553  1.1298  0.0819
  142SAPE  C21215537   4.471   3.731   9.639  0.5167 -0.6810 -0.4744
  142SAPE  H12R15538   4.433   3.827   9.603  1.7005  1.1516  2.7787
  142SAPE  C21315539   4.519   3.638   9.531  0.6285  0.0860 -0.5525
  142SAPE  H13R15540   4.529   3.531   9.559  1.2074 -0.2618 -2.0410
  142SAPE  H13S15541   4.617   3.669   9.489  0.5640  0.6078 -0.3281
  142SAPE  C21415542   4.418   3.642   9.414  0.0795 -0.2245  0.4203
  142SAPE  H14R15543   4.313   3.656   9.443 -0.6393  0.1685 -2.0937
  142SAPE  C21515544   4.442   3.640   9.276  0.9810 -0.1213  0.4335
  142SAPE  H15R15545   4.362   3.653   9.202  0.7423 -0.7930  0.5701
  142SAPE  C21615546   4.585   3.633   9.227  0.8612 -0.2446  0.6563
  142SAPE  H16R15547   4.653   3.572   9.289  0.0576 -0.3839  1.4181
  142SAPE  H16S15548   4.618   3.739   9.217  1.5254 -0.5754 -1.0517
  142SAPE  C21715549   4.586   3.577   9.085 -0.3814 -0.4813 -0.2711
  142SAPE  H17R15550   4.509   3.625   9.021 -1.3476  0.2888  1.3894
  142SAPE  H17S15551   4.546   3.475   9.101 -1.1312  0.2021  3.0382
  142SAPE  C21815552   4.722   3.578   9.026 -0.4613 -0.5922 -0.3112
  142SAPE  H18R15553   4.799   3.533   9.092 -1.0727  0.5379  1.2266
  142SAPE  H18S15554   4.753   3.684   9.010 -2.6081  0.1614  0.1244
  142SAPE  C21915555   4.734   3.501   8.897  0.5589  0.3369 -0.1459
  142SAPE  H19R15556   4.636   3.515   8.846  2.0401 -0.9187 -3.6433
  142SAPE  H19S15557   4.748   3.391   8.904 -4.2039 -0.5402 -0.9906
  142SAPE  C22015558   4.851   3.553   8.816 -0.3682  0.0430  0.0325
  142SAPE  H20R15559   4.834   3.654   8.771 -0.7623 -0.3431 -0.6991
  142SAPE  H20S15560   4.869   3.492   8.726  0.6577  1.2295 -0.5979
  142SAPE  H20T15561   4.941   3.562   8.880 -0.2432  2.7756 -0.4070
  142SAPE   C3315562   3.855   3.690  10.303  0.4834  0.3384  0.1038
  142SAPE   H3X15563   3.878   3.730  10.202 -1.8418 -1.4650 -1.2151
  142SAPE   H3Y15564   3.773   3.745  10.354 -1.1878 -0.9264 -1.1141
  142SAPE   C3415565   3.797   3.551  10.272 -0.5146 -0.1560 -0.1097
  142SAPE   H4X15566   3.754   3.520  10.370  0.3766  1.9448  1.0316
  142SAPE   H4Y15567   3.877   3.478  10.248 -1.2944 -0.8082 -0.7713
  142SAPE   C3515568   3.688   3.528  10.164  0.1999 -0.1776 -0.3874
  142SAPE   H5X15569   3.599   3.590  10.188  1.6599  1.7078  0.3359
  142SAPE   H5Y15570   3.652   3.423  10.168 -1.5273  0.4280  2.2890
  142SAPE   C3615571   3.735   3.564  10.021  0.0983  0.3842  0.0933
  142SAPE   H6X15572   3.793   3.477   9.984  1.6134  1.1640  0.5244
  142SAPE   H6Y15573   3.806   3.650  10.023 -0.6846  1.0402  0.5389
  142SAPE   C3715574   3.621   3.587   9.931  0.0233 -0.3179 -0.0948
  142SAPE   H7X15575   3.548   3.660   9.972  1.6030  0.8791  0.6915
  142SAPE   H7Y15576   3.562   3.495   9.913 -1.4311  0.3636  0.9849
  142SAPE   C3815577   3.680   3.633   9.794 -0.3038 -0.1748 -0.1632
  142SAPE   H8X15578   3.746   3.555   9.752  2.3815  0.5661  2.3320
  142SAPE   H8Y15579   3.740   3.725   9.813 -1.4531  0.2609  1.6474
  142SAPE   C3915580   3.571   3.658   9.693 -1.0279 -0.5667  0.2456
  142SAPE   H9X15581   3.491   3.722   9.736 -1.9140  0.0214 -2.1506
  142SAPE   H9Y15582   3.529   3.557   9.671 -0.8041 -0.8488  1.0650
  142SAPE  C31015583   3.617   3.730   9.565 -0.4991  0.0152 -0.0874
  142SAPE  H10X15584   3.689   3.657   9.523  0.9160  0.8851  0.7500
  142SAPE  H10Y15585   3.672   3.822   9.594 -0.3367  0.0148 -0.3980
  142SAPE  C31115586   3.502   3.773   9.475  0.4769  0.7295  0.0716
  142SAPE  H11X15587   3.444   3.858   9.517 -0.0191  0.0679  0.7556
  142SAPE  H11Y15588   3.429   3.690   9.457 -1.7808  2.7176 -0.3990
  142SAPE  C31215589   3.545   3.809   9.328 -0.2413  0.7539 -0.1316
  142SAPE  H12X15590   3.602   3.724   9.284  0.2210  0.7381  0.4770
  142SAPE  H12Y15591   3.602   3.904   9.326 -2.7264  2.3230 -1.3216
  142SAPE  C31315592   3.421   3.833   9.244 -0.4740 -0.1929 -0.0333
  142SAPE  H13X15593   3.360   3.916   9.286 -0.3750 -0.6281  1.0123
  142SAPE  H13Y15594   3.361   3.740   9.231  2.0051 -1.9168  0.1100
  142SAPE  C31415595   3.462   3.874   9.103 -0.2964 -0.5537 -0.1651
  142SAPE  H14X15596   3.510   3.782   9.063  0.7579 -1.1142  2.2186
  142SAPE  H14Y15597   3.542   3.951   9.114  0.6816 -1.4710 -0.6032
  142SAPE  C31515598   3.342   3.909   9.014  0.2486 -0.3782 -0.4368
  142SAPE  H15X15599   3.287   3.992   9.062 -0.0620  0.4168 -2.0801
  142SAPE  H15Y15600   3.280   3.823   8.980 -1.0244 -0.0152  0.8887
  142SAPE  C31615601   3.392   3.985   8.885 -0.3548  0.5968 -0.1091
  142SAPE  H16X15602   3.453   4.070   8.922  2.3221 -0.9168 -0.7534
  142SAPE  H16Y15603   3.303   4.015   8.825 -2.1891 -1.6789  1.3261
  142SAPE  C31715604   3.478   3.905   8.785  0.8314 -0.0412 -0.6323
  142SAPE  H17X15605   3.410   3.833   8.736  0.9432  0.0989 -0.9972
  142SAPE  H17Y15606   3.558   3.845   8.834 -0.6426 -1.2529  0.3524
  142SAPE  C31815607   3.538   4.005   8.692  0.0965 -0.0881  0.4847
  142SAPE  H18X15608   3.459   4.070   8.648  1.4856 -0.4829 -2.8840
  142SAPE  H18Y15609   3.595   3.957   8.609 -2.8446 -3.4282  0.1200
  142SAPE  H18Z15610   3.607   4.071   8.748  1.6414 -0.4134 -0.9498
  143SAPE     N15611   0.399   2.397  11.036 -0.1424  0.1733  0.3194
  143SAPE   HN115612   0.313   2.346  11.008  1.2146 -1.5934 -0.9002
  143SAPE   HN215613   0.472   2.327  11.059  0.8154  0.3515 -1.8920
  143SAPE   HN315614   0.379   2.443  11.127  1.3609 -1.1167  1.3709
  143SAPE   C1215615   0.461   2.494  10.942  0.6730  0.2236  0.0802
  143SAPE  H12A15616   0.522   2.435  10.870 -1.7434 -1.1858 -0.9615
  143SAPE  H12B15617   0.519   2.570  10.998  1.8456 -0.4667 -0.1747
  143SAPE   C1115618   0.350   2.565  10.867 -0.1636 -0.3520  0.3373
  143SAPE  H11A15619   0.294   2.482  10.819  0.6257  0.6826 -2.5811
  143SAPE  H11B15620   0.407   2.614  10.785 -0.1110  0.2180  0.7110
  143SAPE     P15621   0.126   2.647  11.001  0.6433 -0.1560  0.1621
  143SAPE   O1315622   0.145   2.542  11.108  0.2778 -0.4958 -0.0230
  143SAPE   O1415623   0.074   2.775  11.052 -0.0650  0.3066 -0.3864
  143SAPE   O1215624   0.274   2.662  10.937  0.3685  0.4878  0.1097
  143SAPE   O1115625   0.041   2.589  10.877 -0.4526  0.0205  0.5868
  143SAPE    C115626   0.013   2.672  10.763 -0.0137 -0.5148  0.1278
  143SAPE    HA15627  -0.090   2.714  10.766  0.4708  0.6670  0.7122
  143SAPE    HB15628   0.094   2.746  10.748 -0.2452 -0.2063  0.3954
  143SAPE    C215629   0.026   2.595  10.629  0.6348 -0.3144  0.3624
  143SAPE    HS15630   0.125   2.594  10.579  0.0304 -2.1071 -0.9307
  143SAPE   O2115631  -0.066   2.651  10.537 -0.1599  0.1309 -0.2439
  143SAPE   C2115632  -0.026   2.765  10.485 -0.1660 -0.3921 -0.1196
  143SAPE   O2215633   0.075   2.826  10.509 -0.1401  0.0889 -0.0860
  143SAPE   C2215634  -0.133   2.816  10.391 -0.3513 -0.0124 -0.3516
  143SAPE   H2R15635  -0.171   2.730  10.330 -0.2884 -1.2227  1.2366
  143SAPE   H2S15636  -0.225   2.858  10.438  0.3783  1.0249  0.1787
  143SAPE    C315637  -0.012   2.441  10.628  0.1827  0.5419 -0.6056
  143SAPE    HX15638  -0.109   2.419  10.676  1.6091 -1.5220  1.5858
  143SAPE    HY15639   0.059   2.378  10.687 -1.5392  0.3557  1.3816
  143SAPE   O3115640  -0.013   2.398  10.489  0.2663  0.1873 -0.1518
  143SAPE   C3115641   0.094   2.348  10.439 -0.3672 -0.2834  0.3078
  143SAPE   O3215642   0.201   2.327  10.501  0.7757  0.1485  0.7336
  143SAPE   C3215643   0.067   2.309  10.290 -0.9302  0.3796 -0.5029
  143SAPE   H2X15644  -0.041   2.325  10.271 -1.1627 -1.6307 -1.1141
  143SAPE   H2Y15645   0.102   2.203  10.285  1.9610  0.9978  2.8695
  143SAPE   C2315646  -0.073   2.922  10.289  0.1310 -0.7806 -0.6322
  143SAPE   H3R15647   0.006   2.871  10.230 -0.8541 -2.6156 -0.4179
  143SAPE   H3S15648  -0.033   3.009  10.346 -3.9357 -0.6227  2.4295
  143SAPE   C2415649  -0.177   2.978  10.191  0.3061  0.0730  0.0695
  143SAPE   H4R15650  -0.262   3.026  10.244  0.2697 -1.2129  1.2199
  143SAPE   H4S15651  -0.218   2.892  10.135  3.0077 -2.4466  1.6797
  143SAPE   C2515652  -0.105   3.087  10.129 -0.1291  0.2984  0.4848
  143SAPE   H5R15653  -0.048   3.153  10.196  0.9973  1.0940 -1.1767
  143SAPE   C2615654  -0.081   3.097   9.997 -0.5085 -0.5126 -0.2521
  143SAPE   H6R15655  -0.007   3.171   9.963  0.8921 -2.2033 -1.1259
  143SAPE   C2715656  -0.111   3.016   9.872 -0.4608  0.3921  0.8972
  143SAPE   H7R15657  -0.159   2.919   9.896 -0.0744 -0.0502 -0.0676
  143SAPE   H7S15658  -0.013   2.987   9.829 -0.6138  0.9566  0.1493
  143SAPE   C2815659  -0.193   3.086   9.765 -0.0941 -1.0056  0.2592
  143SAPE   H8R15660  -0.258   3.156   9.820  1.1283 -1.4113  2.3377
  143SAPE   C2915661  -0.185   3.091   9.633 -0.1698  0.4870  0.2408
  143SAPE   H9R15662  -0.265   3.142   9.577 -1.0078 -1.4674 -0.4355
  143SAPE  C21015663  -0.084   3.017   9.540  0.7104 -0.0609  0.1413
  143SAPE  H10R15664  -0.133   2.973   9.450  2.3726 -0.5293 -0.5598
  143SAPE  H10S15665  -0.029   2.934   9.588  2.2614 -0.7530 -2.5981
  143SAPE  C21115666   0.024   3.111   9.503 -0.6896  0.2500  0.6133
  143SAPE  H11R15667   0.096   3.131   9.583  0.7104 -0.4265 -0.4216
  143SAPE  C21215668   0.047   3.169   9.387 -0.0083 -0.3339 -0.2002
  143SAPE  H12R15669   0.133   3.238   9.379  1.0067 -1.5733 -0.2604
  143SAPE  C21315670  -0.043   3.145   9.262 -0.3405 -0.0195  0.4248
  143SAPE  H13R15671  -0.121   3.225   9.257 -1.5922 -1.2539 -0.8075
  143SAPE  H13S15672  -0.100   3.050   9.265  2.3001 -1.6769  1.2531
  143SAPE  C21415673   0.048   3.151   9.135 -0.2052 -0.0343  0.4806
  143SAPE  H14R15674   0.102   3.245   9.116 -0.1170 -0.2606 -0.4097
  143SAPE  C21515675   0.086   3.037   9.069 -0.0948 -0.4436  0.1508
  143SAPE  H15R15676   0.170   3.048   8.999  0.1939  0.0778  0.5690
  143SAPE  C21615677   0.040   2.896   9.097  0.9069  0.4138  0.7376
  143SAPE  H16R15678  -0.062   2.886   9.139  0.5089  0.4370 -0.1826
  143SAPE  H16S15679   0.106   2.831   9.158 -0.3557 -0.3251  1.3423
  143SAPE  C21715680   0.010   2.833   8.954  0.5567  0.3432  0.0679
  143SAPE  H17R15681   0.103   2.854   8.897  1.5205  1.9383  2.1067
  143SAPE  H17S15682  -0.068   2.891   8.901 -0.5021  0.2442  1.4822
  143SAPE  C21815683  -0.011   2.679   8.959  0.4233 -0.2369  0.3261
  143SAPE  H18R15684  -0.111   2.658   9.003 -0.4074  3.7976  0.7714
  143SAPE  H18S15685   0.061   2.634   9.031 -2.0842 -2.2171  1.7448
  143SAPE  C21915686   0.008   2.610   8.822 -0.1153 -0.6803 -0.2236
  143SAPE  H19R15687  -0.002   2.500   8.833 -1.1995 -0.8705 -2.4968
  143SAPE  H19S15688   0.107   2.639   8.781  0.4677 -0.4649  1.2839
  143SAPE  C22015689  -0.097   2.646   8.714  0.4193  0.0997 -0.8219
  143SAPE  H20R15690  -0.064   2.613   8.613  0.1595  1.1265 -1.2589
  143SAPE  H20S15691  -0.102   2.757   8.718 -0.6139  0.0236  0.9646
  143SAPE  H20T15692  -0.196   2.601   8.738  1.9120 -2.3278  1.3307
  143SAPE   C3315693   0.134   2.402  10.198  0.4675 -1.0578  0.9978
  143SAPE   H3X15694   0.113   2.381  10.091  1.0082  0.1245  0.6463
  143SAPE   H3Y15695   0.244   2.413  10.211  0.6239 -1.4350  0.0622
  143SAPE   C3415696   0.081   2.547  10.211  0.2510  0.2187  0.0242
  143SAPE   H4X15697   0.094   2.575  10.318 -1.0102  0.5109  0.1150
  143SAPE   H4Y15698  -0.029   2.552  10.196  0.2559  2.1726  0.3739
  143SAPE   C3515699   0.157   2.647  10.117 -0.3383  0.4974  0.3921
  143SAPE   H5X15700   0.266   2.635  10.100 -0.3268  0.5505  0.4274
  143SAPE   H5Y15701   0.169   2.749  10.159  1.7968 -0.2580  1.7658
  143SAPE   C3615702   0.080   2.643   9.980  0.5239  0.1712  0.6975
  143SAPE   H6X15703  -0.028   2.663   9.993  0.7671  3.8542 -1.3784
  143SAPE   H6Y15704   0.090   2.541   9.938  0.8383  0.5712 -0.2397
  143SAPE   C3715705   0.139   2.735   9.881 -0.1521 -0.2800  0.3057
  143SAPE   H7X15706   0.246   2.709   9.869  0.2630  1.8458 -1.4047
  143SAPE   H7Y15707   0.124   2.839   9.919 -1.1158 -1.6047  3.9546
  143SAPE   C3815708   0.085   2.730   9.733  0.0909 -0.4506  0.1771
  143SAPE   H8X15709   0.144   2.815   9.693  1.7940 -0.0006  3.3151
  143SAPE   H8Y15710  -0.025   2.749   9.732  0.4015  1.6179  0.6978
  143SAPE   C3915711   0.114   2.608   9.650 -0.1323  0.2045  0.6776
  143SAPE   H9X15712   0.041   2.527   9.669  0.2196 -0.3364 -0.1908
  143SAPE   H9Y15713   0.215   2.570   9.678 -0.9704 -0.6348  2.7105
  143SAPE  C31015714   0.108   2.623   9.501 -0.0363 -0.2276 -0.9697
  143SAPE  H10X15715   0.143   2.726   9.476  2.7774 -0.4819  1.4181
  143SAPE  H10Y15716   0.008   2.609   9.453  0.1952  0.1636 -1.5814
  143SAPE  C31115717   0.195   2.528   9.416 -0.6953  0.6308 -0.3665
  143SAPE  H11X15718   0.146   2.429   9.426 -0.6880  0.5593 -0.9634
  143SAPE  H11Y15719   0.299   2.518   9.454 -0.6437  0.2922 -0.5930
  143SAPE  C31215720   0.230   2.575   9.271 -0.3238 -0.1582 -0.0263
  143SAPE  H12X15721   0.292   2.667   9.268  1.6188 -1.4212 -0.3117
  143SAPE  H12Y15722   0.135   2.584   9.214  1.0323 -3.0139 -3.0345
  143SAPE  C31315723   0.306   2.471   9.181 -0.4325 -0.5688  0.1422
  143SAPE  H13X15724   0.230   2.392   9.161 -1.0672 -0.5146  2.1504
  143SAPE  H13Y15725   0.387   2.421   9.238 -1.6632 -1.1668  1.4162
  143SAPE  C31415726   0.364   2.536   9.056 -0.4037  0.1648  0.7657
  143SAPE  H14X15727   0.467   2.577   9.071 -0.4166  0.4350  0.1434
  143SAPE  H14Y15728   0.289   2.614   9.032 -2.2805 -1.7268  0.2508
  143SAPE  C31515729   0.362   2.418   8.955  0.0361 -0.4217  0.0474
  143SAPE  H15X15730   0.255   2.393   8.938 -0.5764  0.0073  2.8684
  143SAPE  H15Y15731   0.402   2.324   8.999  1.8976  0.9821  1.4987
  143SAPE  C31615732   0.441   2.445   8.821 -0.4651  0.0735  0.5305
  143SAPE  H16X15733   0.517   2.523   8.839 -1.7684  1.4091  0.4080
  143SAPE  H16Y15734   0.363   2.480   8.749 -2.3430  0.2269  2.5371
  143SAPE  C31715735   0.524   2.321   8.766 -0.5087  0.0892 -0.3287
  143SAPE  H17X15736   0.461   2.233   8.740  0.8438 -0.9803 -0.0683
  143SAPE  H17Y15737   0.599   2.299   8.845 -0.0364  0.4860 -0.6621
  143SAPE  C31815738   0.605   2.361   8.646  0.0787  0.3143 -0.4509
  143SAPE  H18X15739   0.667   2.446   8.681  0.0884  0.0539  0.1746
  143SAPE  H18Y15740   0.532   2.390   8.567  0.2668  1.2991 -0.2740
  143SAPE  H18Z15741   0.679   2.283   8.618  1.1940 -0.1111  3.1108
  144SAPE     N15742   3.762   0.691  10.726 -0.1432  0.9284 -0.0083
  144SAPE   HN115743   3.789   0.673  10.825  0.3206  3.1703  0.3221
  144SAPE   HN215744   3.665   0.659  10.708 -0.5219  1.1557  1.4450
  144SAPE   HN315745   3.833   0.647  10.664  1.3195  2.3750  0.5759
  144SAPE   C1215746   3.768   0.845  10.705 -0.3943 -0.5214  0.4445
  144SAPE  H12A15747   3.700   0.874  10.623 -0.7467  0.6132  1.1227
  144SAPE  H12B15748   3.869   0.878  10.670 -0.2686 -0.0388  1.2324
  144SAPE   C1115749   3.754   0.931  10.835 -0.0819  0.4557 -0.1043
  144SAPE  H11A15750   3.821   1.020  10.834  0.8035 -0.1862 -1.8782
  144SAPE  H11B15751   3.800   0.865  10.912  0.1912 -0.3326 -0.9343
  144SAPE     P15752   3.545   1.097  10.816  0.0602 -0.1468  0.0556
  144SAPE   O1315753   3.424   1.115  10.902  0.4160  0.5925 -0.0674
  144SAPE   O1415754   3.638   1.212  10.823  0.5065  0.0056  0.6601
  144SAPE   O1215755   3.618   0.955  10.861 -0.1775 -0.6284  0.1064
  144SAPE   O1115756   3.502   1.065  10.670  0.6940  0.0991  0.5222
  144SAPE    C115757   3.397   0.958  10.655 -0.4613 -0.2856  0.4737
  144SAPE    HA15758   3.445   0.870  10.608 -0.4735  0.4078 -0.8898
  144SAPE    HB15759   3.351   0.912  10.745 -0.0787 -2.3937 -0.3592
  144SAPE    C215760   3.278   1.005  10.562 -0.1583  0.4601 -0.4714
  144SAPE    HS15761   3.201   0.926  10.571  1.0668 -0.9405 -1.6417
  144SAPE   O2115762   3.327   1.009  10.434 -0.0586  0.4048  1.0423
  144SAPE   C2115763   3.250   0.980  10.335  0.3468 -0.5510  0.4022
  144SAPE   O2215764   3.138   0.929  10.342  0.0122 -0.3915  0.4045
  144SAPE   C2215765   3.322   1.013  10.196  0.7202  0.2058 -0.8310
  144SAPE   H2R15766   3.237   1.008  10.125 -1.4228  1.5094  1.4807
  144SAPE   H2S15767   3.332   1.123  10.198 -0.0226  0.2859  2.1450
  144SAPE    C315768   3.233   1.146  10.613 -0.1762  0.2222 -0.2484
  144SAPE    HX15769   3.312   1.222  10.597  1.3782 -1.2950  0.0234
  144SAPE    HY15770   3.222   1.120  10.720  0.2659 -0.2070 -0.3053
  144SAPE   O3115771   3.104   1.177  10.547 -0.4321  0.0695 -0.3339
  144SAPE   C3115772   3.113   1.267  10.459 -0.2352 -0.2929 -0.1999
  144SAPE   O3215773   3.210   1.322  10.409  0.5367 -0.7557 -0.7693
  144SAPE   C3215774   2.971   1.288  10.409  0.4019  0.4947 -0.0269
  144SAPE   H2X15775   2.969   1.394  10.375  1.5429  0.6207  0.2736
  144SAPE   H2Y15776   2.910   1.272  10.500  1.0177 -0.3225  0.2519
  144SAPE   C2315777   3.440   0.926  10.144 -0.1758 -0.0805 -0.2286
  144SAPE   H3R15778   3.439   0.821  10.180 -2.9164  0.3385  1.1992
  144SAPE   H3S15779   3.534   0.975  10.179 -0.1272 -1.4188  1.7003
  144SAPE   C2415780   3.438   0.932   9.989  0.4939 -0.1078  0.4153
  144SAPE   H4R15781   3.542   0.906   9.958  0.4751 -1.6191  1.5006
  144SAPE   H4S15782   3.432   1.041   9.969 -1.1839  0.0813  1.7509
  144SAPE   C2515783   3.336   0.837   9.924 -0.5565 -0.4434 -0.1169
  144SAPE   H5R15784   3.297   0.752   9.982  0.9023 -1.2070 -0.2109
  144SAPE   C2615785   3.311   0.831   9.795  0.2932 -0.0268  0.6142
  144SAPE   H6R15786   3.223   0.775   9.760  0.7923  0.5135 -1.6475
  144SAPE   C2715787   3.365   0.920   9.692 -0.0430  0.4462  0.3285
  144SAPE   H7R15788   3.421   1.008   9.728  3.2279 -1.4148  0.2403
  144SAPE   H7S15789   3.279   0.971   9.646 -0.2816 -0.8277 -0.7121
  144SAPE   C2815790   3.457   0.851   9.590  0.5512 -0.1906 -0.4122
  144SAPE   H8R15791   3.552   0.816   9.632  1.4785  1.1222 -1.3649
  144SAPE   C2915792   3.429   0.823   9.459  0.0980  0.0221  0.1827
  144SAPE   H9R15793   3.498   0.761   9.399 -1.2448 -0.1033 -1.2807
  144SAPE  C21015794   3.296   0.868   9.402 -0.4580 -0.1905  0.0655
  144SAPE  H10R15795   3.275   0.975   9.423 -0.3038 -0.0180 -0.6284
  144SAPE  H10S15796   3.209   0.823   9.452 -2.5467  0.9280 -2.3116
  144SAPE  C21115797   3.284   0.836   9.255  0.5793  0.4547 -0.7981
  144SAPE  H11R15798   3.193   0.781   9.226  0.7968  0.0193 -0.6666
  144SAPE  C21215799   3.370   0.844   9.156 -0.0048 -0.6217  0.1779
  144SAPE  H12R15800   3.320   0.823   9.061 -1.4618  3.3430 -0.1061
  144SAPE  C21315801   3.513   0.898   9.157 -0.7027 -0.5751 -0.2593
  144SAPE  H13R15802   3.596   0.824   9.158 -0.8557 -0.8256 -2.1123
  144SAPE  H13S15803   3.523   0.970   9.241 -0.1505 -0.2777 -0.5778
  144SAPE  C21415804   3.536   0.981   9.031  0.0027 -0.7199  0.4161
  144SAPE  H14R15805   3.504   1.086   9.042  1.4084 -0.1994 -0.2135
  144SAPE  C21515806   3.584   0.934   8.908 -0.5724  0.7107  0.1456
  144SAPE  H15R15807   3.599   1.002   8.822  0.4857 -0.6953 -0.8386
  144SAPE  C21615808   3.633   0.795   8.863  0.5466 -0.8091 -0.7966
  144SAPE  H16R15809   3.641   0.721   8.946 -0.3212 -0.8905 -0.7763
  144SAPE  H16S15810   3.739   0.816   8.835  1.0889  1.4578  2.4579
  144SAPE  C21715811   3.547   0.741   8.745  0.3220  0.5913  0.2335
  144SAPE  H17R15812   3.601   0.655   8.701  1.3859  1.0020  0.7086
  144SAPE  H17S15813   3.532   0.815   8.663  0.4630 -1.2263 -1.4992
  144SAPE  C21815814   3.410   0.691   8.792  0.4622 -0.2967 -0.3011
  144SAPE  H18R15815   3.402   0.676   8.902  1.2627 -0.0244 -0.1976
  144SAPE  H18S15816   3.373   0.599   8.742 -2.1494 -0.0167  0.9292
  144SAPE  C21915817   3.300   0.796   8.748 -0.0266 -0.0375  0.3540
  144SAPE  H19R15818   3.305   0.792   8.637  0.1458 -0.0858  0.3638
  144SAPE  H19S15819   3.315   0.898   8.792 -0.9384 -0.7871  2.5664
  144SAPE  C22015820   3.160   0.739   8.770  0.4118  0.1863 -0.2075
  144SAPE  H20R15821   3.085   0.782   8.699  0.0249  0.4962  0.3837
  144SAPE  H20S15822   3.138   0.756   8.877 -1.0753  1.0794 -0.6214
  144SAPE  H20T15823   3.156   0.629   8.758 -2.1131  0.0794  0.9919
  144SAPE   C3315824   2.947   1.200  10.283 -0.6074 -0.8768  0.1601
  144SAPE   H3X15825   2.839   1.197  10.257 -0.6625 -0.9075  0.3973
  144SAPE   H3Y15826   2.973   1.095  10.307 -0.1139 -1.1738 -1.5538
  144SAPE   C3415827   3.023   1.242  10.153 -0.0933 -0.3891  0.3963
  144SAPE   H4X15828   3.131   1.225  10.172  0.0828 -0.5909 -0.7130
  144SAPE   H4Y15829   3.001   1.350  10.140  1.4215  0.1422  1.8419
  144SAPE   C3515830   2.988   1.170  10.025  0.6361 -0.6586  1.0319
  144SAPE   H5X15831   2.881   1.181   9.998  0.9320 -1.2326 -0.4837
  144SAPE   H5Y15832   3.020   1.064  10.034  2.7389  0.0578  3.0788
  144SAPE   C3615833   3.063   1.225   9.902  0.6175 -0.1119 -0.1135
  144SAPE   H6X15834   3.173   1.214   9.915  0.7154  2.0436  1.3411
  144SAPE   H6Y15835   3.045   1.335   9.902  1.0619 -0.0003  1.7319
  144SAPE   C3715836   3.027   1.162   9.764 -0.2900 -0.6265 -0.3281
  144SAPE   H7X15837   2.918   1.159   9.740 -0.2927  0.6340 -0.5449
  144SAPE   H7Y15838   3.061   1.057   9.770  2.7195  0.2834  0.0911
  144SAPE   C3815839   3.099   1.235   9.648 -0.5565  0.1330 -0.6698
  144SAPE   H8X15840   3.210   1.231   9.657 -0.2890  1.8855 -2.5223
  144SAPE   H8Y15841   3.079   1.344   9.658  1.3891  0.3618  2.1421
  144SAPE   C3915842   3.063   1.188   9.510 -0.0179 -0.1243  0.6659
  144SAPE   H9X15843   2.959   1.216   9.481  0.7997  0.7717 -1.5868
  144SAPE   H9Y15844   3.058   1.077   9.504  1.2129 -0.1007 -2.2163
  144SAPE  C31015845   3.154   1.247   9.402  0.3524 -0.2015 -0.9129
  144SAPE  H10X15846   3.251   1.193   9.410 -1.1472 -3.2964 -1.8745
  144SAPE  H10Y15847   3.166   1.356   9.417 -0.1586 -0.5204  2.5553
  144SAPE  C31115848   3.096   1.213   9.271  0.2437  0.8154 -0.2874
  144SAPE  H11X15849   2.990   1.246   9.270  0.0362  0.2202  0.9838
  144SAPE  H11Y15850   3.100   1.102   9.264 -1.0812  0.5660  2.0256
  144SAPE  C31215851   3.181   1.271   9.151 -0.2344 -0.0127  0.6091
  144SAPE  H12X15852   3.290   1.256   9.166 -0.2268 -1.8535 -0.9410
  144SAPE  H12Y15853   3.160   1.380   9.155 -0.3505  0.0323 -0.7955
  144SAPE  C31315854   3.143   1.220   9.021 -0.0618 -0.1355  0.5726
  144SAPE  H13X15855   3.035   1.227   8.996 -0.7270 -2.4405  2.4893
  144SAPE  H13Y15856   3.169   1.112   9.023 -0.8430 -0.3284  1.0096
  144SAPE  C31415857   3.207   1.294   8.905  0.9726 -0.8067  0.7096
  144SAPE  H14X15858   3.312   1.258   8.901  0.3066 -2.8190 -1.4267
  144SAPE  H14Y15859   3.202   1.405   8.906  1.7119 -0.7317 -0.7725
  144SAPE  C31515860   3.140   1.262   8.768  0.4763  0.7311  0.5815
  144SAPE  H15X15861   3.035   1.298   8.761 -1.0111 -3.2563 -0.2223
  144SAPE  H15Y15862   3.132   1.152   8.781 -2.1523  0.9286  1.2196
  144SAPE  C31615863   3.219   1.294   8.640  0.1010  0.1905  0.1412
  144SAPE  H16X15864   3.313   1.235   8.652  0.3279  0.5296  0.0347
  144SAPE  H16Y15865   3.252   1.400   8.647 -0.2622  0.2199  1.8269
  144SAPE  C31715866   3.148   1.263   8.502  0.3129  0.6692  0.5142
  144SAPE  H17X15867   3.195   1.324   8.423 -0.6742  0.8894  0.0834
  144SAPE  H17Y15868   3.039   1.279   8.512  0.0132 -1.1849  0.6257
  144SAPE  C31815869   3.162   1.112   8.458 -0.1330 -0.2005  0.0480
  144SAPE  H18X15870   3.163   1.047   8.548  1.7380 -0.1422  0.1054
  144SAPE  H18Y15871   3.266   1.089   8.426  0.2765  0.3832  0.9031
  144SAPE  H18Z15872   3.086   1.080   8.385  0.3049  2.9091 -1.9274
  145SAPE     N15873   5.737   2.366  11.294 -1.1614 -0.1298  0.3726
  145SAPE   HN115874   5.738   2.269  11.257 -0.2490  0.6537 -1.8007
  145SAPE   HN215875   5.644   2.412  11.283 -1.7189 -1.7633 -3.2522
  145SAPE   HN315876   5.809   2.415  11.238  1.7609 -2.2180  2.0600
  145SAPE   C1215877   5.790   2.362  11.433 -0.4655 -0.8808 -0.3796
  145SAPE  H12A15878   5.724   2.320  11.512  2.3626  0.7724  3.1320
  145SAPE  H12B15879   5.814   2.469  11.451 -1.6297 -0.5096 -0.9582
  145SAPE   C1115880   5.925   2.285  11.444  0.0863 -0.1355 -0.4474
  145SAPE  H11A15881   5.893   2.179  11.445  2.3198 -0.9542  3.5654
  145SAPE  H11B15882   5.970   2.310  11.542  1.7500 -0.7681 -1.0133
  145SAPE     P15883   6.152   2.230  11.337  0.3948 -0.2735 -0.0353
  145SAPE   O1315884   6.219   2.247  11.472  0.6387 -0.5539 -0.0547
  145SAPE   O1415885   6.144   2.089  11.293  0.3933  0.6418 -0.0870
  145SAPE   O1215886   6.012   2.305  11.331 -0.4150 -0.1664 -0.6110
  145SAPE   O1115887   6.231   2.307  11.234 -0.3343 -0.3566 -0.1003
  145SAPE    C115888   6.183   2.391  11.128  0.2064 -0.0368  0.4655
  145SAPE    HA15889   6.100   2.454  11.167  1.0416 -0.5464  3.2568
  145SAPE    HB15890   6.261   2.465  11.101 -0.1141 -0.0438 -0.5317
  145SAPE    C215891   6.135   2.303  11.006  0.5505  0.9174  0.4504
  145SAPE    HS15892   6.058   2.234  11.047  1.4019  0.4940  1.3586
  145SAPE   O2115893   6.243   2.222  10.963 -0.1197  0.5230  0.1065
  145SAPE   C2115894   6.217   2.119  10.898  1.2281 -0.0044  0.0168
  145SAPE   O2215895   6.110   2.060  10.902  0.1226  0.2347  0.4144
  145SAPE   C2215896   6.341   2.076  10.830 -0.1026 -0.0640 -0.3590
  145SAPE   H2R15897   6.403   2.167  10.818  0.2553 -0.1173  0.9416
  145SAPE   H2S15898   6.398   2.004  10.892 -1.1423 -0.0152  0.6870
  145SAPE    C315899   6.081   2.392  10.891 -0.0711 -0.3154 -0.0925
  145SAPE    HX15900   6.140   2.486  10.892 -1.9210  0.8823  0.1548
  145SAPE    HY15901   5.983   2.426  10.928  0.3391  1.8343 -0.8712
  145SAPE   O3115902   6.084   2.328  10.764  0.3816 -0.2643 -0.0996
  145SAPE   C3115903   6.018   2.399  10.671  0.3899  0.2672 -0.0446
  145SAPE   O3215904   5.975   2.510  10.691  0.3379 -0.3327 -0.2898
  145SAPE   C3215905   6.026   2.319  10.547 -0.5219 -0.1569 -0.0742
  145SAPE   H2X15906   5.941   2.247  10.544 -0.6421 -0.0106 -0.1904
  145SAPE   H2Y15907   6.120   2.260  10.544 -1.2817 -1.4192  0.0455
  145SAPE   C2315908   6.321   2.018  10.685 -0.8820  0.7856 -0.1284
  145SAPE   H3R15909   6.261   2.090  10.625 -0.9642 -0.1703 -1.2444
  145SAPE   H3S15910   6.274   1.917  10.682 -1.5830  1.1059 -0.2622
  145SAPE   C2415911   6.460   1.992  10.615  0.0345 -0.5636 -0.1495
  145SAPE   H4R15912   6.443   1.922  10.531  0.5757 -0.0913 -0.6650
  145SAPE   H4S15913   6.526   1.929  10.680  1.2935  1.5350  0.7278
  145SAPE   C2515914   6.524   2.114  10.555  0.1603 -0.4909 -1.1118
  145SAPE   H5R15915   6.583   2.170  10.629  0.8090 -0.9474 -1.2674
  145SAPE   C2615916   6.530   2.159  10.432 -0.0838 -0.7640  0.3872
  145SAPE   H6R15917   6.592   2.249  10.416 -0.9750 -0.2605 -0.3466
  145SAPE   C2715918   6.472   2.098  10.307  0.6135 -0.1704  0.2598
  145SAPE   H7R15919   6.447   1.991  10.320  0.1607 -0.0665  0.2737
  145SAPE   H7S15920   6.548   2.098  10.226  0.0419  0.3138 -0.2880
  145SAPE   C2815921   6.352   2.176  10.269 -0.0562  0.1749  0.1102
  145SAPE   H8R15922   6.281   2.193  10.351  2.4364  2.3741  1.9921
  145SAPE   C2915923   6.318   2.214  10.150  0.5629 -0.5800 -0.5217
  145SAPE   H9R15924   6.221   2.263  10.132  0.5616  0.2170  1.4067
  145SAPE  C21015925   6.394   2.191  10.026  0.3635 -0.2967  1.0589
  145SAPE  H10R15926   6.318   2.209   9.947 -0.7508  0.5951  2.2807
  145SAPE  H10S15927   6.415   2.082  10.014 -0.4107 -0.3609  0.1859
  145SAPE  C21115928   6.523   2.275  10.002  0.0538 -0.2737  0.5222
  145SAPE  H11R15929   6.565   2.335  10.085  0.9364 -0.5546  0.2886
  145SAPE  C21215930   6.582   2.291   9.888 -0.3741  0.4175  0.8346
  145SAPE  H12R15931   6.656   2.372   9.879 -0.2243  0.1596 -0.4547
  145SAPE  C21315932   6.547   2.231   9.760 -0.2986  0.1814  0.1079
  145SAPE  H13R15933   6.492   2.136   9.779  1.5314 -0.7526  0.9914
  145SAPE  H13S15934   6.638   2.201   9.704 -1.5399 -0.4012 -1.6898
  145SAPE  C21415935   6.460   2.319   9.676 -0.1381  0.1983  0.0771
  145SAPE  H14R15936   6.394   2.383   9.737 -0.3350  0.7673 -0.7146
  145SAPE  C21515937   6.459   2.323   9.539  0.3611  0.1109 -0.7894
  145SAPE  H15R15938   6.399   2.403   9.493 -0.0679  0.7147  0.7524
  145SAPE  C21615939   6.549   2.243   9.450  0.3933 -0.5969  0.2766
  145SAPE  H16R15940   6.503   2.229   9.350 -0.7329 -1.5753  0.9095
  145SAPE  H16S15941   6.575   2.144   9.493 -0.2496 -0.8320  0.1278
  145SAPE  C21715942   6.679   2.321   9.399  0.2184 -0.5405  0.1251
  145SAPE  H17R15943   6.758   2.247   9.376  1.3776  0.5482  0.5327
  145SAPE  H17S15944   6.720   2.375   9.486 -1.0884 -0.0283  0.4552
  145SAPE  C21815945   6.662   2.432   9.287 -0.4839 -0.2609 -0.9308
  145SAPE  H18R15946   6.757   2.489   9.283  0.6308 -2.0505 -0.8888
  145SAPE  H18S15947   6.592   2.502   9.338  1.6742 -0.7246  3.0786
  145SAPE  C21915948   6.606   2.394   9.155  0.3504 -0.0728 -0.8738
  145SAPE  H19R15949   6.592   2.485   9.093  0.2223  1.2756  1.0381
  145SAPE  H19S15950   6.504   2.352   9.170  0.5411 -0.3922 -0.4768
  145SAPE  C22015951   6.702   2.301   9.073  0.9446 -0.2719  0.4630
  145SAPE  H20R15952   6.798   2.355   9.064  0.1054  1.5279  1.5976
  145SAPE  H20S15953   6.668   2.283   8.969 -0.2012 -0.3274  0.8330
  145SAPE  H20T15954   6.730   2.211   9.133  1.5862 -0.0437  0.5061
  145SAPE   C3315955   5.997   2.403  10.417  0.1578  0.0366  0.5183
  145SAPE   H3X15956   6.080   2.473  10.395 -0.0189  1.3872  3.6277
  145SAPE   H3Y15957   5.905   2.462  10.435 -0.0362 -0.2849  0.6069
  145SAPE   C3415958   5.969   2.318  10.295  0.0251  0.0177  0.4134
  145SAPE   H4X15959   5.879   2.256  10.318  0.1769  0.0875  1.2306
  145SAPE   H4Y15960   6.049   2.243  10.278 -0.3309  0.0525 -1.7067
  145SAPE   C3515961   5.955   2.395  10.167  0.2175 -0.0365  0.1812
  145SAPE   H5X15962   6.048   2.456  10.168  0.3391 -0.2228  0.2182
  145SAPE   H5Y15963   5.866   2.461  10.179  0.1915  0.3821 -1.9006
  145SAPE   C3615964   5.955   2.310  10.043 -0.5167 -0.7965  0.1721
  145SAPE   H6X15965   5.876   2.232  10.052 -0.9595 -0.3767 -0.0470
  145SAPE   H6Y15966   6.059   2.270  10.031 -0.8861 -1.4272 -1.1591
  145SAPE   C3715967   5.914   2.389   9.914  0.4666 -0.6231  0.0963
  145SAPE   H7X15968   5.952   2.491   9.938 -0.4552 -0.3117  0.2593
  145SAPE   H7Y15969   5.804   2.402   9.918  0.3758 -1.1282 -0.5977
  145SAPE   C3815970   5.979   2.344   9.788 -0.6273 -0.3169  0.7064
  145SAPE   H8X15971   5.964   2.236   9.762 -1.5128  0.0812 -0.5879
  145SAPE   H8Y15972   6.087   2.355   9.811 -0.4902 -3.0032  1.7039
  145SAPE   C3915973   5.956   2.429   9.663  0.5555  0.4616  0.0115
  145SAPE   H9X15974   5.962   2.538   9.687 -0.1015  1.0988 -2.4066
  145SAPE   H9Y15975   5.848   2.415   9.644  0.0540  2.7511  0.7971
  145SAPE  C31015976   6.048   2.411   9.547 -0.8470 -0.0944 -0.0780
  145SAPE  H10X15977   6.147   2.460   9.555  0.4308 -1.7039 -3.8046
  145SAPE  H10Y15978   6.009   2.474   9.465  1.1381  2.6001  0.9167
  145SAPE  C31115979   6.059   2.265   9.501  0.2576  0.2653 -0.1651
  145SAPE  H11X15980   5.957   2.220   9.503 -0.3989  1.6304 -0.9810
  145SAPE  H11Y15981   6.128   2.208   9.566  0.6789 -1.7006 -2.2154
  145SAPE  C31215982   6.094   2.259   9.348  0.0551 -0.4329  0.2877
  145SAPE  H12X15983   6.205   2.270   9.354  0.0896 -1.4339  2.3744
  145SAPE  H12Y15984   6.046   2.344   9.295 -0.6491  0.2062  1.8678
  145SAPE  C31315985   6.061   2.125   9.276  0.6013  0.3818  0.4778
  145SAPE  H13X15986   5.953   2.108   9.291  0.8230  0.3467  2.1764
  145SAPE  H13Y15987   6.114   2.037   9.318 -0.5464 -1.2532 -1.3180
  145SAPE  C31415988   6.104   2.123   9.125  0.1166 -0.4547  0.2438
  145SAPE  H14X15989   6.214   2.134   9.111  0.0917  0.7841  0.8620
  145SAPE  H14Y15990   6.048   2.207   9.079  0.7357 -1.1924 -2.0121
  145SAPE  C31515991   6.052   1.999   9.045  0.5994  0.1164  0.2605
  145SAPE  H15X15992   5.944   2.005   9.069  0.5825 -0.4900  0.3648
  145SAPE  H15Y15993   6.082   1.897   9.079 -1.6388  0.0234  2.1868
  145SAPE  C31615994   6.088   2.008   8.899 -0.6046 -1.0177  0.0373
  145SAPE  H16X15995   6.197   1.986   8.896 -0.6246 -1.1716  0.3455
  145SAPE  H16Y15996   6.081   2.112   8.861  0.6775 -1.7649 -2.4608
  145SAPE  C31715997   6.018   1.911   8.808  1.0835  0.4690  0.4040
  145SAPE  H17X15998   5.911   1.932   8.830  0.8753 -0.9414  0.8996
  145SAPE  H17Y15999   6.046   1.809   8.842 -1.7399 -0.7616 -0.6218
  145SAPE  C31816000   6.042   1.936   8.655  0.6004  0.0825 -0.4970
  145SAPE  H18X16001   6.036   2.043   8.628  1.0051  0.7530  1.8151
  145SAPE  H18Y16002   5.974   1.870   8.596  0.5830 -1.1791  0.8697
  145SAPE  H18Z16003   6.145   1.905   8.627 -0.0597 -1.2055 -1.5880
  146SAPE     N16004   4.457   3.024  10.965 -0.0826  0.8004 -0.0067
  146SAPE   HN116005   4.523   3.104  10.968 -1.4532  1.9277  2.4007
  146SAPE   HN216006   4.361   3.051  10.994  1.3911  1.1492  5.7084
  146SAPE   HN316007   4.490   2.942  11.020 -1.7094  0.4989  0.5757
  146SAPE   C1216008   4.468   2.969  10.816  0.7527 -0.5343  0.0141
  146SAPE  H12A16009   4.576   2.947  10.805  1.1636  0.7304  1.1784
  146SAPE  H12B16010   4.429   3.050  10.751  1.5826  0.0529  0.2355
  146SAPE   C1116011   4.389   2.834  10.795 -0.0044 -0.5497  0.7662
  146SAPE  H11A16012   4.390   2.812  10.686 -1.0203  2.0949  0.1357
  146SAPE  H11B16013   4.283   2.854  10.823 -0.0153  0.5406 -0.0209
  146SAPE     P16014   4.553   2.631  10.816 -0.2447  0.3219  0.1069
  146SAPE   O1316015   4.632   2.704  10.712  0.1536  0.4506 -0.2096
  146SAPE   O1416016   4.625   2.581  10.933  0.8678  0.7650 -0.0662
  146SAPE   O1216017   4.442   2.727  10.877  0.0689  0.3879  0.3910
  146SAPE   O1116018   4.473   2.518  10.755  0.8053  0.2528 -0.3997
  146SAPE    C116019   4.333   2.486  10.773  0.0221  0.7136 -0.0721
  146SAPE    HA16020   4.315   2.448  10.876  2.9010  1.9348  0.9847
  146SAPE    HB16021   4.267   2.574  10.762 -2.3467 -0.9888 -0.2696
  146SAPE    C216022   4.285   2.394  10.660  0.3562  0.7971 -0.3590
  146SAPE    HS16023   4.330   2.295  10.682 -2.1419 -0.2482  0.3390
  146SAPE   O2116024   4.313   2.448  10.531  0.4130  0.0498  0.0289
  146SAPE   C2116025   4.404   2.376  10.462  0.3914 -0.5560 -0.2823
  146SAPE   O2216026   4.464   2.280  10.504  0.7609  0.3913 -0.7085
  146SAPE   C2216027   4.428   2.439  10.334 -0.2728 -0.2296  0.1772
  146SAPE   H2R16028   4.336   2.492  10.299  0.6302  1.2095 -0.0958
  146SAPE   H2S16029   4.505   2.518  10.349  1.0351 -1.7234  1.7251
  146SAPE    C316030   4.135   2.389  10.670 -0.5763  0.8318  0.1161
  146SAPE    HX16031   4.088   2.489  10.662 -0.4580  0.7578 -2.1215
  146SAPE    HY16032   4.111   2.349  10.771  0.2309 -1.0305 -0.3757
  146SAPE   O3116033   4.078   2.313  10.561 -0.1607  0.0143 -0.5197
  146SAPE   C3116034   4.064   2.182  10.583 -0.4880 -0.5886 -0.6371
  146SAPE   O3216035   4.106   2.118  10.678  0.7143  0.0118  0.1141
  146SAPE   C3216036   3.981   2.108  10.472  0.0843 -0.4678 -0.1188
  146SAPE   H2X16037   3.895   2.068  10.530  1.7518 -2.8393  0.8867
  146SAPE   H2Y16038   4.041   2.018  10.447 -1.0138 -1.5538  1.0304
  146SAPE   C2316039   4.476   2.344  10.228 -0.5588  0.7158 -0.0912
  146SAPE   H3R16040   4.414   2.251  10.228 -1.3176  1.1516  2.4318
  146SAPE   H3S16041   4.578   2.308  10.253 -0.4801  1.1682  0.2344
  146SAPE   C2416042   4.476   2.412  10.084 -0.1789 -0.1334 -0.1772
  146SAPE   H4R16043   4.553   2.491  10.094 -0.1953 -0.2051  0.6119
  146SAPE   H4S16044   4.382   2.470  10.078  0.8286  1.4659 -1.4064
  146SAPE   C2516045   4.503   2.317   9.972 -0.4989 -0.7338 -0.1139
  146SAPE   H5R16046   4.452   2.220   9.982  0.2950 -0.9424  2.9630
  146SAPE   C2616047   4.569   2.338   9.859  0.6273  0.4863  0.4335
  146SAPE   H6R16048   4.580   2.245   9.800 -2.6903  0.0353  0.3687
  146SAPE   C2716049   4.645   2.465   9.821 -0.4387  0.3972  0.1106
  146SAPE   H7R16050   4.743   2.441   9.776 -0.4582  0.7407 -0.1210
  146SAPE   H7S16051   4.678   2.518   9.913  2.0100 -1.6610  0.5325
  146SAPE   C2816052   4.572   2.567   9.741  0.3319  0.8800 -0.1340
  146SAPE   H8R16053   4.501   2.622   9.803  0.7220  1.4741 -0.1962
  146SAPE   C2916054   4.586   2.580   9.605  0.2584  0.2954 -0.0531
  146SAPE   H9R16055   4.548   2.671   9.556 -1.1993 -0.6830 -0.8146
  146SAPE  C21016056   4.669   2.497   9.511  0.0864  0.3963 -1.1447
  146SAPE  H10R16057   4.690   2.401   9.562 -0.7129  0.3195 -0.9437
  146SAPE  H10S16058   4.766   2.550   9.496  1.4158 -1.6421 -0.1312
  146SAPE  C21116059   4.601   2.460   9.385  0.1251 -0.3565 -0.3373
  146SAPE  H11R16060   4.508   2.406   9.406 -0.4233  1.3811  2.0389
  146SAPE  C21216061   4.632   2.509   9.268 -0.0712  0.8621  0.4324
  146SAPE  H12R16062   4.570   2.483   9.181  0.6796 -1.8042  0.6246
  146SAPE  C21316063   4.758   2.583   9.226  0.0324 -0.4065  0.0657
  146SAPE  H13R16064   4.804   2.542   9.133  0.7084  1.2567 -0.3761
  146SAPE  H13S16065   4.843   2.579   9.298  0.4799  1.8824 -0.2288
  146SAPE  C21416066   4.728   2.734   9.205 -0.7930 -0.7435 -0.6698
  146SAPE  H14R16067   4.750   2.800   9.290  2.1846 -0.7375 -1.3467
  146SAPE  C21516068   4.681   2.782   9.088  0.2655 -0.1891  0.4877
  146SAPE  H15R16069   4.663   2.890   9.086 -0.2874 -0.2841  0.1812
  146SAPE  C21616070   4.648   2.704   8.958 -0.2377  0.0604 -0.2579
  146SAPE  H16R16071   4.539   2.717   8.937 -0.5553 -0.5762  0.9111
  146SAPE  H16S16072   4.642   2.594   8.971 -0.3443  0.1472  0.4924
  146SAPE  C21716073   4.738   2.746   8.841  0.4302 -0.9289  0.2556
  146SAPE  H17R16074   4.720   2.673   8.759 -0.9528 -1.1362  0.7228
  146SAPE  H17S16075   4.843   2.743   8.878  0.8976  2.0705 -0.6201
  146SAPE  C21816076   4.704   2.891   8.804  0.2675 -0.2938  0.6724
  146SAPE  H18R16077   4.730   2.967   8.881 -0.5128  1.0426 -0.3330
  146SAPE  H18S16078   4.598   2.912   8.776  0.7496 -1.3160 -2.3001
  146SAPE  C21916079   4.772   2.931   8.676  0.0184 -0.1571  0.6305
  146SAPE  H19R16080   4.729   2.877   8.590 -1.0254  3.1226 -1.0975
  146SAPE  H19S16081   4.880   2.910   8.693 -0.0562  0.5818  2.2367
  146SAPE  C22016082   4.737   3.077   8.632  0.0909  0.3693  0.1999
  146SAPE  H20R16083   4.749   3.160   8.705 -1.9377  0.0601  0.9375
  146SAPE  H20S16084   4.630   3.084   8.603 -0.8069  1.7240  3.4697
  146SAPE  H20T16085   4.806   3.098   8.547  2.2303 -2.1498  1.1681
  146SAPE   C3316086   3.954   2.187  10.341  0.4979 -0.4498  0.4420
  146SAPE   H3X16087   3.923   2.290  10.368 -0.1018  0.0467 -1.9085
  146SAPE   H3Y16088   3.870   2.140  10.285  0.8967  1.3617 -1.8335
  146SAPE   C3416089   4.075   2.205  10.253 -0.0705  0.5504  1.2662
  146SAPE   H4X16090   4.112   2.106  10.219  0.2953  0.7033  1.2134
  146SAPE   H4Y16091   4.166   2.246  10.302  0.4191 -0.1610  0.9728
  146SAPE   C3516092   4.040   2.286  10.131  0.8492 -0.3127 -0.1093
  146SAPE   H5X16093   4.017   2.392  10.155 -2.4224 -0.8895 -0.2528
  146SAPE   H5Y16094   3.940   2.257  10.091  0.7503  1.6645 -1.4601
  146SAPE   C3616095   4.132   2.281  10.008  0.5036 -0.4663 -0.1949
  146SAPE   H6X16096   4.153   2.174   9.986 -0.5884 -0.6290 -0.5125
  146SAPE   H6Y16097   4.220   2.340  10.040 -0.5088  1.4742 -0.7939
  146SAPE   C3716098   4.058   2.353   9.896  0.2982 -0.1140  0.4103
  146SAPE   H7X16099   4.063   2.462   9.920 -0.4991  0.3952 -1.5293
  146SAPE   H7Y16100   3.951   2.323   9.887  0.6183 -0.8335 -1.2731
  146SAPE   C3816101   4.121   2.333   9.758  0.4016 -0.2692 -0.2388
  146SAPE   H8X16102   4.094   2.229   9.730 -2.5732  0.9934 -2.6523
  146SAPE   H8Y16103   4.227   2.366   9.766  0.6060 -0.2715 -2.4269
  146SAPE   C3916104   4.067   2.432   9.657 -0.4470  0.5187 -0.8874
  146SAPE   H9X16105   4.090   2.534   9.694 -2.4738  1.4056 -1.8956
  146SAPE   H9Y16106   3.956   2.438   9.645 -0.5743  0.7611  0.3153
  146SAPE  C31016107   4.136   2.404   9.516 -0.5503 -0.1867 -0.5421
  146SAPE  H10X16108   4.114   2.299   9.486  1.6909 -1.1465  0.9035
  146SAPE  H10Y16109   4.247   2.399   9.522 -0.5348 -0.8804 -1.2384
  146SAPE  C31116110   4.096   2.496   9.402  0.0666 -0.6486 -0.2958
  146SAPE  H11X16111   4.106   2.602   9.434 -1.6212  0.3203 -2.7345
  146SAPE  H11Y16112   3.988   2.494   9.378 -0.3475  1.4062  1.1880
  146SAPE  C31216113   4.182   2.484   9.275  0.6651 -0.0793 -0.4664
  146SAPE  H12X16114   4.180   2.380   9.234 -2.0589 -0.5892  0.7407
  146SAPE  H12Y16115   4.287   2.511   9.301  0.3901  1.7307 -1.0898
  146SAPE  C31316116   4.149   2.586   9.162  0.1759 -0.3276  0.3645
  146SAPE  H13X16117   4.242   2.603   9.104 -1.0653  1.1881 -1.2800
  146SAPE  H13Y16118   4.115   2.685   9.199 -1.5032 -0.0149 -1.8044
  146SAPE  C31416119   4.034   2.541   9.076 -0.1885  0.0861  0.6460
  146SAPE  H14X16120   3.966   2.489   9.147  0.0210 -1.9566 -0.5514
  146SAPE  H14Y16121   4.073   2.471   8.998  0.8358 -1.0305  2.1008
  146SAPE  C31516122   3.964   2.656   8.997  0.7961  0.3987 -0.6762
  146SAPE  H15X16123   4.037   2.671   8.916  2.6320 -1.2422  0.5714
  146SAPE  H15Y16124   3.960   2.751   9.054 -2.3316 -0.1885  0.2728
  146SAPE  C31616125   3.826   2.622   8.940 -0.3094 -0.0899 -0.4846
  146SAPE  H16X16126   3.793   2.703   8.871 -3.5796 -1.6910 -1.0155
  146SAPE  H16Y16127   3.764   2.631   9.032 -1.2129  0.3067 -1.1144
  146SAPE  C31716128   3.806   2.484   8.878  0.2916  0.0151 -0.0723
  146SAPE  H17X16129   3.857   2.411   8.943 -1.1099 -2.7467 -1.8732
  146SAPE  H17Y16130   3.843   2.477   8.773 -1.3547  0.6720 -0.7379
  146SAPE  C31816131   3.660   2.429   8.900  1.1534 -0.4894  0.5642
  146SAPE  H18X16132   3.617   2.457   8.998  0.7465 -1.0836  0.5605
  146SAPE  H18Y16133   3.654   2.318   8.892 -0.3377 -0.2815 -3.1913
  146SAPE  H18Z16134   3.592   2.476   8.826  2.6653 -0.0781 -0.6267
  147SAPE     N16135   6.474   4.836   5.824 -0.1942  0.1263 -0.2366
  147SAPE   HN116136   6.551   4.769   5.844  0.4198  0.6658 -0.7248
  147SAPE   HN216137   6.389   4.778   5.809 -0.8106  0.6654  1.0964
  147SAPE   HN316138   6.500   4.893   5.740 -2.1847  2.4198  0.5786
  147SAPE   C1216139   6.458   4.924   5.946 -0.0847  0.0872  0.1793
  147SAPE  H12A16140   6.371   4.989   5.925  0.0284 -0.1637 -1.2208
  147SAPE  H12B16141   6.548   4.987   5.959  0.5325 -0.1106 -2.5093
  147SAPE   C1116142   6.408   4.841   6.074 -0.3597  0.4330 -0.0405
  147SAPE  H11A16143   6.314   4.786   6.049  0.6416 -1.0530 -0.6940
  147SAPE  H11B16144   6.385   4.925   6.142 -1.1368  1.3725 -1.4215
  147SAPE     P16145   6.495   4.649   6.228  0.2105  0.6228 -0.3022
  147SAPE   O1316146   6.439   4.522   6.179  0.2819  0.3904  0.0459
  147SAPE   O1416147   6.629   4.632   6.291  0.2333  0.2268 -0.7978
  147SAPE   O1216148   6.511   4.757   6.123 -0.3287 -0.1449  0.1240
  147SAPE   O1116149   6.393   4.711   6.333 -0.6521 -0.1632 -0.3407
  147SAPE    C116150   6.427   4.815   6.427  0.2495  0.7308  1.6407
  147SAPE    HA16151   6.507   4.881   6.387  0.0480  0.4241  0.7187
  147SAPE    HB16152   6.342   4.887   6.428  0.3155  0.9514 -0.9939
  147SAPE    C216153   6.453   4.764   6.567  0.0716  0.6024  0.2776
  147SAPE    HS16154   6.547   4.704   6.564  0.1570  0.7794 -0.8856
  147SAPE   O2116155   6.337   4.686   6.588  0.1098 -0.5488  0.4793
  147SAPE   C2116156   6.346   4.583   6.666 -0.0798 -1.0435  0.0841
  147SAPE   O2216157   6.435   4.560   6.747 -0.1722 -0.4637 -0.2049
  147SAPE   C2216158   6.231   4.487   6.651 -0.2518  0.2523  0.8898
  147SAPE   H2R16159   6.163   4.513   6.735 -0.7185 -1.2368  1.0084
  147SAPE   H2S16160   6.165   4.506   6.563  0.1601  1.0709  0.7459
  147SAPE    C316161   6.474   4.889   6.660  0.3900  0.2165  0.5277
  147SAPE    HX16162   6.387   4.958   6.664  0.6888  0.5720  1.0206
  147SAPE    HY16163   6.561   4.939   6.613 -0.4584 -1.0922 -2.7206
  147SAPE   O3116164   6.490   4.839   6.800 -0.1853 -0.4211 -0.2515
  147SAPE   C3116165   6.618   4.831   6.839 -0.2887 -0.3625  0.5211
  147SAPE   O3216166   6.719   4.851   6.774 -0.7827 -0.1956 -0.2602
  147SAPE   C3216167   6.610   4.776   6.980 -1.2801 -0.0132 -0.3226
  147SAPE   H2X16168   6.714   4.753   7.013 -0.7585  2.0820 -0.3742
  147SAPE   H2Y16169   6.552   4.682   6.970  1.1727 -1.4191 -2.7868
  147SAPE   C2316170   6.265   4.341   6.649 -0.2840  0.1353 -0.1774
  147SAPE   H3R16171   6.371   4.333   6.680 -0.4675 -3.9257 -0.0894
  147SAPE   H3S16172   6.266   4.298   6.547  0.2036  2.1069 -1.0516
  147SAPE   C2416173   6.172   4.272   6.746  0.4460 -0.2953 -0.7991
  147SAPE   H4R16174   6.070   4.275   6.704  0.0234  1.4776  0.2332
  147SAPE   H4S16175   6.181   4.329   6.841  0.7874  0.9505 -1.5487
  147SAPE   C2516176   6.228   4.130   6.765  0.0400 -0.5948 -0.1694
  147SAPE   H5R16177   6.330   4.117   6.724 -0.1227  0.4642 -0.9438
  147SAPE   C2616178   6.145   4.031   6.808 -0.2131  0.6009 -0.0044
  147SAPE   H6R16179   6.180   3.927   6.811  1.3183  1.1119  1.8043
  147SAPE   C2716180   6.004   4.038   6.852 -0.3728 -0.1647 -0.4161
  147SAPE   H7R16181   5.954   3.939   6.844 -0.0592 -0.5471  1.6452
  147SAPE   H7S16182   5.944   4.080   6.769  1.1983 -1.5482 -2.3667
  147SAPE   C2816183   5.981   4.081   6.992  0.1410  0.1062  0.2921
  147SAPE   H8R16184   6.017   4.183   7.014  0.6039 -0.1485  0.7162
  147SAPE   C2916185   5.935   4.005   7.094 -0.0068  0.1301 -0.0799
  147SAPE   H9R16186   5.908   4.056   7.187  2.8050  1.8160 -0.0985
  147SAPE  C21016187   5.895   3.859   7.100  0.2254  0.1102  0.2386
  147SAPE  H10R16188   5.891   3.811   7.000 -0.5788 -2.8570  1.5686
  147SAPE  H10S16189   5.791   3.844   7.137 -0.0159 -0.3903 -0.6229
  147SAPE  C21116190   5.985   3.768   7.182 -0.6314 -0.0332 -0.2136
  147SAPE  H11R16191   6.079   3.740   7.132 -0.8483 -2.2071  0.4947
  147SAPE  C21216192   5.968   3.733   7.308 -0.2017 -0.3283 -0.2822
  147SAPE  H12R16193   6.043   3.662   7.344 -0.7818 -1.2549 -0.8694
  147SAPE  C21316194   5.856   3.761   7.406  0.7000  0.2377  0.2474
  147SAPE  H13R16195   5.805   3.666   7.435  2.1755 -0.5919  0.1798
  147SAPE  H13S16196   5.774   3.827   7.371  0.8255  0.9903  1.3189
  147SAPE  C21416197   5.920   3.836   7.520  0.1673  0.2789 -0.2506
  147SAPE  H14R16198   6.019   3.876   7.497  0.0831  1.7603  1.7136
  147SAPE  C21516199   5.871   3.850   7.645  0.3507 -0.1958 -0.4897
  147SAPE  H15R16200   5.921   3.914   7.720 -2.2989  2.3011 -0.6842
  147SAPE  C21616201   5.742   3.795   7.699  0.4415 -0.1171 -0.1492
  147SAPE  H16R16202   5.752   3.718   7.778  1.4159 -0.7949 -0.9088
  147SAPE  H16S16203   5.670   3.754   7.625 -1.7685  0.4743  1.5729
  147SAPE  C21716204   5.663   3.916   7.753 -0.1323  0.4231  0.1313
  147SAPE  H17R16205   5.643   3.986   7.669 -1.3010  0.5898  0.5337
  147SAPE  H17S16206   5.719   3.971   7.831 -0.7558  0.4044  0.5972
  147SAPE  C21816207   5.538   3.879   7.826  0.1010 -0.2688 -0.2150
  147SAPE  H18R16208   5.485   3.802   7.767  2.7092 -3.0950  0.8120
  147SAPE  H18S16209   5.476   3.970   7.841 -1.6183 -1.1187 -1.7785
  147SAPE  C21916210   5.548   3.806   7.960  0.2142  0.6322 -0.1428
  147SAPE  H19R16211   5.593   3.876   8.033 -3.4065  0.0646  2.9251
  147SAPE  H19S16212   5.621   3.722   7.953 -0.3994  0.0726  0.0480
  147SAPE  C22016213   5.420   3.741   8.005  0.3448 -0.1101  0.5693
  147SAPE  H20R16214   5.367   3.701   7.916 -0.7803  2.2818  0.0615
  147SAPE  H20S16215   5.348   3.819   8.039  1.8632  1.6824 -0.1845
  147SAPE  H20T16216   5.428   3.665   8.086 -0.4203 -0.6958  0.1083
  147SAPE   C3316217   6.524   4.858   7.076 -0.2651  0.4626  0.9474
  147SAPE   H3X16218   6.419   4.865   7.041 -0.7317 -0.9479  1.9825
  147SAPE   H3Y16219   6.568   4.960   7.073  0.2853  0.2004 -0.7476
  147SAPE   C3416220   6.533   4.811   7.225  0.3936 -0.2966 -0.2861
  147SAPE   H4X16221   6.446   4.743   7.237  0.4393 -1.0065 -3.2144
  147SAPE   H4Y16222   6.521   4.889   7.303  0.1033 -0.8930  0.2764
  147SAPE   C3516223   6.657   4.733   7.258  0.3602  0.0544 -0.5760
  147SAPE   H5X16224   6.754   4.777   7.230  0.4110  0.5042  0.2709
  147SAPE   H5Y16225   6.644   4.643   7.194 -2.9426  1.6572 -2.4057
  147SAPE   C3616226   6.663   4.675   7.395  0.6355 -0.1907 -0.3016
  147SAPE   H6X16227   6.574   4.615   7.422 -0.3982  1.8900  1.2168
  147SAPE   H6Y16228   6.671   4.751   7.476 -0.8376 -0.3108 -0.0159
  147SAPE   C3716229   6.784   4.585   7.399 -0.7373  0.3096 -0.1303
  147SAPE   H7X16230   6.880   4.637   7.377 -0.8886  0.2890 -0.8481
  147SAPE   H7Y16231   6.774   4.509   7.318  0.4673 -1.0433  0.9262
  147SAPE   C3816232   6.786   4.509   7.531 -0.5133  0.3921 -0.7081
  147SAPE   H8X16233   6.844   4.417   7.509  1.7199  2.0415 -2.3560
  147SAPE   H8Y16234   6.680   4.486   7.554 -0.2737  0.4078  0.4459
  147SAPE   C3916235   6.862   4.575   7.647 -0.0741  0.3484 -0.1142
  147SAPE   H9X16236   6.971   4.570   7.623  0.0524 -2.2846  0.6735
  147SAPE   H9Y16237   6.842   4.510   7.735 -2.9279  1.4821  0.1672
  147SAPE  C31016238   6.821   4.716   7.698  0.2730 -0.6792  0.0447
  147SAPE  H10X16239   6.711   4.730   7.702  0.4688  0.9972  0.6876
  147SAPE  H10Y16240   6.866   4.788   7.628 -0.5443  0.6196  0.8034
  147SAPE  C31116241   6.868   4.750   7.838 -0.1036 -0.1679  0.4303
  147SAPE  H11X16242   6.812   4.678   7.901 -1.1954  0.6630  0.4522
  147SAPE  H11Y16243   6.829   4.850   7.868 -2.1237 -1.1783  1.4105
  147SAPE  C31216244   7.018   4.729   7.856  1.0428 -0.3710 -0.3388
  147SAPE  H12X16245   7.053   4.807   7.785 -0.6135  0.7552  0.0258
  147SAPE  H12Y16246   7.042   4.627   7.819  3.2683 -0.0206 -0.0167
  147SAPE  C31316247   7.067   4.774   7.998 -0.3539 -0.1596  0.0334
  147SAPE  H13X16248   7.075   4.687   8.067 -0.4345 -0.5211 -0.4156
  147SAPE  H13Y16249   6.996   4.847   8.042  0.1114 -0.0372  0.6045
  147SAPE  C31416250   7.208   4.835   7.980  0.0838 -0.7938 -0.2060
  147SAPE  H14X16251   7.207   4.902   7.891  0.9645 -0.5575 -0.0519
  147SAPE  H14Y16252   7.276   4.756   7.942  3.1878  0.4795  2.2116
  147SAPE  C31516253   7.277   4.883   8.108  0.2476 -0.7925  0.0879
  147SAPE  H15X16254   7.378   4.919   8.079  1.3046 -2.4038  1.5084
  147SAPE  H15Y16255   7.297   4.792   8.168  1.7707 -1.2807 -1.0831
  147SAPE  C31616256   7.200   4.992   8.191 -0.2271 -0.4973 -0.2013
  147SAPE  H16X16257   7.111   4.954   8.245 -0.1848  2.4501  2.2540
  147SAPE  H16Y16258   7.156   5.065   8.120 -3.6241  1.3604  3.3809
  147SAPE  C31716259   7.265   5.078   8.298 -0.4167 -0.7107 -0.4537
  147SAPE  H17X16260   7.186   5.146   8.335  1.1726  1.7885 -1.3848
  147SAPE  H17Y16261   7.340   5.144   8.250 -0.0660 -0.7144  0.0806
  147SAPE  C31816262   7.348   5.010   8.408 -0.2528  0.2960  0.1733
  147SAPE  H18X16263   7.302   4.916   8.444 -1.1121  0.7188  0.1967
  147SAPE  H18Y16264   7.368   5.070   8.499  0.9442 -0.8938  0.7221
  147SAPE  H18Z16265   7.450   4.981   8.374  0.3825  2.7362 -0.2597
  148SAPE     N16266   6.734   3.731   6.288 -0.5735  0.6542  0.6320
  148SAPE   HN116267   6.775   3.786   6.366  0.5834  2.7172 -1.3273
  148SAPE   HN216268   6.713   3.631   6.309  1.8614 -0.7648 -2.7461
  148SAPE   HN316269   6.808   3.739   6.216 -1.0745  2.2662  0.2563
  148SAPE   C1216270   6.621   3.801   6.237  0.6938  0.3326  0.3446
  148SAPE  H12A16271   6.539   3.789   6.311  0.7558 -1.1866  0.1958
  148SAPE  H12B16272   6.587   3.757   6.141  2.7655  1.5713 -1.0366
  148SAPE   C1116273   6.648   3.950   6.215 -1.0291  0.6689 -0.1127
  148SAPE  H11A16274   6.555   4.005   6.189 -1.8314 -0.5652  0.0480
  148SAPE  H11B16275   6.711   3.957   6.124 -1.6679 -0.3898 -0.6595
  148SAPE     P16276   6.619   4.090   6.429  0.6550 -0.2248  0.1245
  148SAPE   O1316277   6.548   4.201   6.356  0.0537  0.0603  0.3000
  148SAPE   O1416278   6.529   3.994   6.492  0.2061  0.1240 -0.3167
  148SAPE   O1216279   6.720   4.006   6.332  0.3034  0.2302  1.0204
  148SAPE   O1116280   6.720   4.163   6.523  0.1131  0.5225 -0.1052
  148SAPE    C116281   6.685   4.274   6.602 -0.1629 -0.0640 -0.0276
  148SAPE    HA16282   6.699   4.369   6.546  1.3750  0.8105  1.7530
  148SAPE    HB16283   6.578   4.281   6.632 -0.0104  3.3503  0.1448
  148SAPE    C216284   6.768   4.277   6.728 -0.4652  0.3536 -0.0773
  148SAPE    HS16285   6.877   4.274   6.705 -0.4839 -0.9824 -0.1038
  148SAPE   O2116286   6.722   4.165   6.814  0.1956  0.0868 -0.4726
  148SAPE   C2116287   6.800   4.059   6.814  0.1450 -0.1951  0.3068
  148SAPE   O2216288   6.900   4.041   6.749 -0.2900 -0.0010 -0.4703
  148SAPE   C2216289   6.733   3.963   6.904  0.1668  0.1830  0.6360
  148SAPE   H2R16290   6.750   3.997   7.008  0.3507 -0.7642  0.9314
  148SAPE   H2S16291   6.624   3.953   6.887  0.3461  0.6998 -0.9460
  148SAPE    C316292   6.747   4.408   6.805 -0.2573 -0.4729 -0.1514
  148SAPE    HX16293   6.645   4.405   6.850 -0.6652 -0.9888 -1.0616
  148SAPE    HY16294   6.739   4.495   6.735 -0.2883 -1.3960 -1.3300
  148SAPE   O3116295   6.845   4.421   6.909  0.2102 -0.0918  0.9777
  148SAPE   C3116296   6.918   4.532   6.902  0.1470 -0.0853  0.2519
  148SAPE   O3216297   6.896   4.624   6.826 -0.3595 -0.2430 -0.1404
  148SAPE   C3216298   7.041   4.519   6.993  0.7920  0.0636  0.1051
  148SAPE   H2X16299   7.105   4.595   6.942 -0.5924  0.9130 -0.4227
  148SAPE   H2Y16300   7.079   4.415   6.999  0.3069 -0.0663  1.4428
  148SAPE   C2316301   6.789   3.818   6.910  0.2699 -0.7812 -0.2240
  148SAPE   H3R16302   6.899   3.823   6.924  0.0878 -1.1289  1.5018
  148SAPE   H3S16303   6.772   3.769   6.812 -2.2548  1.1076 -0.8566
  148SAPE   C2416304   6.720   3.727   7.015 -0.3184  0.0004  0.5717
  148SAPE   H4R16305   6.739   3.776   7.113  1.3054 -1.6729  1.1424
  148SAPE   H4S16306   6.758   3.623   7.005 -0.7505  0.0001 -1.5185
  148SAPE   C2516307   6.571   3.718   6.978  0.0607  0.8158  0.2486
  148SAPE   H5R16308   6.555   3.668   6.881  0.3087 -1.0744  1.1319
  148SAPE   C2616309   6.460   3.762   7.044  0.5236 -0.0029 -0.5265
  148SAPE   H6R16310   6.365   3.748   6.991  0.9865 -1.7202 -0.9848
  148SAPE   C2716311   6.455   3.826   7.179 -0.2290  0.1863 -0.0660
  148SAPE   H7R16312   6.548   3.877   7.212  0.2589  0.2571 -1.5011
  148SAPE   H7S16313   6.450   3.742   7.252  2.5261  0.1365  0.1576
  148SAPE   C2816314   6.344   3.922   7.210 -0.2028 -0.6586  0.2228
  148SAPE   H8R16315   6.247   3.873   7.225 -0.0856 -0.7292  0.7895
  148SAPE   C2916316   6.347   4.055   7.203  0.4239  0.1108  0.2155
  148SAPE   H9R16317   6.256   4.116   7.215  1.9466  2.5725 -0.0343
  148SAPE  C21016318   6.468   4.131   7.160  0.3692  0.5677  0.7068
  148SAPE  H10R16319   6.556   4.066   7.146 -0.5521 -0.4425 -0.6218
  148SAPE  H10S16320   6.505   4.201   7.238  2.4304 -0.0860  0.3762
  148SAPE  C21116321   6.444   4.203   7.032 -0.2857 -0.8954  0.3905
  148SAPE  H11R16322   6.455   4.150   6.936 -2.7050  0.2116 -0.6032
  148SAPE  C21216323   6.406   4.332   7.024 -0.6500  0.0000  0.3743
  148SAPE  H12R16324   6.410   4.383   6.927  0.1607  0.3655  0.5958
  148SAPE  C21316325   6.388   4.426   7.141  0.0764 -0.5327 -1.6055
  148SAPE  H13R16326   6.465   4.506   7.146 -1.7741  1.2713  1.7235
  148SAPE  H13S16327   6.405   4.375   7.239 -2.0063  0.2905 -0.7582
  148SAPE  C21416328   6.248   4.486   7.126 -0.5643 -0.5969 -0.1585
  148SAPE  H14R16329   6.212   4.506   7.024  0.1674  1.8747 -0.0109
  148SAPE  C21516330   6.183   4.534   7.237 -0.1019 -0.2599  0.8627
  148SAPE  H15R16331   6.087   4.588   7.231  0.6475  1.1848  1.3647
  148SAPE  C21616332   6.239   4.537   7.374  0.4627  0.1668 -0.0804
  148SAPE  H16R16333   6.243   4.640   7.415  0.4951  0.1623 -0.0730
  148SAPE  H16S16334   6.347   4.514   7.378  0.8513  1.7717 -0.5414
  148SAPE  C21716335   6.163   4.426   7.458 -0.8837 -0.1703  0.6313
  148SAPE  H17R16336   6.229   4.403   7.545  0.3683  0.2543 -0.1863
  148SAPE  H17S16337   6.170   4.334   7.397 -0.6701  0.3959 -0.2053
  148SAPE  C21816338   6.020   4.451   7.490 -0.3081 -0.4368 -0.1205
  148SAPE  H18R16339   5.954   4.482   7.405  0.3936 -3.3125 -1.8564
  148SAPE  H18S16340   6.029   4.526   7.571 -1.6675 -1.4939  1.0731
  148SAPE  C21916341   5.949   4.335   7.552  0.0207  0.5173  0.6292
  148SAPE  H19R16342   5.848   4.371   7.580 -0.4112 -0.9255  1.0542
  148SAPE  H19S16343   6.002   4.309   7.646  0.5701  1.7720  0.6844
  148SAPE  C22016344   5.937   4.204   7.469 -0.7383  0.0402  1.0013
  148SAPE  H20R16345   5.903   4.225   7.366 -1.4031 -2.4360  0.6528
  148SAPE  H20S16346   5.870   4.131   7.520  0.5875 -1.2690  0.9458
  148SAPE  H20T16347   6.038   4.156   7.474 -1.0312 -0.4979  2.0068
  148SAPE   C3316348   7.022   4.564   7.139 -0.0310 -0.0804 -1.1003
  148SAPE   H3X16349   6.944   4.502   7.189 -2.3616  0.5218 -3.7034
  148SAPE   H3Y16350   6.981   4.667   7.133  3.5682  1.5364 -0.6309
  148SAPE   C3416351   7.160   4.551   7.209  0.9004 -0.2636 -0.1123
  148SAPE   H4X16352   7.242   4.602   7.156  3.1274 -2.8693  0.5703
  148SAPE   H4Y16353   7.207   4.450   7.205 -1.3464 -1.3126 -2.7289
  148SAPE   C3516354   7.156   4.599   7.354 -0.5852 -0.2283  0.6378
  148SAPE   H5X16355   7.083   4.544   7.416 -0.4206  0.3650  1.3776
  148SAPE   H5Y16356   7.131   4.707   7.365 -1.2433 -0.2659 -0.3434
  148SAPE   C3616357   7.285   4.563   7.415 -0.3082  0.8989  0.1094
  148SAPE   H6X16358   7.374   4.600   7.360 -1.4458  3.1977 -0.3045
  148SAPE   H6Y16359   7.299   4.452   7.419  0.2109  0.9875  1.2381
  148SAPE   C3716360   7.301   4.614   7.561 -0.2875 -0.3751  0.1743
  148SAPE   H7X16361   7.233   4.552   7.622 -1.9251  0.4902 -0.7096
  148SAPE   H7Y16362   7.266   4.719   7.553  0.5298 -0.1783 -1.2244
  148SAPE   C3816363   7.444   4.616   7.604  0.5091  0.1654 -0.8475
  148SAPE   H8X16364   7.510   4.677   7.539 -0.0589  0.8333 -0.8013
  148SAPE   H8Y16365   7.480   4.512   7.621 -0.2139 -0.0664 -0.7078
  148SAPE   C3916366   7.453   4.682   7.741  1.1112 -0.1653 -0.0104
  148SAPE   H9X16367   7.382   4.625   7.805 -0.0527  2.5422  1.2875
  148SAPE   H9Y16368   7.416   4.787   7.740  1.2740 -0.0595  2.0198
  148SAPE  C31016369   7.591   4.679   7.807 -0.0446 -0.1068  0.2983
  148SAPE  H10X16370   7.673   4.723   7.747  0.4610  2.2826  2.5727
  148SAPE  H10Y16371   7.620   4.573   7.826  1.5337  0.1973 -0.3098
  148SAPE  C31116372   7.597   4.753   7.942  0.3784 -0.1148 -0.5192
  148SAPE  H11X16373   7.527   4.699   8.009 -0.3273 -1.2645 -2.0939
  148SAPE  H11Y16374   7.569   4.858   7.919  2.4393  0.3802 -0.9620
  148SAPE  C31216375   7.731   4.748   8.014 -0.0950 -0.5000 -0.4340
  148SAPE  H12X16376   7.802   4.799   7.945  0.4126  0.8016  0.9849
  148SAPE  H12Y16377   7.755   4.644   8.044  0.1620  0.2126  2.0250
  148SAPE  C31316378   7.729   4.816   8.149  0.2429  0.0753 -0.4292
  148SAPE  H13X16379   7.690   4.736   8.217 -0.0100  0.8178  0.3153
  148SAPE  H13Y16380   7.661   4.904   8.150 -4.0715 -2.9182 -0.5309
  148SAPE  C31416381   7.863   4.864   8.199  1.0018 -0.6000  0.1290
  148SAPE  H14X16382   7.917   4.941   8.139 -0.8518 -0.5322 -1.6052
  148SAPE  H14Y16383   7.934   4.780   8.187 -0.1630 -1.5924  0.0087
  148SAPE  C31516384   7.842   4.899   8.350  0.4662 -0.1270 -0.3528
  148SAPE  H15X16385   7.804   4.809   8.404 -0.9124  0.4074 -0.3859
  148SAPE  H15Y16386   7.758   4.971   8.359  1.5058  1.0485  0.0743
  148SAPE  C31616387   7.966   4.960   8.410 -0.4158  0.3888  1.2577
  148SAPE  H16X16388   7.993   5.047   8.347 -3.1111 -1.2510 -2.5533
  148SAPE  H16Y16389   8.051   4.890   8.394 -1.7572 -1.2777  1.1745
  148SAPE  C31716390   7.964   4.983   8.559  0.1303 -0.3846  0.0109
  148SAPE  H17X16391   8.052   5.049   8.579 -1.2177  1.3155  0.5689
  148SAPE  H17Y16392   7.983   4.889   8.614  2.5708 -0.1634 -0.3167
  148SAPE  C31816393   7.833   5.051   8.602  0.1119  0.3431  0.0120
  148SAPE  H18X16394   7.798   5.136   8.539 -2.5423 -0.3487  0.4417
  148SAPE  H18Y16395   7.853   5.092   8.704 -0.7879  1.0574 -0.0781
  148SAPE  H18Z16396   7.757   4.970   8.600 -0.3886  0.7646  1.0171
  149SAPE     N16397   6.736   5.700   6.538  0.2088 -0.0440  0.0173
  149SAPE   HN116398   6.800   5.675   6.460  0.5636  0.9862 -0.0399
  149SAPE   HN216399   6.799   5.738   6.611  0.6629  0.9375 -0.8503
  149SAPE   HN316400   6.693   5.621   6.590  0.1615  0.8170  1.3103
  149SAPE   C1216401   6.634   5.792   6.481  0.8750 -0.1990  0.3865
  149SAPE  H12A16402   6.599   5.859   6.563  1.3299  0.8897 -0.2904
  149SAPE  H12B16403   6.549   5.730   6.445 -0.1351  1.9487 -1.1526
  149SAPE   C1116404   6.688   5.886   6.371  0.4469 -0.0236  0.2054
  149SAPE  H11A16405   6.607   5.958   6.345  0.7598 -0.4083 -2.0850
  149SAPE  H11B16406   6.712   5.819   6.286 -0.2591 -1.0052  0.7668
  149SAPE     P16407   6.797   6.092   6.502 -0.0008  0.1779 -0.0249
  149SAPE   O1316408   6.934   6.155   6.484  0.5527 -0.6881 -0.1653
  149SAPE   O1416409   6.681   6.166   6.458  0.0308  0.5331 -0.4241
  149SAPE   O1216410   6.807   5.960   6.414 -0.3589  0.4098 -0.2451
  149SAPE   O1116411   6.775   6.047   6.654  0.2378  0.1488  0.5820
  149SAPE    C116412   6.716   6.146   6.736 -0.3822 -0.5088 -0.2001
  149SAPE    HA16413   6.741   6.252   6.714  2.0793 -0.4170  2.4234
  149SAPE    HB16414   6.606   6.138   6.722 -0.4434 -1.0127  0.5236
  149SAPE    C216415   6.748   6.127   6.886  0.8078  0.0767  0.6851
  149SAPE    HS16416   6.693   6.213   6.929 -2.0891 -1.4542  0.3074
  149SAPE   O2116417   6.892   6.136   6.909 -0.2147  0.5837 -0.3706
  149SAPE   C2116418   6.946   6.252   6.880 -0.0873  0.1420 -0.4612
  149SAPE   O2216419   6.883   6.356   6.861 -0.9815  0.4359  0.1303
  149SAPE   C2216420   7.088   6.224   6.838 -0.5630  0.4859 -0.7575
  149SAPE   H2R16421   7.124   6.124   6.867 -0.5436  0.9612  0.9483
  149SAPE   H2S16422   7.078   6.233   6.727  2.6443  0.7331 -1.1159
  149SAPE    C316423   6.684   5.995   6.935 -0.3131  0.2089 -0.7208
  149SAPE    HX16424   6.731   5.903   6.895  1.3309  1.0127 -0.7385
  149SAPE    HY16425   6.580   5.993   6.897 -0.5068 -1.0528 -0.1628
  149SAPE   O3116426   6.682   5.993   7.080 -0.1813 -0.1849 -0.3584
  149SAPE   C3116427   6.654   5.872   7.134 -1.1530  0.5356 -0.2544
  149SAPE   O3216428   6.596   5.784   7.073 -0.3996  0.1696 -0.0542
  149SAPE   C3216429   6.694   5.879   7.287 -0.3440 -0.5005  0.7452
  149SAPE   H2X16430   6.631   5.954   7.339 -1.2637 -1.6875  1.4042
  149SAPE   H2Y16431   6.794   5.925   7.300 -0.8893  0.6503  1.0505
  149SAPE   C2316432   7.184   6.329   6.895 -0.1165 -0.5101 -0.1021
  149SAPE   H3R16433   7.138   6.430   6.889 -1.4736 -1.1404 -0.7570
  149SAPE   H3S16434   7.283   6.327   6.847  1.3814 -2.8122  2.7550
  149SAPE   C2416435   7.207   6.305   7.044 -0.2182  0.3589  0.0255
  149SAPE   H4R16436   7.252   6.203   7.050 -0.1849  0.3731  0.0145
  149SAPE   H4S16437   7.109   6.292   7.094 -0.0637 -0.6904  0.0786
  149SAPE   C2516438   7.294   6.405   7.114 -0.7064 -0.7240 -0.3762
  149SAPE   H5R16439   7.388   6.438   7.067 -1.8800  3.2076 -0.3297
  149SAPE   C2616440   7.256   6.463   7.233  0.3443  0.6960 -0.7808
  149SAPE   H6R16441   7.330   6.529   7.282 -0.9672  1.1679  0.6499
  149SAPE   C2716442   7.136   6.437   7.321  0.0650 -0.1816 -0.1043
  149SAPE   H7R16443   7.038   6.403   7.280  0.6548  0.8250 -2.5322
  149SAPE   H7S16444   7.106   6.533   7.368  1.5133 -0.0127  0.5228
  149SAPE   C2816445   7.178   6.344   7.429 -0.6845  0.6213 -0.5996
  149SAPE   H8R16446   7.175   6.237   7.404  0.9542  0.1294  1.0913
  149SAPE   C2916447   7.227   6.370   7.548  0.3394 -0.6437 -0.0784
  149SAPE   H9R16448   7.261   6.292   7.619 -2.4660 -0.9166  1.0845
  149SAPE  C21016449   7.244   6.511   7.605  0.1635  0.5631 -0.8271
  149SAPE  H10R16450   7.152   6.572   7.617 -0.4721  0.0009 -2.5770
  149SAPE  H10S16451   7.307   6.579   7.545  1.5518  2.4023  2.4483
  149SAPE  C21116452   7.312   6.510   7.737 -0.0571  0.0212  0.0716
  149SAPE  H11R16453   7.421   6.526   7.737 -0.3573  2.5242  0.3456
  149SAPE  C21216454   7.257   6.498   7.859  0.1984  0.3320 -0.2408
  149SAPE  H12R16455   7.327   6.505   7.944 -0.4417 -0.8900  0.4254
  149SAPE  C21316456   7.108   6.486   7.895 -0.2193  0.4946 -0.0661
  149SAPE  H13R16457   7.101   6.403   7.968  1.7593  1.4558  1.2989
  149SAPE  H13S16458   7.047   6.453   7.808  1.2587 -2.0700 -0.2325
  149SAPE  C21416459   7.050   6.595   7.975 -0.1874  0.5612 -0.2718
  149SAPE  H14R16460   7.052   6.584   8.084  0.1285 -0.3057 -0.3601
  149SAPE  C21516461   6.988   6.702   7.928 -0.5995 -0.5069 -0.7379
  149SAPE  H15R16462   6.952   6.763   8.012 -1.6587  1.5305 -2.5724
  149SAPE  C21616463   6.956   6.736   7.785  0.0172  0.0025 -0.7799
  149SAPE  H16R16464   6.854   6.774   7.761  0.1843  0.1696 -1.2464
  149SAPE  H16S16465   6.954   6.639   7.729 -0.2541  0.5174 -1.6830
  149SAPE  C21716466   7.069   6.828   7.720  0.7024 -0.4562 -0.0564
  149SAPE  H17R16467   7.056   6.810   7.611 -0.6188 -1.4684  0.2334
  149SAPE  H17S16468   7.171   6.810   7.762  1.2004 -1.0514 -1.4678
  149SAPE  C21816469   7.015   6.980   7.743  0.3553  0.9140 -0.6365
  149SAPE  H18R16470   7.031   6.995   7.852  2.3416  1.7793 -0.9987
  149SAPE  H18S16471   6.908   6.987   7.716  0.7483  1.2772 -2.1643
  149SAPE  C21916472   7.089   7.083   7.659  0.4064 -0.8898 -0.5976
  149SAPE  H19R16473   7.195   7.099   7.689  0.3947  0.9020 -1.4054
  149SAPE  H19S16474   7.055   7.185   7.686 -1.7474 -1.8348  0.5834
  149SAPE  C22016475   7.075   7.066   7.506 -0.6126  0.6151 -0.5576
  149SAPE  H20R16476   7.148   7.134   7.455 -0.3342 -0.1307 -1.1760
  149SAPE  H20S16477   6.977   7.092   7.460 -0.4400  0.9030 -0.7716
  149SAPE  H20T16478   7.094   6.959   7.481 -0.3171  0.2179  1.2455
  149SAPE   C3316479   6.683   5.743   7.356 -0.0885 -0.1244  0.5774
  149SAPE   H3X16480   6.777   5.687   7.335 -0.1688  0.1944 -0.6755
  149SAPE   H3Y16481   6.602   5.678   7.319  1.5563 -0.6723 -2.3865
  149SAPE   C3416482   6.659   5.764   7.513  0.1035  0.1655  0.8432
  149SAPE   H4X16483   6.557   5.808   7.526  1.3966  3.1403  1.7831
  149SAPE   H4Y16484   6.742   5.826   7.553  0.4221 -0.8775  1.8356
  149SAPE   C3516485   6.669   5.630   7.582  0.2099  0.2680 -0.1667
  149SAPE   H5X16486   6.774   5.602   7.560 -0.3053 -0.6454 -1.5755
  149SAPE   H5Y16487   6.601   5.552   7.542 -0.4155 -0.3068  1.9005
  149SAPE   C3616488   6.663   5.632   7.737  0.4488 -0.0823  0.3460
  149SAPE   H6X16489   6.714   5.721   7.781  2.7669 -0.5158 -1.2760
  149SAPE   H6Y16490   6.730   5.547   7.764  1.6036  0.5620 -0.3986
  149SAPE   C3716491   6.518   5.608   7.786 -0.2295  0.4778 -0.4905
  149SAPE   H7X16492   6.487   5.507   7.754 -1.2286  0.3199  0.8666
  149SAPE   H7Y16493   6.457   5.690   7.744 -1.1256 -0.2043 -0.5363
  149SAPE   C3816494   6.508   5.621   7.939 -0.1856  0.1562  0.1072
  149SAPE   H8X16495   6.537   5.720   7.981 -0.7137 -0.2481  1.4930
  149SAPE   H8Y16496   6.570   5.542   7.988  0.0225  1.2463  1.6951
  149SAPE   C3916497   6.361   5.590   7.981 -0.6593 -0.5083 -0.7908
  149SAPE   H9X16498   6.337   5.500   7.921 -1.4036  0.7030 -2.4198
  149SAPE   H9Y16499   6.296   5.678   7.960 -0.9914 -0.2549  1.1318
  149SAPE  C31016500   6.363   5.572   8.134  0.2811  1.1317 -0.5957
  149SAPE  H10X16501   6.428   5.646   8.186  2.0293 -1.6150  1.4047
  149SAPE  H10Y16502   6.406   5.470   8.144  0.8441  1.2143 -1.9203
  149SAPE  C31116503   6.228   5.596   8.201 -0.1939 -0.1920  0.3417
  149SAPE  H11X16504   6.147   5.542   8.148 -0.0040 -1.9526  1.7720
  149SAPE  H11Y16505   6.210   5.704   8.182 -0.0758 -0.3550 -0.7379
  149SAPE  C31216506   6.228   5.568   8.354 -0.1111 -0.0264  0.1795
  149SAPE  H12X16507   6.158   5.636   8.406 -0.0228 -1.0412  1.7015
  149SAPE  H12Y16508   6.332   5.587   8.390 -0.9660 -0.3047  3.0507
  149SAPE  C31316509   6.169   5.428   8.389  0.4969  0.2667  0.8261
  149SAPE  H13X16510   6.251   5.358   8.419 -0.5935 -0.9894  0.9746
  149SAPE  H13Y16511   6.119   5.386   8.300 -1.3046 -0.0965  1.9666
  149SAPE  C31416512   6.061   5.437   8.493 -0.3841  0.0992 -0.8144
  149SAPE  H14X16513   6.002   5.531   8.489 -1.5754 -0.5119  1.2613
  149SAPE  H14Y16514   6.106   5.438   8.595 -2.0162  0.3831 -0.0619
  149SAPE  C31516515   5.963   5.314   8.479  0.0129 -0.2176 -0.4419
  149SAPE  H15X16516   5.911   5.319   8.381 -1.7942  1.5091  0.5362
  149SAPE  H15Y16517   5.872   5.340   8.537 -1.0007  0.4942 -2.2742
  149SAPE  C31616518   6.021   5.179   8.500 -0.3220 -0.2166 -0.1275
  149SAPE  H16X16519   6.129   5.175   8.477 -0.6858 -2.5621 -1.7984
  149SAPE  H16Y16520   5.965   5.109   8.434  0.0356  1.5930 -2.4686
  149SAPE  C31716521   6.014   5.134   8.646  0.6023 -0.3872 -0.9216
  149SAPE  H17X16522   5.906   5.137   8.674 -0.0384 -1.2324 -3.0734
  149SAPE  H17Y16523   6.058   5.208   8.716 -0.4806 -1.6262  1.1686
  149SAPE  C31816524   6.077   4.996   8.665  0.3536 -0.4296 -0.3432
  149SAPE  H18X16525   6.049   4.931   8.579 -1.8606 -0.6962  0.5109
  149SAPE  H18Y16526   6.044   4.942   8.755 -1.3338 -3.1465 -2.4468
  149SAPE  H18Z16527   6.186   5.008   8.684 -0.1712  3.7842  1.2102
  150SAPE     N16528   4.817   5.910   6.456 -0.2527 -0.0070  0.4858
  150SAPE   HN116529   4.789   5.861   6.543 -0.7593 -0.7342 -0.0670
  150SAPE   HN216530   4.728   5.945   6.414  0.8287  0.9765 -1.1108
  150SAPE   HN316531   4.858   5.840   6.390 -1.3167 -0.8633  0.7043
  150SAPE   C1216532   4.939   6.006   6.479 -0.0168 -0.0439  0.5173
  150SAPE  H12A16533   4.976   6.042   6.381 -3.1636 -0.6727 -1.0486
  150SAPE  H12B16534   5.024   5.948   6.520  1.2320  0.7501 -0.8406
  150SAPE   C1116535   4.907   6.119   6.577 -0.3799 -0.6705 -0.9126
  150SAPE  H11A16536   4.996   6.177   6.608 -1.8451  0.7998  0.7267
  150SAPE  H11B16537   4.869   6.080   6.673 -1.4101  0.5420 -0.8021
  150SAPE     P16538   4.845   6.320   6.415  0.1387 -0.4786 -0.3391
  150SAPE   O1316539   4.925   6.278   6.298  0.8377 -0.5751  0.6839
  150SAPE   O1416540   4.715   6.381   6.388 -0.4628 -0.2676  0.4015
  150SAPE   O1216541   4.814   6.210   6.519  0.0978  0.0048 -0.8665
  150SAPE   O1116542   4.923   6.433   6.489 -0.2902 -0.5438 -0.0032
  150SAPE    C116543   4.900   6.458   6.631  0.3002 -0.0707  0.0212
  150SAPE    HA16544   4.795   6.486   6.656  0.1254 -0.4952 -0.2164
  150SAPE    HB16545   4.917   6.362   6.686 -3.2981  0.0394  1.6216
  150SAPE    C216546   4.997   6.562   6.695  0.4116  0.7739  0.5086
  150SAPE    HS16547   4.972   6.666   6.664 -1.1560  0.1017 -0.6200
  150SAPE   O2116548   5.131   6.525   6.662 -0.2749  0.5112  0.0649
  150SAPE   C2116549   5.208   6.628   6.663  0.3077  0.2440 -0.1354
  150SAPE   O2216550   5.175   6.743   6.672  0.4477 -0.1350 -0.7009
  150SAPE   C2216551   5.349   6.573   6.642 -0.1233  0.1660 -0.1623
  150SAPE   H2R16552   5.357   6.498   6.560  2.1017 -0.8923  0.9266
  150SAPE   H2S16553   5.399   6.664   6.603 -0.3779  0.3388 -0.0881
  150SAPE    C316554   4.983   6.567   6.848  0.0838  0.1208 -0.5282
  150SAPE    HX16555   5.047   6.648   6.890 -1.1623  0.1189  1.4945
  150SAPE    HY16556   5.014   6.467   6.884  0.6682  1.4147  2.9216
  150SAPE   O3116557   4.848   6.578   6.893 -0.4715 -0.1615 -0.2946
  150SAPE   C3116558   4.803   6.706   6.911 -0.2015  0.2619  0.2426
  150SAPE   O3216559   4.866   6.808   6.890 -0.4467 -0.1353 -0.0442
  150SAPE   C3216560   4.662   6.706   6.956 -0.0235  0.4983  0.2321
  150SAPE   H2X16561   4.636   6.605   6.994  1.1530 -0.0562 -0.3880
  150SAPE   H2Y16562   4.603   6.710   6.862  1.3526 -0.7606 -0.7232
  150SAPE   C2316563   5.424   6.531   6.777  0.8014  0.6630  0.2871
  150SAPE   H3R16564   5.429   6.615   6.849 -0.4047 -0.3927  1.6564
  150SAPE   H3S16565   5.528   6.503   6.751 -0.3157 -0.8687 -3.2187
  150SAPE   C2416566   5.360   6.408   6.837  0.3400 -0.8894 -0.7131
  150SAPE   H4R16567   5.375   6.325   6.765  1.1990 -2.0376  0.7376
  150SAPE   H4S16568   5.249   6.418   6.846  0.5540  0.5176  0.7053
  150SAPE   C2516569   5.414   6.369   6.969 -0.4215 -0.2031 -0.3414
  150SAPE   H5R16570   5.521   6.344   6.963  0.2669  2.2020  0.6340
  150SAPE   C2616571   5.350   6.379   7.085  0.0014  1.0057 -0.0807
  150SAPE   H6R16572   5.407   6.349   7.175 -1.1948  4.0469  1.8575
  150SAPE   C2716573   5.209   6.413   7.116 -0.2653  0.1733 -0.5498
  150SAPE   H7R16574   5.167   6.356   7.201  2.2819  0.5943  1.1064
  150SAPE   H7S16575   5.136   6.391   7.035  1.4692 -2.2255 -1.5915
  150SAPE   C2816576   5.184   6.559   7.152  0.2028 -0.1159 -0.2667
  150SAPE   H8R16577   5.146   6.630   7.077  0.1454  0.0007 -0.1302
  150SAPE   C2916578   5.210   6.607   7.282 -0.1384 -0.3618  0.2743
  150SAPE   H9R16579   5.209   6.716   7.298 -1.3779 -0.2415 -0.4819
  150SAPE  C21016580   5.255   6.530   7.405 -0.8928 -0.3384 -0.1695
  150SAPE  H10R16581   5.254   6.420   7.399  0.8647 -0.5316  1.9422
  150SAPE  H10S16582   5.181   6.547   7.486 -0.9502  2.2435 -0.6649
  150SAPE  C21116583   5.386   6.582   7.465 -0.1903 -0.3561 -0.0233
  150SAPE  H11R16584   5.435   6.657   7.401 -1.4312  1.6670  1.2947
  150SAPE  C21216585   5.447   6.556   7.588  0.7139 -0.5899  0.0773
  150SAPE  H12R16586   5.540   6.596   7.629  1.1593 -1.3856 -0.1399
  150SAPE  C21316587   5.388   6.448   7.680 -0.7126  0.1138 -0.4391
  150SAPE  H13R16588   5.467   6.385   7.726  0.8713  0.0667 -3.0043
  150SAPE  H13S16589   5.317   6.373   7.638 -1.8846 -0.0746  1.7443
  150SAPE  C21416590   5.311   6.526   7.782  0.2952  0.1991 -0.1325
  150SAPE  H14R16591   5.224   6.575   7.736  2.2885  3.0459 -1.1474
  150SAPE  C21516592   5.338   6.538   7.917  0.3013  0.6937  0.0208
  150SAPE  H15R16593   5.266   6.595   7.978  1.3532  2.4469 -0.3117
  150SAPE  C21616594   5.452   6.471   7.987  0.5266 -0.5218  0.0333
  150SAPE  H16R16595   5.549   6.508   7.948  1.7559 -2.2429  1.3284
  150SAPE  H16S16596   5.454   6.365   7.955 -0.0698 -0.8381  1.0263
  150SAPE  C21716597   5.433   6.461   8.138 -0.1872  0.1054 -0.3275
  150SAPE  H17R16598   5.509   6.407   8.200 -0.3850  0.9241  0.6565
  150SAPE  H17S16599   5.344   6.400   8.164  0.8181 -1.0331  0.6014
  150SAPE  C21816600   5.434   6.597   8.210 -0.8537 -0.3291 -0.0774
  150SAPE  H18R16601   5.344   6.656   8.182  0.7735  2.3263  0.0132
  150SAPE  H18S16602   5.514   6.661   8.168  0.0528  0.4063  2.5537
  150SAPE  C21916603   5.426   6.600   8.362 -0.8868 -0.4341 -0.1110
  150SAPE  H19R16604   5.327   6.553   8.381 -1.3131  0.4976  0.0474
  150SAPE  H19S16605   5.426   6.709   8.385  3.3575 -0.3247  0.2315
  150SAPE  C22016606   5.542   6.531   8.439  0.2401 -0.4663  0.1062
  150SAPE  H20R16607   5.530   6.420   8.438 -2.1476 -0.2576  0.1532
  150SAPE  H20S16608   5.528   6.556   8.546 -0.6322 -0.4150 -0.0129
  150SAPE  H20T16609   5.644   6.558   8.402  0.4714 -1.1956  0.1754
  150SAPE   C3316610   4.645   6.824   7.061  0.3844 -0.3495 -0.0997
  150SAPE   H3X16611   4.537   6.850   7.058 -0.1850 -1.8469  3.2030
  150SAPE   H3Y16612   4.706   6.910   7.027 -1.5939  1.6341  1.1204
  150SAPE   C3416613   4.682   6.760   7.198  0.0174  0.3904  0.0268
  150SAPE   H4X16614   4.763   6.684   7.202 -2.1740 -2.0805  1.1331
  150SAPE   H4Y16615   4.594   6.697   7.224  0.5493 -0.9405 -1.2880
  150SAPE   C3516616   4.709   6.856   7.311  0.1906  0.2135  0.4703
  150SAPE   H5X16617   4.620   6.922   7.322 -1.4783 -1.6621 -1.0185
  150SAPE   H5Y16618   4.794   6.925   7.289  0.9479 -0.9620 -0.4286
  150SAPE   C3616619   4.734   6.786   7.447 -0.7299 -0.0010 -0.1048
  150SAPE   H6X16620   4.797   6.695   7.439  0.8179  0.9105  1.0574
  150SAPE   H6Y16621   4.635   6.759   7.490  0.3751 -2.2216  1.1893
  150SAPE   C3716622   4.802   6.880   7.547 -0.1896 -0.1339  1.2303
  150SAPE   H7X16623   4.771   6.855   7.650  1.3140 -1.3642  1.4203
  150SAPE   H7Y16624   4.749   6.978   7.541  0.6253  0.2664  0.0996
  150SAPE   C3816625   4.957   6.880   7.523 -0.1555  0.6083 -0.5234
  150SAPE   H8X16626   4.982   6.934   7.429 -0.6747 -0.6792 -1.4364
  150SAPE   H8Y16627   4.996   6.775   7.522  1.9305  1.1798  3.0719
  150SAPE   C3916628   5.030   6.961   7.629  0.2677  0.4908 -0.1883
  150SAPE   H9X16629   4.985   7.062   7.642  0.3126  0.2962  1.6336
  150SAPE   H9Y16630   5.133   6.969   7.588  0.9753 -0.5955  1.2876
  150SAPE  C31016631   5.026   6.894   7.756  0.1294 -0.1254  0.3526
  150SAPE  H10X16632   5.068   6.792   7.743  1.6755 -0.0161  3.4952
  150SAPE  H10Y16633   4.922   6.887   7.795  0.1723  0.4716  0.5812
  150SAPE  C31116634   5.106   6.970   7.863  0.4290 -0.2499  0.4225
  150SAPE  H11X16635   5.189   7.023   7.811 -1.1660  1.9712  0.0035
  150SAPE  H11Y16636   5.153   6.897   7.932  0.7195  0.1882  0.6922
  150SAPE  C31216637   5.012   7.059   7.940  0.8457 -0.0408  0.5767
  150SAPE  H12X16638   4.946   6.986   7.991  0.2984 -0.3730 -0.5615
  150SAPE  H12Y16639   4.939   7.116   7.879  0.2742 -1.9299 -0.5905
  150SAPE  C31316640   5.070   7.152   8.049  1.0580 -0.0424 -0.5052
  150SAPE  H13X16641   5.135   7.220   7.990 -0.3856 -0.5612 -2.8082
  150SAPE  H13Y16642   5.143   7.096   8.112  1.8996  1.6143  0.0455
  150SAPE  C31416643   4.962   7.210   8.146 -0.2320 -0.3635  0.3608
  150SAPE  H14X16644   4.923   7.134   8.216 -0.4815 -0.4517  0.1275
  150SAPE  H14Y16645   4.873   7.254   8.096 -1.3556 -1.5303  1.2626
  150SAPE  C31516646   5.024   7.318   8.232  0.2199  0.0607  0.8941
  150SAPE  H15X16647   5.108   7.365   8.175  1.1148 -2.0287  0.3813
  150SAPE  H15Y16648   5.081   7.264   8.311 -0.3628  0.2327  1.4329
  150SAPE  C31616649   4.922   7.411   8.308  0.6910  0.3450  0.6930
  150SAPE  H16X16650   4.834   7.358   8.350  1.0694  0.1507  1.2463
  150SAPE  H16Y16651   4.867   7.469   8.231 -0.7883 -0.9994  0.6694
  150SAPE  C31716652   4.986   7.518   8.405 -0.4639  0.4038 -0.2901
  150SAPE  H17X16653   5.024   7.460   8.492 -0.0679 -2.7783 -2.4013
  150SAPE  H17Y16654   4.917   7.593   8.449 -0.7835  1.1685 -2.0235
  150SAPE  C31816655   5.092   7.600   8.333  0.0210  0.0639 -0.5663
  150SAPE  H18X16656   5.145   7.661   8.409 -2.8791  0.5463  1.2192
  150SAPE  H18Y16657   5.043   7.673   8.266 -1.3267 -0.2679  0.0267
  150SAPE  H18Z16658   5.173   7.543   8.281  0.9238 -1.5335  2.3491
  151SAPE     N16659   1.215   4.525   6.570  0.0289 -0.0091 -0.1480
  151SAPE   HN116660   1.226   4.624   6.597 -1.7937  0.3858 -0.7488
  151SAPE   HN216661   1.115   4.511   6.544 -0.4997  1.3660  1.0202
  151SAPE   HN316662   1.222   4.468   6.656 -0.3967  1.8601  1.1758
  151SAPE   C1216663   1.303   4.481   6.458 -0.4493 -0.2899 -0.0286
  151SAPE  H12A16664   1.278   4.552   6.377  1.2640 -0.7133 -0.9585
  151SAPE  H12B16665   1.269   4.383   6.417  0.7628 -0.7198 -0.0307
  151SAPE   C1116666   1.441   4.486   6.504 -0.2529 -0.3582 -0.0804
  151SAPE  H11A16667   1.503   4.453   6.417  0.9831  2.8567 -0.5563
  151SAPE  H11B16668   1.456   4.425   6.595  0.4527  0.0331  0.0730
  151SAPE     P16669   1.628   4.683   6.535 -0.1319  0.3142  0.3895
  151SAPE   O1316670   1.727   4.599   6.463  0.1745 -0.0570  0.2928
  151SAPE   O1416671   1.621   4.823   6.489  0.2045  0.3491  0.6109
  151SAPE   O1216672   1.480   4.621   6.526 -0.1706  0.0398  0.1291
  151SAPE   O1116673   1.667   4.677   6.693 -0.1863  0.1350 -0.0593
  151SAPE    C116674   1.674   4.549   6.756 -0.0358  0.6585 -0.2298
  151SAPE    HA16675   1.572   4.529   6.796  0.9619 -0.7369  1.7459
  151SAPE    HB16676   1.702   4.463   6.692 -0.5076 -1.5767  2.4231
  151SAPE    C216677   1.778   4.556   6.875 -0.0737 -0.8622 -0.4210
  151SAPE    HS16678   1.789   4.454   6.916 -0.2267 -1.2321 -1.2858
  151SAPE   O2116679   1.721   4.645   6.976 -0.7404 -0.3431 -0.2379
  151SAPE   C2116680   1.617   4.605   7.048  0.3167 -0.2692  0.0128
  151SAPE   O2216681   1.564   4.494   7.033 -0.0286  0.3451  0.7624
  151SAPE   C2216682   1.572   4.712   7.143  0.3153 -0.2300  0.1360
  151SAPE   H2R16683   1.525   4.789   7.078 -0.2069  0.8351  1.6965
  151SAPE   H2S16684   1.492   4.668   7.206  0.1183 -1.1473 -0.7366
  151SAPE    C316685   1.914   4.607   6.824 -0.4507  0.4004 -0.0003
  151SAPE    HX16686   1.901   4.717   6.828  1.3693  0.6365  0.6424
  151SAPE    HY16687   1.944   4.573   6.723  1.4027  1.1850  0.2269
  151SAPE   O3116688   2.020   4.575   6.918 -0.2153  0.0196  0.5970
  151SAPE   C3116689   2.114   4.669   6.936  0.1491  0.7430  0.2069
  151SAPE   O3216690   2.136   4.767   6.863 -0.4758  0.0054  0.2372
  151SAPE   C3216691   2.191   4.635   7.064 -0.0214  0.5321 -0.3054
  151SAPE   H2X16692   2.294   4.676   7.069 -0.2625  0.9778  2.0314
  151SAPE   H2Y16693   2.198   4.526   7.082  3.2016  0.9639  1.7520
  151SAPE   C2316694   1.684   4.760   7.231 -0.8149 -0.5422  0.3264
  151SAPE   H3R16695   1.779   4.779   7.177  0.3848 -2.4598  1.6471
  151SAPE   H3S16696   1.708   4.696   7.319 -1.0779  1.2557  1.7717
  151SAPE   C2416697   1.648   4.896   7.303 -1.0206  0.1543  0.0126
  151SAPE   H4R16698   1.611   4.971   7.231 -0.1084 -0.9119 -1.6522
  151SAPE   H4S16699   1.742   4.933   7.351  0.3170 -1.3492 -1.3023
  151SAPE   C2516700   1.535   4.871   7.392 -0.1202 -0.5810 -0.4523
  151SAPE   H5R16701   1.432   4.898   7.363 -0.5379 -0.0382  1.4415
  151SAPE   C2616702   1.540   4.830   7.523 -0.1150  0.1541 -0.0367
  151SAPE   H6R16703   1.449   4.812   7.582  0.6656  0.3388  1.2409
  151SAPE   C2716704   1.675   4.794   7.586 -0.2832  0.0335  0.5545
  151SAPE   H7R16705   1.720   4.870   7.653 -0.6093  0.6586  0.0791
  151SAPE   H7S16706   1.746   4.765   7.506  0.7042  2.1955  0.5685
  151SAPE   C2816707   1.644   4.676   7.664  0.7361 -0.1743  0.2294
  151SAPE   H8R16708   1.616   4.589   7.603 -1.6643 -0.2421  1.3254
  151SAPE   C2916709   1.633   4.676   7.798 -0.6850  0.1302 -0.1720
  151SAPE   H9R16710   1.596   4.582   7.841  1.9471 -0.7791  0.2927
  151SAPE  C21016711   1.648   4.794   7.895 -0.1770  0.1236 -0.0452
  151SAPE  H10R16712   1.638   4.890   7.841 -0.6014 -1.0163 -2.0836
  151SAPE  H10S16713   1.752   4.790   7.934 -1.0963 -2.1027  2.5308
  151SAPE  C21116714   1.545   4.791   7.995 -0.1967 -0.6735 -0.7663
  151SAPE  H11R16715   1.446   4.774   7.950 -0.0507 -1.7855 -0.6812
  151SAPE  C21216716   1.553   4.816   8.127 -0.1697  0.3176 -0.2408
  151SAPE  H12R16717   1.472   4.801   8.200  1.8342  0.1385  2.0995
  151SAPE  C21316718   1.686   4.838   8.200  0.3882  0.2510  0.5944
  151SAPE  H13R16719   1.682   4.944   8.234  0.0885 -0.0600  1.5501
  151SAPE  H13S16720   1.766   4.839   8.123  0.5381  0.8313  0.7516
  151SAPE  C21416721   1.719   4.743   8.309 -0.0128  0.3689  0.2063
  151SAPE  H14R16722   1.796   4.670   8.282 -1.1051 -0.0545 -1.8951
  151SAPE  C21516723   1.696   4.764   8.440 -0.1023  0.2341  1.1902
  151SAPE  H15R16724   1.721   4.682   8.508  1.4043 -1.0488 -0.7928
  151SAPE  C21616725   1.619   4.871   8.499 -0.0776  0.4686 -0.4492
  151SAPE  H16R16726   1.580   4.946   8.428 -0.8265 -0.8752 -1.4996
  151SAPE  H16S16727   1.688   4.913   8.575  0.3133 -1.7971  0.5327
  151SAPE  C21716728   1.504   4.813   8.589 -0.3910  0.1130 -0.2933
  151SAPE  H17R16729   1.424   4.765   8.528  0.4194 -0.4801 -0.9181
  151SAPE  H17S16730   1.479   4.908   8.642  2.6387  1.0536 -0.3420
  151SAPE  C21816731   1.545   4.707   8.693  0.0460  0.4787  0.1615
  151SAPE  H18R16732   1.649   4.732   8.724 -0.3274  0.6273  1.3729
  151SAPE  H18S16733   1.560   4.614   8.635  1.3143  1.7614 -1.6873
  151SAPE  C21916734   1.453   4.691   8.814  0.0702 -0.2851 -0.0439
  151SAPE  H19R16735   1.359   4.634   8.802  1.4733 -2.7405 -0.0861
  151SAPE  H19S16736   1.428   4.794   8.847  0.6065  1.0933 -3.5029
  151SAPE  C22016737   1.528   4.627   8.933 -0.2739 -0.1042 -0.1919
  151SAPE  H20R16738   1.630   4.670   8.946 -1.0171  2.0875 -1.1779
  151SAPE  H20S16739   1.470   4.630   9.027  0.3514  2.4349  0.1853
  151SAPE  H20T16740   1.552   4.521   8.906 -0.5063 -0.5063  1.1072
  151SAPE   C3316741   2.114   4.689   7.184 -0.3262 -0.0499 -0.4998
  151SAPE   H3X16742   2.065   4.788   7.175 -3.0272 -1.3165 -0.7722
  151SAPE   H3Y16743   2.195   4.704   7.259  0.5677 -0.9662 -1.2546
  151SAPE   C3416744   1.993   4.599   7.225 -1.0846  0.2752 -0.0596
  151SAPE   H4X16745   2.020   4.494   7.202 -3.1686 -0.2141 -0.4981
  151SAPE   H4Y16746   1.906   4.611   7.156  0.5136  0.0936 -2.1978
  151SAPE   C3516747   1.970   4.615   7.373  0.5630 -0.3169 -0.2281
  151SAPE   H5X16748   1.871   4.569   7.394  0.4630  0.9908  2.5996
  151SAPE   H5Y16749   1.961   4.723   7.397  0.6054 -0.1547 -0.9281
  151SAPE   C3616750   2.073   4.545   7.466 -0.1017  0.0973 -0.3986
  151SAPE   H6X16751   2.175   4.576   7.437 -0.4669 -1.0681 -3.2491
  151SAPE   H6Y16752   2.058   4.440   7.434  1.1331  0.1172 -1.0977
  151SAPE   C3716753   2.041   4.564   7.617 -0.0557  0.0983  0.2558
  151SAPE   H7X16754   2.100   4.491   7.677  0.4773  1.5412  1.5385
  151SAPE   H7Y16755   1.932   4.563   7.639  0.1413  2.6838  1.6761
  151SAPE   C3816756   2.095   4.702   7.661 -0.0138  0.1741 -0.5836
  151SAPE   H8X16757   2.051   4.790   7.609 -1.3273  1.7348  2.8623
  151SAPE   H8Y16758   2.200   4.687   7.629  0.0408 -0.9903  0.1042
  151SAPE   C3916759   2.086   4.732   7.813  0.0654 -0.2351 -0.1732
  151SAPE   H9X16760   2.168   4.671   7.857  1.5544  2.4038  0.9895
  151SAPE   H9Y16761   1.991   4.694   7.856  1.9560 -4.8545  0.5688
  151SAPE  C31016762   2.099   4.877   7.841  0.6369 -0.7824 -0.5350
  151SAPE  H10X16763   2.112   4.890   7.950  1.3230  3.0531 -0.8990
  151SAPE  H10Y16764   2.011   4.940   7.815 -0.6634 -1.6649  1.5284
  151SAPE  C31116765   2.225   4.935   7.778  0.3142 -0.0177 -0.2313
  151SAPE  H11X16766   2.214   4.955   7.669  0.7856  1.4305 -0.0374
  151SAPE  H11Y16767   2.301   4.853   7.786 -0.6310 -0.8992 -0.0864
  151SAPE  C31216768   2.273   5.067   7.838  0.1142 -0.3727  0.3309
  151SAPE  H12X16769   2.194   5.143   7.857  0.5524  0.5077 -1.2043
  151SAPE  H12Y16770   2.350   5.111   7.771  0.1550 -0.4177  0.3476
  151SAPE  C31316771   2.343   5.037   7.976  0.0706 -0.8787 -1.1332
  151SAPE  H13X16772   2.386   4.937   7.958 -0.2224 -1.5186  1.4029
  151SAPE  H13Y16773   2.266   5.025   8.056  0.7135  0.0682 -0.3378
  151SAPE  C31416774   2.452   5.128   8.026 -0.0416  0.5859 -0.3707
  151SAPE  H14X16775   2.410   5.224   8.064  1.2278  1.5359 -1.2811
  151SAPE  H14Y16776   2.515   5.149   7.937  0.5667  0.6982  0.0807
  151SAPE  C31516777   2.541   5.079   8.140  0.1110 -0.4378  0.5592
  151SAPE  H15X16778   2.620   5.158   8.135 -1.3475  0.9947 -0.8828
  151SAPE  H15Y16779   2.595   4.983   8.120 -0.8001 -0.7263 -0.5925
  151SAPE  C31616780   2.468   5.092   8.274  0.7011 -0.1360  0.7037
  151SAPE  H16X16781   2.379   5.025   8.267  0.4928  0.2866 -1.0862
  151SAPE  H16Y16782   2.432   5.195   8.294 -2.6063 -1.3994  1.9445
  151SAPE  C31716783   2.561   5.034   8.381  0.1851  0.2119  0.5098
  151SAPE  H17X16784   2.508   5.067   8.472  1.4564 -0.0258  1.3607
  151SAPE  H17Y16785   2.666   5.072   8.381  0.6944 -1.1436 -0.3926
  151SAPE  C31816786   2.576   4.881   8.381 -0.5347  0.4041 -0.0926
  151SAPE  H18X16787   2.648   4.842   8.306 -0.3233 -0.4949  0.5524
  151SAPE  H18Y16788   2.478   4.834   8.359  0.2609 -0.2411 -2.4822
  151SAPE  H18Z16789   2.614   4.844   8.479 -0.4686 -0.0312 -0.2793
  152SAPE     N16790   5.972   0.408   6.017 -0.6214  0.3090  0.6020
  152SAPE   HN116791   6.015   0.330   5.963 -0.4497  0.1271  0.9962
  152SAPE   HN216792   5.873   0.382   6.034 -0.5609 -1.5655 -1.3910
  152SAPE   HN316793   5.968   0.496   5.962 -0.5489  0.5563  0.9904
  152SAPE   C1216794   6.049   0.435   6.151  0.5049  0.2591  0.0243
  152SAPE  H12A16795   6.006   0.526   6.198  1.6986  0.6621  0.3647
  152SAPE  H12B16796   6.151   0.453   6.110  0.8891 -2.5648 -0.4704
  152SAPE   C1116797   6.042   0.319   6.248 -0.1510  0.8830 -0.4468
  152SAPE  H11A16798   5.940   0.328   6.291 -0.3439 -0.1275 -0.6653
  152SAPE  H11B16799   6.114   0.328   6.332  2.4862  0.4289 -2.5216
  152SAPE     P16800   5.997   0.066   6.197 -0.3163  0.2010  0.1892
  152SAPE   O1316801   5.906   0.056   6.079  0.4294  1.2514 -0.1326
  152SAPE   O1416802   6.091  -0.047   6.210 -0.3435 -0.1992 -0.3085
  152SAPE   O1216803   6.076   0.202   6.176  0.2414 -0.2985 -0.0068
  152SAPE   O1116804   5.906   0.093   6.326 -0.0753  0.1114  0.4540
  152SAPE    C116805   5.963   0.104   6.457  0.5543 -0.8318 -0.5074
  152SAPE    HA16806   5.981   0.003   6.499  1.5494  0.2698  1.9606
  152SAPE    HB16807   6.060   0.158   6.462  0.2862  0.3982 -4.7208
  152SAPE    C216808   5.861   0.171   6.545  0.8126 -0.9482 -0.3329
  152SAPE    HS16809   5.880   0.280   6.553 -2.8791 -0.2099  0.0088
  152SAPE   O2116810   5.876   0.124   6.680  0.7787  0.5449 -0.2466
  152SAPE   C2116811   5.977   0.165   6.757 -0.1131  0.4337  0.2865
  152SAPE   O2216812   6.056   0.252   6.724 -0.2207 -0.2204  0.7362
  152SAPE   C2216813   5.980   0.086   6.893  0.4315  0.0948 -0.6268
  152SAPE   H2R16814   5.886   0.120   6.943 -0.4916 -0.9230 -1.6105
  152SAPE   H2S16815   5.985  -0.022   6.869 -0.2434 -1.2123  4.1686
  152SAPE    C316816   5.707   0.152   6.502 -0.9318 -0.4967  0.1069
  152SAPE    HX16817   5.699   0.042   6.511  0.1623 -0.7291 -1.2949
  152SAPE    HY16818   5.691   0.176   6.394  2.5844 -0.8327 -0.6048
  152SAPE   O3116819   5.627   0.234   6.586  0.6394 -0.5232 -0.3941
  152SAPE   C3116820   5.514   0.172   6.604 -0.0539  0.0779 -0.4796
  152SAPE   O3216821   5.462   0.090   6.528 -0.0423  0.0141 -0.3605
  152SAPE   C3216822   5.450   0.228   6.732  0.0700  0.3201  0.9992
  152SAPE   H2X16823   5.352   0.262   6.691  0.6238  0.5292 -0.1912
  152SAPE   H2Y16824   5.517   0.307   6.773  0.8729 -0.6406  1.5881
  152SAPE   C2316825   6.096   0.131   6.979 -0.1046  0.5681  0.3658
  152SAPE   H3R16826   6.090   0.235   7.016 -0.6700  1.3631 -1.8131
  152SAPE   H3S16827   6.180   0.127   6.907 -0.2138  0.6222  0.2344
  152SAPE   C2416828   6.121   0.032   7.097 -0.1870  0.5232 -0.8174
  152SAPE   H4R16829   6.035   0.025   7.168  1.0333  1.1578  0.7954
  152SAPE   H4S16830   6.204   0.072   7.159 -0.2614 -0.6585  0.0920
  152SAPE   C2516831   6.163  -0.101   7.055 -0.7044  0.1652  1.3721
  152SAPE   H5R16832   6.123  -0.129   6.956 -0.3569  1.3227  0.8962
  152SAPE   C2616833   6.212  -0.195   7.142  0.5286  0.1213  0.3257
  152SAPE   H6R16834   6.223  -0.295   7.097 -2.6770 -0.7447  1.2123
  152SAPE   C2716835   6.245  -0.177   7.289  0.3374  0.3306 -0.3387
  152SAPE   H7R16836   6.205  -0.088   7.343  0.3712 -0.0463  0.3158
  152SAPE   H7S16837   6.355  -0.164   7.298  0.0107  3.0459  0.6640
  152SAPE   C2816838   6.191  -0.310   7.348 -0.1592 -0.0531  0.1871
  152SAPE   H8R16839   6.118  -0.363   7.285  0.7340 -0.3971 -0.6025
  152SAPE   C2916840   6.211  -0.353   7.472  0.4819 -0.9431 -0.2766
  152SAPE   H9R16841   6.165  -0.449   7.499  2.2985 -1.5610  0.8455
  152SAPE  C21016842   6.285  -0.273   7.577  0.6580 -0.4310  0.3602
  152SAPE  H10R16843   6.209  -0.225   7.642 -0.3172 -0.5899 -0.6304
  152SAPE  H10S16844   6.345  -0.190   7.536  1.8595 -1.0118  0.8990
  152SAPE  C21116845   6.362  -0.357   7.674  0.2472  0.1186  1.0160
  152SAPE  H11R16846   6.430  -0.430   7.627 -0.3284  0.1560  0.1045
  152SAPE  C21216847   6.369  -0.340   7.804  0.1548  0.7204  0.0045
  152SAPE  H12R16848   6.427  -0.417   7.858  0.2340 -0.8655 -2.2126
  152SAPE  C21316849   6.311  -0.238   7.901 -0.1850 -0.0686  0.2521
  152SAPE  H13R16850   6.254  -0.300   7.972  0.2445  0.1663  0.8127
  152SAPE  H13S16851   6.238  -0.176   7.845 -0.4868 -0.7279 -0.0914
  152SAPE  C21416852   6.404  -0.140   7.965 -0.3939 -0.6164  0.1573
  152SAPE  H14R16853   6.483  -0.084   7.912 -2.2444  2.5295  0.4842
  152SAPE  C21516854   6.389  -0.093   8.092 -0.4619 -0.1936  1.0268
  152SAPE  H15R16855   6.467  -0.023   8.127 -1.9942  3.3258 -1.9151
  152SAPE  C21616856   6.287  -0.131   8.201 -0.3291 -0.5952 -0.4215
  152SAPE  H16R16857   6.232  -0.221   8.167  0.3524 -1.3390  0.4109
  152SAPE  H16S16858   6.214  -0.056   8.240 -2.4388 -2.6374 -0.2305
  152SAPE  C21716859   6.377  -0.167   8.320  0.4184  0.2840 -0.1567
  152SAPE  H17R16860   6.317  -0.215   8.400  0.9188 -0.1985 -0.0642
  152SAPE  H17S16861   6.418  -0.074   8.365 -1.5549 -0.0021  2.4738
  152SAPE  C21816862   6.482  -0.280   8.297  0.7145  0.0462  0.3203
  152SAPE  H18R16863   6.562  -0.244   8.229  0.0220  1.7134  0.3340
  152SAPE  H18S16864   6.418  -0.348   8.236  1.7562 -0.2231 -0.5034
  152SAPE  C21916865   6.526  -0.356   8.416 -1.0894 -0.9802 -0.5044
  152SAPE  H19R16866   6.578  -0.449   8.386 -0.7682 -2.4333  3.8320
  152SAPE  H19S16867   6.432  -0.397   8.460 -0.7813  0.9140  2.1718
  152SAPE  C22016868   6.610  -0.282   8.519  0.3282  0.4362  0.0083
  152SAPE  H20R16869   6.567  -0.186   8.555 -0.9510  0.3411 -1.1887
  152SAPE  H20S16870   6.708  -0.266   8.468  0.3205 -2.6981 -1.1861
  152SAPE  H20T16871   6.631  -0.345   8.608 -1.6508  1.4912  1.3047
  152SAPE   C3316872   5.433   0.116   6.835 -0.2194  0.0352 -0.4650
  152SAPE   H3X16873   5.525   0.054   6.837  1.9254  2.9928  0.1347
  152SAPE   H3Y16874   5.344   0.056   6.808 -0.7696  0.7807 -0.3418
  152SAPE   C3416875   5.415   0.165   6.979 -0.5685 -0.5516 -0.7585
  152SAPE   H4X16876   5.323   0.227   6.989 -0.9236 -0.5466 -3.2301
  152SAPE   H4Y16877   5.510   0.222   6.990 -0.4360 -0.4158 -2.2739
  152SAPE   C3516878   5.425   0.052   7.081  0.0846  0.2657  0.4467
  152SAPE   H5X16879   5.510  -0.015   7.056  0.5730  0.9386  0.2764
  152SAPE   H5Y16880   5.330  -0.005   7.072 -0.0996  0.9377 -3.8055
  152SAPE   C3616881   5.459   0.104   7.226  0.3225 -0.4022  0.6017
  152SAPE   H6X16882   5.553   0.163   7.222  0.5475 -0.7669  0.4440
  152SAPE   H6Y16883   5.463   0.011   7.287 -2.4746  0.1164  1.7584
  152SAPE   C3716884   5.356   0.195   7.295 -0.0038 -0.1554  0.3014
  152SAPE   H7X16885   5.266   0.132   7.310  1.1289 -1.7473  0.7511
  152SAPE   H7Y16886   5.327   0.277   7.226 -0.4926  0.2222  0.9443
  152SAPE   C3816887   5.400   0.247   7.432 -0.1315 -0.2658 -0.1637
  152SAPE   H8X16888   5.327   0.315   7.482  1.0125  0.3097  0.7737
  152SAPE   H8Y16889   5.491   0.309   7.421  1.6465 -2.5491  0.8919
  152SAPE   C3916890   5.438   0.144   7.535 -0.6244  0.0493 -0.7220
  152SAPE   H9X16891   5.524   0.083   7.501  0.8990  0.8997  1.3930
  152SAPE   H9Y16892   5.352   0.076   7.556 -0.2774 -0.3874 -0.7161
  152SAPE  C31016893   5.476   0.199   7.672 -0.0291 -0.4543  0.5678
  152SAPE  H10X16894   5.385   0.255   7.703  0.2689  0.6954 -0.5723
  152SAPE  H10Y16895   5.557   0.274   7.661 -0.4779 -0.1922 -1.3340
  152SAPE  C31116896   5.511   0.086   7.777 -0.3017 -0.3014 -0.3482
  152SAPE  H11X16897   5.584   0.019   7.728 -0.6970 -0.1594 -1.1540
  152SAPE  H11Y16898   5.426   0.017   7.800  3.3632 -4.1615  3.4021
  152SAPE  C31216899   5.563   0.149   7.915 -0.1834  0.5820  0.0955
  152SAPE  H12X16900   5.665   0.187   7.890 -0.1150 -1.0044 -2.3216
  152SAPE  H12Y16901   5.575   0.058   7.977  0.4302 -0.1085 -1.0072
  152SAPE  C31316902   5.471   0.261   7.976  0.4936  0.3693 -0.0914
  152SAPE  H13X16903   5.369   0.220   7.978  0.9136 -0.6834  0.1773
  152SAPE  H13Y16904   5.473   0.360   7.924  2.2586  0.9719  1.0109
  152SAPE  C31416905   5.513   0.292   8.124  0.0149 -0.2593 -1.2828
  152SAPE  H14X16906   5.608   0.349   8.123 -0.2447  0.2470  0.6064
  152SAPE  H14Y16907   5.531   0.196   8.176 -0.7155  0.1172 -0.3180
  152SAPE  C31516908   5.420   0.369   8.218  0.1147  0.1011 -0.2990
  152SAPE  H15X16909   5.321   0.319   8.222  0.8736 -1.4849 -0.5109
  152SAPE  H15Y16910   5.405   0.472   8.179  2.1023  0.9249  0.9740
  152SAPE  C31616911   5.480   0.362   8.360  1.0864  0.3211 -0.2485
  152SAPE  H16X16912   5.578   0.414   8.371  0.2131  2.1673 -0.9468
  152SAPE  H16Y16913   5.513   0.257   8.379  1.5029  0.1181 -1.9338
  152SAPE  C31716914   5.380   0.419   8.463 -0.6974 -0.2974 -0.2867
  152SAPE  H17X16915   5.417   0.395   8.565  1.6227  1.2175 -0.6845
  152SAPE  H17Y16916   5.281   0.370   8.450 -2.3326  2.0167  2.3986
  152SAPE  C31816917   5.371   0.570   8.462 -0.0314  0.4149 -0.1936
  152SAPE  H18X16918   5.465   0.624   8.487  0.6471 -1.5825  1.8443
  152SAPE  H18Y16919   5.301   0.583   8.547 -0.0452 -1.2089  0.0682
  152SAPE  H18Z16920   5.319   0.607   8.370  0.4415  0.2551 -0.5311
  153SAPE     N16921   1.157   0.108   5.949 -0.5752  0.3842  0.4076
  153SAPE   HN116922   1.058   0.134   5.965 -0.4444  1.5383 -0.5206
  153SAPE   HN216923   1.172   0.028   5.884  1.8510  1.2431 -0.2095
  153SAPE   HN316924   1.188   0.068   6.040  0.4293 -0.1939 -0.1678
  153SAPE   C1216925   1.245   0.220   5.905  0.3664  0.0070  0.2019
  153SAPE  H12A16926   1.232   0.244   5.797 -0.3047 -0.8842  0.0775
  153SAPE  H12B16927   1.351   0.186   5.907  0.7591  1.1121 -0.4757
  153SAPE   C1116928   1.212   0.347   5.993 -0.1928 -0.0206 -0.2242
  153SAPE  H11A16929   1.107   0.373   6.016 -0.4691 -0.1345 -1.3101
  153SAPE  H11B16930   1.242   0.434   5.932 -1.6916 -0.5780 -1.8260
  153SAPE     P16931   1.376   0.454   6.175 -0.0392  0.3116 -0.4626
  153SAPE   O1316932   1.509   0.443   6.117 -0.6848 -0.1665  0.1210
  153SAPE   O1416933   1.311   0.580   6.158  0.5210 -0.2470  0.5264
  153SAPE   O1216934   1.287   0.339   6.119  0.3228  0.1544 -0.0480
  153SAPE   O1116935   1.385   0.431   6.325  0.2432 -0.0796 -0.3239
  153SAPE    C116936   1.274   0.367   6.398 -0.0260 -0.1912  0.0177
  153SAPE    HA16937   1.174   0.395   6.359 -0.5507  0.3384  1.6586
  153SAPE    HB16938   1.285   0.257   6.387 -0.3972 -0.3046  0.6833
  153SAPE    C216939   1.292   0.395   6.551 -0.7919  0.0407 -0.1940
  153SAPE    HS16940   1.211   0.339   6.604 -0.6488 -0.2396 -0.2695
  153SAPE   O2116941   1.291   0.536   6.577 -0.0365 -0.0496  0.0494
  153SAPE   C2116942   1.178   0.599   6.558 -0.0507 -0.4617  0.0922
  153SAPE   O2216943   1.071   0.554   6.520 -0.4656  0.3345 -0.3561
  153SAPE   C2216944   1.193   0.747   6.613  0.1994  1.3355 -0.6460
  153SAPE   H2R16945   1.301   0.772   6.602  0.1328  0.6839 -3.3709
  153SAPE   H2S16946   1.132   0.811   6.546 -0.7917 -0.2579 -1.3088
  153SAPE    C316947   1.425   0.337   6.607 -0.4274 -0.7560 -0.6980
  153SAPE    HX16948   1.498   0.394   6.545 -0.4757  0.9090  0.6984
  153SAPE    HY16949   1.435   0.228   6.591 -1.9883 -1.2000  0.9737
  153SAPE   O3116950   1.431   0.352   6.750 -0.0720  0.3231 -0.1387
  153SAPE   C3116951   1.504   0.448   6.798 -1.0063  0.4709  0.6518
  153SAPE   O3216952   1.579   0.520   6.736  0.1610 -0.2825  0.0829
  153SAPE   C3216953   1.492   0.448   6.951 -0.1391 -0.0620 -0.2517
  153SAPE   H2X16954   1.384   0.438   6.977  0.4790 -0.1847  2.6350
  153SAPE   H2Y16955   1.517   0.545   6.999 -3.4683  0.3747  0.8284
  153SAPE   C2316956   1.134   0.753   6.760 -0.7114  0.0328  0.1060
  153SAPE   H3R16957   1.025   0.768   6.746 -1.3208 -0.1168  3.7987
  153SAPE   H3S16958   1.177   0.846   6.802 -1.2546 -0.1602  1.1238
  153SAPE   C2416959   1.159   0.632   6.852 -0.1372 -0.3769  0.4810
  153SAPE   H4R16960   1.269   0.611   6.851 -0.3253 -1.5068 -1.2261
  153SAPE   H4S16961   1.112   0.541   6.810  1.9092 -1.3698  0.2132
  153SAPE   C2516962   1.097   0.641   6.988 -0.4739 -0.1340  0.3035
  153SAPE   H5R16963   0.992   0.610   6.989 -1.1473  1.9892  0.6932
  153SAPE   C2616964   1.164   0.693   7.098  1.0208  0.3740  0.0598
  153SAPE   H6R16965   1.100   0.686   7.188 -3.4185  1.7488 -2.6380
  153SAPE   C2716966   1.303   0.740   7.103 -0.4088 -0.7373 -0.0424
  153SAPE   H7R16967   1.338   0.750   6.998  2.8351 -0.6126  0.9461
  153SAPE   H7S16968   1.359   0.658   7.153 -0.5337  0.1478  1.6190
  153SAPE   C2816969   1.296   0.872   7.174  0.3173 -0.1690  0.3849
  153SAPE   H8R16970   1.236   0.948   7.122  0.4448 -1.6335 -2.0615
  153SAPE   C2916971   1.363   0.916   7.285 -0.0679 -0.2788  0.6328
  153SAPE   H9R16972   1.348   1.019   7.320  1.0541  0.8087 -1.8783
  153SAPE  C21016973   1.463   0.839   7.364 -0.0073 -0.7011  0.8642
  153SAPE  H10R16974   1.500   0.910   7.441 -3.3440  0.1009  1.8701
  153SAPE  H10S16975   1.542   0.799   7.296 -2.2764 -0.8401 -1.8647
  153SAPE  C21116976   1.406   0.712   7.421  0.9865  0.8841  0.0976
  153SAPE  H11R16977   1.331   0.657   7.363 -1.0291  2.2246  1.3222
  153SAPE  C21216978   1.421   0.668   7.545 -0.1026 -0.4089 -0.1365
  153SAPE  H12R16979   1.371   0.582   7.590 -1.7376  1.6404  2.2440
  153SAPE  C21316980   1.507   0.736   7.653 -0.0120  0.0131 -0.0544
  153SAPE  H13R16981   1.604   0.760   7.606  0.1301  0.5563  0.5142
  153SAPE  H13S16982   1.536   0.681   7.745  2.6347 -1.1460 -1.4906
  153SAPE  C21416983   1.448   0.861   7.701  0.0173 -0.0059  0.8374
  153SAPE  H14R16984   1.391   0.913   7.622  1.5492  0.3912 -0.0420
  153SAPE  C21516985   1.457   0.916   7.829 -1.0939  0.0143  0.4668
  153SAPE  H15R16986   1.427   1.021   7.840 -0.1650  0.7557 -2.8750
  153SAPE  C21616987   1.522   0.850   7.948  0.4221  0.5103 -0.5402
  153SAPE  H16R16988   1.553   0.745   7.927  0.6777  0.2961  0.8211
  153SAPE  H16S16989   1.439   0.850   8.022  0.0480 -0.8491 -0.9345
  153SAPE  C21716990   1.642   0.929   7.994 -0.5146 -0.2112 -0.1936
  153SAPE  H17R16991   1.620   1.034   8.023  0.5086 -0.4024  1.4066
  153SAPE  H17S16992   1.716   0.934   7.911  1.0818 -0.5579  1.1496
  153SAPE  C21816993   1.697   0.875   8.125  0.3852  0.0641 -1.0656
  153SAPE  H18R16994   1.804   0.900   8.141  0.5767 -1.5021  0.3580
  153SAPE  H18S16995   1.707   0.765   8.132  1.4564  0.2326  0.7256
  153SAPE  C21916996   1.621   0.938   8.242  0.5067 -0.6486 -0.3839
  153SAPE  H19R16997   1.513   0.909   8.239 -0.5163  2.3384  1.9574
  153SAPE  H19S16998   1.630   1.049   8.234 -0.6810 -0.0261  4.1963
  153SAPE  C22016999   1.660   0.902   8.383 -0.1487  0.7296 -0.1936
  153SAPE  H20R17000   1.660   0.791   8.391 -1.8758  0.7720  0.9623
  153SAPE  H20S17001   1.592   0.956   8.453 -0.3186 -0.0181  0.2252
  153SAPE  H20T17002   1.764   0.930   8.411  0.4380 -2.5013  1.2667
  153SAPE   C3317003   1.554   0.331   7.016 -0.3078  0.2558  0.1804
  153SAPE   H3X17004   1.664   0.345   7.003 -0.6865  3.0240 -0.5913
  153SAPE   H3Y17005   1.520   0.231   6.982  0.6647 -2.0377  4.9912
  153SAPE   C3417006   1.516   0.341   7.159  0.0381 -0.8755 -0.4188
  153SAPE   H4X17007   1.407   0.352   7.179 -0.2101 -3.5448  0.0463
  153SAPE   H4Y17008   1.563   0.431   7.204 -1.4681 -0.6870  0.8768
  153SAPE   C3517009   1.555   0.218   7.238 -0.1920  0.1987  0.0686
  153SAPE   H5X17010   1.666   0.211   7.239 -0.2084 -0.0038  0.7617
  153SAPE   H5Y17011   1.524   0.130   7.177  0.2016  1.6096 -2.3141
  153SAPE   C3617012   1.477   0.199   7.374 -0.4198 -0.0551  0.4308
  153SAPE   H6X17013   1.497   0.094   7.404 -0.6851 -0.9354 -2.1614
  153SAPE   H6Y17014   1.368   0.215   7.359 -0.0279 -0.2466 -4.1542
  153SAPE   C3717015   1.551   0.286   7.485 -0.2886 -0.7061 -0.5620
  153SAPE   H7X17016   1.556   0.390   7.448  1.7777 -0.3486  0.5798
  153SAPE   H7Y17017   1.650   0.238   7.499  0.3925  0.3699 -1.5405
  153SAPE   C3817018   1.464   0.300   7.618 -0.2421  0.4261  0.3638
  153SAPE   H8X17019   1.449   0.194   7.648  0.0868  0.1393 -0.4723
  153SAPE   H8Y17020   1.380   0.365   7.585 -1.3421 -0.8507  0.5401
  153SAPE   C3917021   1.542   0.374   7.728 -0.2884 -0.8206  1.0343
  153SAPE   H9X17022   1.592   0.473   7.715 -0.5129 -0.5469  2.1127
  153SAPE   H9Y17023   1.631   0.311   7.749 -0.2770 -1.2045 -0.0822
  153SAPE  C31017024   1.461   0.372   7.857 -0.1420 -0.9486 -1.4263
  153SAPE  H10X17025   1.422   0.274   7.890  1.5017 -0.7046  1.5990
  153SAPE  H10Y17026   1.374   0.432   7.823  0.5343  0.1947 -1.2113
  153SAPE  C31117027   1.535   0.445   7.967 -0.3335  0.0553  0.1604
  153SAPE  H11X17028   1.550   0.550   7.934 -1.4422  0.0251 -0.4928
  153SAPE  H11Y17029   1.630   0.397   7.998 -0.7863 -0.7717  0.2961
  153SAPE  C31217030   1.470   0.428   8.106 -0.1479  0.0618 -0.2841
  153SAPE  H12X17031   1.486   0.323   8.141  0.0813 -0.5682 -2.1904
  153SAPE  H12Y17032   1.364   0.462   8.100 -0.3555  0.1854  2.5326
  153SAPE  C31317033   1.514   0.536   8.209 -0.5574  0.4661 -0.4000
  153SAPE  H13X17034   1.487   0.634   8.165  0.1373  0.2961 -1.2402
  153SAPE  H13Y17035   1.624   0.541   8.222 -0.5122  0.2836 -0.7005
  153SAPE  C31417036   1.460   0.527   8.355  0.1231  0.0473 -0.5112
  153SAPE  H14X17037   1.534   0.584   8.416 -0.5910  0.7444 -0.2742
  153SAPE  H14Y17038   1.455   0.419   8.382 -4.3471 -0.6025 -3.0666
  153SAPE  C31517039   1.325   0.592   8.367 -0.4644 -0.0051  0.0267
  153SAPE  H15X17040   1.264   0.516   8.314 -0.0699 -3.1422  3.6120
  153SAPE  H15Y17041   1.313   0.694   8.324 -0.9636  0.2621  0.7776
  153SAPE  C31617042   1.271   0.590   8.509 -0.3856  0.9802 -0.2009
  153SAPE  H16X17043   1.242   0.484   8.528 -3.5151  1.7792 -0.0067
  153SAPE  H16Y17044   1.173   0.642   8.516 -2.5464 -2.4562 -2.2183
  153SAPE  C31717045   1.361   0.631   8.626  0.6611 -0.4323  0.7134
  153SAPE  H17X17046   1.448   0.685   8.584 -0.4346  1.4234  0.7007
  153SAPE  H17Y17047   1.402   0.543   8.680  1.5988 -1.1463 -1.1016
  153SAPE  C31817048   1.288   0.717   8.725  0.7315 -0.0474 -0.5140
  153SAPE  H18X17049   1.209   0.656   8.775  0.9704 -1.2121 -1.5134
  153SAPE  H18Y17050   1.229   0.800   8.681 -2.0715 -1.8646 -0.4935
  153SAPE  H18Z17051   1.349   0.760   8.807 -1.8087 -1.5556  2.4183
  154SAPE     N17052   0.921   0.746   6.235 -0.5937  0.1548  0.1427
  154SAPE   HN117053   0.845   0.782   6.295 -0.7465 -0.5303  0.3667
  154SAPE   HN217054   1.000   0.725   6.299  2.4155  2.2337 -2.5983
  154SAPE   HN317055   0.949   0.828   6.177 -3.0373  3.0819  2.7555
  154SAPE   C1217056   0.876   0.627   6.154 -0.4699  0.3400  0.4772
  154SAPE  H12A17057   0.958   0.609   6.081 -0.1608  0.7283  0.7238
  154SAPE  H12B17058   0.787   0.657   6.095  0.1930 -0.7524 -1.1517
  154SAPE   C1117059   0.856   0.510   6.254  0.0685  0.3782  0.2819
  154SAPE  H11A17060   0.954   0.481   6.298  0.1681 -0.4501 -0.4714
  154SAPE  H11B17061   0.818   0.420   6.202 -1.8880  2.1112 -1.4965
  154SAPE     P17062   0.611   0.555   6.340  0.8156  0.4173 -0.1923
  154SAPE   O1317063   0.574   0.703   6.345  0.0657  0.3805 -0.3489
  154SAPE   O1417064   0.566   0.483   6.216  0.6603  0.5791  0.1816
  154SAPE   O1217065   0.767   0.554   6.356  0.3073  0.7402  0.3175
  154SAPE   O1117066   0.557   0.481   6.466 -0.0502 -0.1564 -0.7293
  154SAPE    C117067   0.607   0.350   6.500  0.1793 -0.6615 -0.5115
  154SAPE    HA17068   0.522   0.282   6.523  1.1017 -2.6542 -2.6383
  154SAPE    HB17069   0.647   0.290   6.415  0.3168 -0.0860 -0.8593
  154SAPE    C217070   0.702   0.335   6.621 -0.1794 -0.3225 -0.3470
  154SAPE    HS17071   0.686   0.234   6.663 -2.3958  1.1127  2.6259
  154SAPE   O2117072   0.672   0.426   6.732  0.4684  0.3933 -0.3150
  154SAPE   C2117073   0.557   0.402   6.802  0.2591  0.2379  0.4681
  154SAPE   O2217074   0.485   0.300   6.777 -0.0528  0.2648  0.2202
  154SAPE   C2217075   0.534   0.491   6.916  0.3652 -0.2542 -0.4759
  154SAPE   H2R17076   0.473   0.579   6.884  1.7458  1.3698  1.1433
  154SAPE   H2S17077   0.472   0.429   6.985 -0.8679  0.4275 -0.9328
  154SAPE    C317078   0.849   0.358   6.589  0.0514  0.3709  0.8667
  154SAPE    HX17079   0.867   0.461   6.552  2.6975 -0.8821 -1.7921
  154SAPE    HY17080   0.871   0.322   6.486 -0.2902  1.1863  0.4981
  154SAPE   O3117081   0.925   0.310   6.699 -0.1318  0.0259  0.2859
  154SAPE   C3117082   0.940   0.180   6.691 -0.5959  1.1783  0.0135
  154SAPE   O3217083   0.896   0.113   6.603 -0.1621  0.2033  1.4241
  154SAPE   C3217084   1.019   0.124   6.810 -0.7501  0.4640 -0.1993
  154SAPE   H2X17085   1.123   0.161   6.797 -0.7575 -0.0884 -2.0766
  154SAPE   H2Y17086   1.020   0.013   6.802 -2.3040  0.4177 -0.1537
  154SAPE   C2317087   0.649   0.532   7.003  0.2012 -0.7537 -0.3821
  154SAPE   H3R17088   0.687   0.635   6.987  1.8325 -0.8850  2.1191
  154SAPE   H3S17089   0.746   0.477   6.994  1.4768  1.5819 -2.0749
  154SAPE   C2417090   0.619   0.528   7.149  0.5176  0.0372 -0.7327
  154SAPE   H4R17091   0.705   0.561   7.210  0.1803  0.0317 -0.2428
  154SAPE   H4S17092   0.601   0.422   7.176  2.3559  0.2283  1.5809
  154SAPE   C2517093   0.497   0.616   7.172 -0.3445  0.7309 -0.5472
  154SAPE   H5R17094   0.447   0.663   7.086 -0.9564  1.5183  0.2137
  154SAPE   C2617095   0.467   0.666   7.293 -0.1717 -0.0924  0.0850
  154SAPE   H6R17096   0.381   0.735   7.294  1.7441  2.4730 -0.6479
  154SAPE   C2717097   0.537   0.622   7.421 -0.1531 -0.0799 -0.0840
  154SAPE   H7R17098   0.618   0.691   7.454  1.4809 -1.5332 -0.9392
  154SAPE   H7S17099   0.589   0.525   7.408 -0.4995 -0.0089 -2.3313
  154SAPE   C2817100   0.428   0.598   7.523  0.3835 -0.6343  1.1422
  154SAPE   H8R17101   0.342   0.545   7.480  0.0520  0.6194  0.1735
  154SAPE   C2917102   0.431   0.642   7.650  0.0313 -0.5937  0.2277
  154SAPE   H9R17103   0.339   0.637   7.710 -0.5241 -0.1498 -0.5595
  154SAPE  C21017104   0.539   0.722   7.720  0.3346 -0.2787  0.1606
  154SAPE  H10R17105   0.492   0.804   7.778  2.2223  1.0571 -0.1072
  154SAPE  H10S17106   0.602   0.770   7.642  0.7023 -2.1602 -0.7649
  154SAPE  C21117107   0.627   0.639   7.806  0.6739  0.3285  0.0035
  154SAPE  H11R17108   0.705   0.584   7.753  0.9208 -0.0474  0.7456
  154SAPE  C21217109   0.629   0.641   7.943 -0.1636 -0.1641  1.2194
  154SAPE  H12R17110   0.693   0.566   7.992 -1.6229 -2.1488  0.2315
  154SAPE  C21317111   0.541   0.717   8.029 -0.1877 -0.2353 -0.3838
  154SAPE  H13R17112   0.486   0.641   8.089  1.1237 -0.1731  0.9629
  154SAPE  H13S17113   0.464   0.780   7.980  0.8577  0.4225 -1.2279
  154SAPE  C21417114   0.613   0.808   8.128 -0.3641 -0.1760 -0.5257
  154SAPE  H14R17115   0.666   0.751   8.206  2.6939  3.6207  0.4357
  154SAPE  C21517116   0.606   0.944   8.136 -0.0207  0.1970  0.5533
  154SAPE  H15R17117   0.663   1.001   8.210  0.2800 -0.6704  1.0071
  154SAPE  C21617118   0.524   1.033   8.049  0.5925 -0.4213  0.2687
  154SAPE  H16R17119   0.493   0.981   7.956 -0.1801  0.3983  0.0570
  154SAPE  H16S17120   0.591   1.113   8.011 -1.4254 -0.2798 -3.4748
  154SAPE  C21717121   0.406   1.088   8.135  0.7305 -0.0576  0.4243
  154SAPE  H17R17122   0.335   1.014   8.177 -0.6554  1.9147  1.7648
  154SAPE  H17S17123   0.343   1.161   8.079 -1.0266 -0.1695  2.1490
  154SAPE  C21817124   0.440   1.162   8.261 -0.1515  0.0306  0.3156
  154SAPE  H18R17125   0.530   1.225   8.248 -0.5476  0.4136 -0.5595
  154SAPE  H18S17126   0.469   1.090   8.342 -0.5990 -0.0830  0.3784
  154SAPE  C21917127   0.328   1.247   8.322  0.3649 -0.2437 -1.0369
  154SAPE  H19R17128   0.362   1.287   8.420 -1.4897  1.2337 -0.9344
  154SAPE  H19S17129   0.242   1.181   8.345  0.3638 -0.2922 -1.1803
  154SAPE  C22017130   0.295   1.368   8.234  0.7505 -0.5248  0.3897
  154SAPE  H20R17131   0.243   1.334   8.142  1.5395  2.8718 -1.4691
  154SAPE  H20S17132   0.396   1.399   8.200  1.1266 -1.8057  0.2895
  154SAPE  H20T17133   0.243   1.453   8.283  1.7426  1.0004 -1.1073
  154SAPE   C3317134   0.947   0.173   6.943 -0.7643 -0.0720  0.5502
  154SAPE   H3X17135   0.907   0.087   7.001 -0.8418 -0.4103 -0.0004
  154SAPE   H3Y17136   0.877   0.258   6.928  1.1429  1.4545 -0.0907
  154SAPE   C3417137   1.050   0.239   7.041 -0.1133 -0.9935  0.9650
  154SAPE   H4X17138   1.082   0.339   7.005  0.3245 -1.4592  0.0338
  154SAPE   H4Y17139   1.146   0.187   7.060  1.8977  2.3646  0.6491
  154SAPE   C3517140   0.986   0.255   7.180 -0.0009 -0.4473  0.3254
  154SAPE   H5X17141   0.940   0.158   7.209 -0.7234  0.2482  1.6101
  154SAPE   H5Y17142   0.898   0.322   7.176 -0.4146 -0.9632  0.5962
  154SAPE   C3617143   1.085   0.287   7.290 -0.5958 -0.1396 -0.8118
  154SAPE   H6X17144   1.152   0.372   7.263 -0.3138 -0.3257 -0.7071
  154SAPE   H6Y17145   1.129   0.191   7.325 -0.6908 -0.0814 -0.5240
  154SAPE   C3717146   1.006   0.324   7.425 -0.6503 -0.0395  0.3509
  154SAPE   H7X17147   0.964   0.231   7.470  0.6286  0.4300  2.7231
  154SAPE   H7Y17148   0.931   0.396   7.387  2.0950  2.9752  0.2341
  154SAPE   C3817149   1.091   0.392   7.534 -0.0215 -0.1281 -0.4372
  154SAPE   H8X17150   1.153   0.467   7.481 -0.2040  1.4366  1.4153
  154SAPE   H8Y17151   1.152   0.314   7.584 -0.4954 -0.6445 -0.6530
  154SAPE   C3917152   0.997   0.467   7.626  0.1025  0.0938 -0.2090
  154SAPE   H9X17153   0.929   0.395   7.676  0.3820  1.5529  2.4422
  154SAPE   H9Y17154   0.934   0.534   7.563 -2.3971 -3.0516 -1.3580
  154SAPE  C31017155   1.069   0.548   7.736  0.8485  0.1845  0.1209
  154SAPE  H10X17156   1.135   0.622   7.684  2.2835 -2.6812 -2.4443
  154SAPE  H10Y17157   1.125   0.491   7.813 -0.3191 -2.3861 -0.8342
  154SAPE  C31117158   0.964   0.624   7.815  1.0470  0.2084 -0.1094
  154SAPE  H11X17159   0.899   0.555   7.873  1.4575  0.8661  1.1843
  154SAPE  H11Y17160   0.891   0.675   7.748  1.6056  0.8340 -0.2516
  154SAPE  C31217161   1.039   0.729   7.905  0.2442 -0.2614 -0.4228
  154SAPE  H12X17162   1.130   0.774   7.859 -0.1595  2.2084  1.0148
  154SAPE  H12Y17163   1.085   0.677   7.992 -1.5051 -0.5200  0.3882
  154SAPE  C31317164   0.952   0.841   7.962  0.7609 -0.0914  0.3106
  154SAPE  H13X17165   0.884   0.801   8.039  0.3165 -0.4607 -0.2613
  154SAPE  H13Y17166   0.883   0.873   7.881  0.2098  0.6906  1.0713
  154SAPE  C31417167   1.031   0.949   8.028 -0.7624 -0.4840 -0.4033
  154SAPE  H14X17168   0.959   1.021   8.072 -0.1283  0.3001 -0.6164
  154SAPE  H14Y17169   1.075   1.009   7.945 -0.2686  1.4064  1.1442
  154SAPE  C31517170   1.133   0.888   8.128  0.1207 -0.0865  0.3121
  154SAPE  H15X17171   1.226   0.861   8.074  1.1160  0.2639  1.8186
  154SAPE  H15Y17172   1.092   0.795   8.173 -0.7754  0.1666  0.0498
  154SAPE  C31617173   1.167   0.979   8.247 -1.0853 -0.6082  0.0246
  154SAPE  H16X17174   1.205   1.079   8.214 -0.6833 -0.0536  2.0370
  154SAPE  H16Y17175   1.245   0.929   8.309 -1.7783  0.7804  2.1346
  154SAPE  C31717176   1.048   1.001   8.345 -0.0785 -0.3931 -0.1563
  154SAPE  H17X17177   0.982   0.912   8.336 -0.1194 -0.3720 -0.0702
  154SAPE  H17Y17178   0.984   1.081   8.303  0.7408 -0.0938 -0.8588
  154SAPE  C31817179   1.088   1.039   8.486 -0.0445 -0.3816 -0.0866
  154SAPE  H18X17180   1.002   1.027   8.555 -0.3831 -1.0286 -0.6020
  154SAPE  H18Y17181   1.138   1.138   8.490  2.7730 -1.7633  1.4215
  154SAPE  H18Z17182   1.171   0.972   8.518  0.7209 -0.6037 -2.3387
  155SAPE     N17183   0.483   1.297   6.297 -0.1545 -0.5498 -0.2216
  155SAPE   HN117184   0.516   1.237   6.219  0.6602 -0.2278 -0.1339
  155SAPE   HN217185   0.534   1.275   6.385 -0.4736  2.1881  0.7308
  155SAPE   HN317186   0.383   1.286   6.322 -0.1142  0.6485  0.5338
  155SAPE   C1217187   0.508   1.445   6.260 -0.0812 -0.3838  0.1214
  155SAPE  H12A17188   0.594   1.450   6.190 -2.2335  1.6256 -2.6489
  155SAPE  H12B17189   0.516   1.502   6.356 -1.1875  0.6021 -0.3386
  155SAPE   C1117190   0.388   1.499   6.187  0.5819  0.2015 -0.0377
  155SAPE  H11A17191   0.383   1.430   6.100  0.9403 -0.3393  0.3647
  155SAPE  H11B17192   0.412   1.601   6.147  1.2889  0.0340 -0.0610
  155SAPE     P17193   0.228   1.619   6.358  0.5249 -0.0803 -0.3372
  155SAPE   O1317194   0.330   1.723   6.343  0.0987 -0.0897  0.1443
  155SAPE   O1417195   0.085   1.659   6.337  0.0392  0.0678  0.5565
  155SAPE   O1217196   0.268   1.496   6.264 -0.2546  0.5043  0.2988
  155SAPE   O1117197   0.246   1.559   6.505  0.7702  0.0886  0.2780
  155SAPE    C117198   0.161   1.449   6.546 -0.4200 -0.3491  0.4753
  155SAPE    HA17199   0.051   1.462   6.548 -0.4752 -0.6885 -0.2962
  155SAPE    HB17200   0.178   1.360   6.482  1.3258  1.3286 -1.5496
  155SAPE    C217201   0.201   1.405   6.692  0.0754 -0.1005 -0.1153
  155SAPE    HS17202   0.307   1.431   6.713 -0.1827  0.9913 -0.0914
  155SAPE   O2117203   0.182   1.264   6.708  0.1901  0.3463 -0.6053
  155SAPE   C2117204   0.276   1.183   6.665  0.4903 -0.1306  0.3264
  155SAPE   O2217205   0.383   1.212   6.609 -0.5727  0.7560  0.1413
  155SAPE   C2217206   0.231   1.040   6.697 -0.4095 -0.1097  0.3864
  155SAPE   H2R17207   0.121   1.042   6.702 -0.4085  1.8380  0.2415
  155SAPE   H2S17208   0.265   0.979   6.610 -0.9978  1.3775 -0.9255
  155SAPE    C317209   0.110   1.493   6.784 -0.0490  0.5706  0.2836
  155SAPE    HX17210   0.005   1.462   6.764  0.2995  1.6947 -4.3516
  155SAPE    HY17211   0.107   1.601   6.758  1.6136  1.0362  1.8618
  155SAPE   O3117212   0.164   1.486   6.916  0.2145 -0.2440  0.3351
  155SAPE   C3117213   0.100   1.394   6.996 -0.2933  0.2108 -0.2220
  155SAPE   O3217214   0.011   1.319   6.956  0.4090 -0.0464  0.8081
  155SAPE   C3217215   0.149   1.410   7.138  0.1732  0.1675  0.1535
  155SAPE   H2X17216   0.256   1.438   7.140  0.7108 -1.5865 -1.2960
  155SAPE   H2Y17217   0.133   1.313   7.190  1.4756 -1.5337 -2.4475
  155SAPE   C2317218   0.301   0.985   6.822 -0.0124  0.2495 -0.4349
  155SAPE   H3R17219   0.409   0.988   6.800  0.5944 -1.3203  2.0113
  155SAPE   H3S17220   0.285   0.877   6.839  0.7954  0.3629  1.1832
  155SAPE   C2417221   0.266   1.049   6.956 -0.2946 -0.7990  0.7475
  155SAPE   H4R17222   0.287   1.158   6.945 -0.0760 -0.9462 -0.4232
  155SAPE   H4S17223   0.341   1.002   7.023  0.6589 -0.3132  0.0507
  155SAPE   C2517224   0.125   1.035   7.007  0.1331 -0.5025 -0.5755
  155SAPE   H5R17225   0.045   1.072   6.940  0.3941  0.5890 -0.3092
  155SAPE   C2617226   0.089   1.001   7.133 -0.6071  0.7500  0.1536
  155SAPE   H6R17227  -0.017   0.983   7.158 -0.6880  1.3876  0.2919
  155SAPE   C2717228   0.179   0.962   7.253  0.7142  0.0935  0.0657
  155SAPE   H7R17229   0.280   0.995   7.224  0.5789  0.2782 -0.1982
  155SAPE   H7S17230   0.178   0.851   7.267 -1.2831  0.2273  1.3791
  155SAPE   C2817231   0.154   1.021   7.393 -0.1565 -0.0476  0.3790
  155SAPE   H8R17232   0.164   1.130   7.399 -1.4885  0.2167 -1.5003
  155SAPE   C2917233   0.134   0.951   7.510 -0.0338  0.4265  0.0984
  155SAPE   H9R17234   0.153   0.996   7.609  2.0342 -0.2233  0.0602
  155SAPE  C21017235   0.124   0.809   7.536 -0.3326  0.0189  0.3455
  155SAPE  H10R17236   0.130   0.788   7.645  3.0274  0.2470  0.3071
  155SAPE  H10S17237   0.212   0.755   7.496 -0.9519  0.1668 -1.2761
  155SAPE  C21117238  -0.011   0.759   7.489 -0.8979 -0.5968  0.0392
  155SAPE  H11R17239  -0.098   0.823   7.509 -0.8188  0.4523 -2.6267
  155SAPE  C21217240  -0.027   0.662   7.399  0.1495 -0.6637 -0.0538
  155SAPE  H12R17241  -0.130   0.631   7.378 -0.5871 -0.4235  2.7231
  155SAPE  C21317242   0.073   0.578   7.330  0.3656  0.0907  0.2052
  155SAPE  H13R17243   0.069   0.480   7.381 -2.8092 -0.3538 -0.6797
  155SAPE  H13S17244   0.176   0.619   7.333  0.0370  1.0622 -0.9262
  155SAPE  C21417245   0.033   0.557   7.179  0.4488  0.6670 -0.6403
  155SAPE  H14R17246  -0.043   0.619   7.129 -0.6899  1.0500  1.4680
  155SAPE  C21517247   0.095   0.468   7.099 -0.4612  0.3062  0.3295
  155SAPE  H15R17248   0.054   0.449   6.998  0.2494 -0.7514  0.2218
  155SAPE  C21617249   0.208   0.370   7.142 -0.4226 -0.2975 -0.0527
  155SAPE  H16R17250   0.255   0.405   7.237  1.2763  0.3547 -1.0967
  155SAPE  H16S17251   0.288   0.380   7.066 -0.6407  4.2879  0.0454
  155SAPE  C21717252   0.155   0.226   7.149 -0.1252 -0.0632  0.4007
  155SAPE  H17R17253   0.064   0.227   7.213  1.1971  1.5741  2.3579
  155SAPE  H17S17254   0.237   0.181   7.210  0.9172  2.0726  0.6473
  155SAPE  C21817255   0.143   0.153   7.013  0.3580 -0.6906 -0.0518
  155SAPE  H18R17256   0.235   0.193   6.964 -0.3692 -0.0095 -0.8994
  155SAPE  H18S17257   0.064   0.207   6.957 -1.4646 -2.4967  0.6967
  155SAPE  C21917258   0.123   0.005   7.020  0.2607 -0.0083 -0.3578
  155SAPE  H19R17259   0.125  -0.033   6.916  2.4326  2.1926 -1.2341
  155SAPE  H19S17260   0.025  -0.020   7.067  0.6794 -1.4194 -0.2104
  155SAPE  C22017261   0.232  -0.060   7.107  0.4724 -0.8830 -0.3828
  155SAPE  H20R17262   0.209  -0.041   7.214 -0.8291  0.4779 -0.8677
  155SAPE  H20S17263   0.326  -0.004   7.083  1.1210 -1.5419  0.5378
  155SAPE  H20T17264   0.248  -0.169   7.096  1.2947 -1.2271  2.9924
  155SAPE   C3317265   0.076   1.512   7.227 -0.0998 -0.1024  0.3916
  155SAPE   H3X17266   0.070   1.609   7.173 -1.4870 -0.5442 -0.2997
  155SAPE   H3Y17267   0.139   1.531   7.317  0.9129  1.3578 -0.5643
  155SAPE   C3417268  -0.071   1.478   7.256 -0.1105  0.5520  0.4246
  155SAPE   H4X17269  -0.120   1.451   7.161 -0.9193 -2.8007  1.6681
  155SAPE   H4Y17270  -0.116   1.573   7.293 -1.1516 -0.0959  0.8439
  155SAPE   C3517271  -0.087   1.370   7.367 -0.1298  0.0088  0.2823
  155SAPE   H5X17272  -0.055   1.274   7.321 -0.0315 -0.5866  1.5541
  155SAPE   H5Y17273  -0.195   1.373   7.392 -0.3738 -1.0420 -0.5422
  155SAPE   C3617274  -0.018   1.403   7.505  0.1559  0.3024  0.2393
  155SAPE   H6X17275  -0.051   1.502   7.544  1.6857  0.8766  0.1199
  155SAPE   H6Y17276   0.091   1.415   7.487 -0.3239  2.2099 -1.7870
  155SAPE   C3717277  -0.042   1.291   7.608  1.5307  0.1611  0.1603
  155SAPE   H7X17278   0.006   1.195   7.582  1.3844  0.1665 -0.1344
  155SAPE   H7Y17279  -0.149   1.269   7.626  1.3430  0.9078 -0.0142
  155SAPE   C3817280   0.018   1.325   7.749 -0.2664 -0.3712  0.6061
  155SAPE   H8X17281  -0.045   1.407   7.790  0.5803 -0.2893  1.7605
  155SAPE   H8Y17282   0.123   1.361   7.749 -0.6710  0.8894  0.8100
  155SAPE   C3917283  -0.019   1.223   7.854 -0.2566  0.5844  0.1418
  155SAPE   H9X17284  -0.128   1.200   7.849 -0.0299 -0.4103 -0.3709
  155SAPE   H9Y17285   0.015   1.272   7.947 -0.2776  0.4698  0.2099
  155SAPE  C31017286   0.054   1.090   7.865  0.2593 -0.2419 -0.5602
  155SAPE  H10X17287   0.160   1.118   7.880  0.3101 -0.0869 -1.1771
  155SAPE  H10Y17288   0.046   1.018   7.782 -0.6242 -0.9865  0.1518
  155SAPE  C31117289   0.014   1.019   7.992 -0.3554  0.0626  0.4609
  155SAPE  H11X17290  -0.093   1.032   8.015 -0.3305  0.3863  0.3991
  155SAPE  H11Y17291   0.074   1.062   8.075  1.8060 -0.5917 -0.6811
  155SAPE  C31217292   0.048   0.866   7.991  0.1561  0.5987  0.3462
  155SAPE  H12X17293   0.156   0.844   7.980  0.0070 -1.1185  1.7463
  155SAPE  H12Y17294   0.002   0.820   7.901  1.0743  0.5758 -0.1242
  155SAPE  C31317295  -0.005   0.785   8.106  0.2605  0.6556  0.2735
  155SAPE  H13X17296  -0.029   0.680   8.080  0.9075  0.2132  1.3590
  155SAPE  H13Y17297  -0.088   0.844   8.151  0.4535 -0.0524  1.6100
  155SAPE  C31417298   0.093   0.775   8.227 -0.3577  0.3480 -0.0088
  155SAPE  H14X17299   0.126   0.878   8.248 -0.3836  0.3287  0.1249
  155SAPE  H14Y17300   0.179   0.714   8.191 -0.1144  2.2417 -3.0199
  155SAPE  C31517301   0.034   0.709   8.352  0.4833  0.3063  0.3741
  155SAPE  H15X17302  -0.037   0.636   8.308 -1.4029  2.1731  0.1893
  155SAPE  H15Y17303  -0.011   0.788   8.415 -2.9388  1.0980 -2.7207
  155SAPE  C31617304   0.138   0.614   8.422  0.1741  0.1924 -0.2461
  155SAPE  H16X17305   0.231   0.665   8.457  0.3514  2.1217 -3.1936
  155SAPE  H16Y17306   0.182   0.547   8.345  1.1352  1.9064 -1.2414
  155SAPE  C31717307   0.081   0.540   8.543 -0.0095  0.0545  0.3164
  155SAPE  H17X17308   0.163   0.470   8.572 -1.0722 -0.0202  3.5765
  155SAPE  H17Y17309   0.004   0.468   8.507 -0.9787  1.4610 -0.4848
  155SAPE  C31817310   0.035   0.619   8.660 -0.7069  0.2313  0.1886
  155SAPE  H18X17311  -0.034   0.565   8.727 -0.4348  0.7042  0.8612
  155SAPE  H18Y17312  -0.015   0.715   8.637 -1.7321  0.1704  1.9928
  155SAPE  H18Z17313   0.124   0.645   8.721  0.6058  0.1266 -1.5859
  156SAPE     N17314   5.073   2.704   6.355 -0.1257  0.2996  0.1360
  156SAPE   HN117315   5.052   2.799   6.318 -0.8630 -0.1518 -0.6266
  156SAPE   HN217316   4.979   2.669   6.383 -0.8579  1.9208 -0.1458
  156SAPE   HN317317   5.139   2.711   6.435  0.3566  0.2598 -0.2525
  156SAPE   C1217318   5.144   2.632   6.253  0.2178  0.0643  0.7685
  156SAPE  H12A17319   5.141   2.691   6.159  1.8150 -0.8194  0.1321
  156SAPE  H12B17320   5.098   2.534   6.230  1.9788 -0.0779 -2.9149
  156SAPE   C1117321   5.296   2.622   6.278 -1.2532  0.5749 -0.2046
  156SAPE  H11A17322   5.327   2.728   6.261 -1.7409  0.5696 -1.2261
  156SAPE  H11B17323   5.347   2.557   6.204  0.6057 -1.7002  2.8554
  156SAPE     P17324   5.472   2.512   6.451 -0.5918  0.2738  0.2977
  156SAPE   O1317325   5.464   2.363   6.449 -0.0808  0.0407 -0.3664
  156SAPE   O1417326   5.571   2.574   6.369 -0.4087 -0.3768 -0.2118
  156SAPE   O1217327   5.330   2.576   6.416 -0.0675 -0.3013 -0.1738
  156SAPE   O1117328   5.491   2.566   6.602  0.2806 -0.0550  0.3258
  156SAPE    C117329   5.396   2.549   6.705  0.0325  0.0201  0.0961
  156SAPE    HA17330   5.292   2.557   6.665 -0.1330  0.2432  0.5708
  156SAPE    HB17331   5.406   2.452   6.757 -0.2639 -1.2706 -2.0968
  156SAPE    C217332   5.411   2.649   6.826 -0.2368 -0.6072  0.3415
  156SAPE    HS17333   5.398   2.752   6.785  0.1782 -0.1305  1.3657
  156SAPE   O2117334   5.542   2.632   6.893 -0.0212 -0.3423  0.2558
  156SAPE   C2117335   5.573   2.721   6.980  0.0403  0.3465  1.0057
  156SAPE   O2217336   5.524   2.827   7.003 -0.3583 -0.3212  0.6212
  156SAPE   C2217337   5.703   2.671   7.046  0.1414 -0.3511  0.2161
  156SAPE   H2R17338   5.730   2.566   7.021 -0.6810 -0.6671  0.6221
  156SAPE   H2S17339   5.791   2.736   7.026 -1.1551  1.3205 -0.2343
  156SAPE    C317340   5.292   2.619   6.931  0.4141 -1.1068  0.5875
  156SAPE    HX17341   5.197   2.639   6.877 -0.4271 -0.9763  2.0421
  156SAPE    HY17342   5.290   2.686   7.020  1.7833 -0.8391  0.4303
  156SAPE   O3117343   5.298   2.483   6.977  0.7223  0.1860 -0.2696
  156SAPE   C3117344   5.196   2.422   7.016 -0.1314  0.3164  0.2440
  156SAPE   O3217345   5.079   2.464   7.019  0.3874  0.1617 -0.0763
  156SAPE   C3217346   5.230   2.275   7.054  0.9355  0.0116 -0.7653
  156SAPE   H2X17347   5.333   2.258   7.016  1.3513  3.6814 -1.6990
  156SAPE   H2Y17348   5.153   2.207   7.011  0.5362  1.0643 -1.8063
  156SAPE   C2317349   5.680   2.657   7.198  0.1831 -0.6816  0.1507
  156SAPE   H3R17350   5.612   2.571   7.217  0.5423 -1.0299 -0.1189
  156SAPE   H3S17351   5.624   2.745   7.236  0.0779 -0.4012 -0.6427
  156SAPE   C2417352   5.807   2.645   7.274 -0.9058 -0.0622 -0.3997
  156SAPE   H4R17353   5.759   2.660   7.372 -0.3777 -0.4279 -0.0811
  156SAPE   H4S17354   5.865   2.734   7.239 -0.7669 -0.9147 -2.5453
  156SAPE   C2517355   5.886   2.520   7.258 -0.0100  0.2619  0.6386
  156SAPE   H5R17356   5.937   2.509   7.161 -1.1986 -3.1717  0.2875
  156SAPE   C2617357   5.916   2.430   7.351  0.0910 -0.2438 -0.0381
  156SAPE   H6R17358   5.955   2.331   7.321 -1.6742 -0.5581 -1.4628
  156SAPE   C2717359   5.888   2.447   7.493  0.3701  0.3413  0.0031
  156SAPE   H7R17360   5.894   2.349   7.546 -0.9420 -0.3269 -1.0271
  156SAPE   H7S17361   5.789   2.497   7.506  0.6703  0.4911  2.0830
  156SAPE   C2817362   5.982   2.542   7.567 -0.0178 -0.8221  0.6536
  156SAPE   H8R17363   6.056   2.585   7.499 -1.2782  1.7616  0.8114
  156SAPE   C2917364   5.995   2.567   7.700  0.3986  0.5126  0.2571
  156SAPE   H9R17365   6.077   2.630   7.737  0.4243  0.5838  0.0819
  156SAPE  C21017366   5.920   2.507   7.812  0.4434  0.6744  0.3294
  156SAPE  H10R17367   5.826   2.562   7.835  0.9382  0.5597  2.9397
  156SAPE  H10S17368   5.975   2.512   7.909 -1.2168  0.9974  1.2916
  156SAPE  C21117369   5.880   2.364   7.808 -0.3444  1.2080 -0.3533
  156SAPE  H11R17370   5.793   2.362   7.740 -0.4717 -1.6034 -0.2330
  156SAPE  C21217371   5.930   2.254   7.866  0.3596 -0.3198 -0.4408
  156SAPE  H12R17372   5.873   2.160   7.865 -1.1420  0.5099  1.5486
  156SAPE  C21317373   6.045   2.251   7.958  0.5104  0.3094  0.5070
  156SAPE  H13R17374   6.081   2.355   7.973 -1.1677  0.8870  0.7551
  156SAPE  H13S17375   6.127   2.203   7.900 -0.0407  1.2957 -1.1409
  156SAPE  C21417376   6.023   2.164   8.082  0.1810 -0.0776  1.0140
  156SAPE  H14R17377   5.943   2.088   8.076  0.4830 -0.2776 -1.0833
  156SAPE  C21517378   6.105   2.169   8.185 -0.5682 -0.0912 -0.0123
  156SAPE  H15R17379   6.099   2.096   8.267  2.5041 -0.8652 -0.3413
  156SAPE  C21617380   6.224   2.249   8.204  0.4053 -0.0057 -0.4260
  156SAPE  H16R17381   6.263   2.304   8.115  0.1552  0.3966 -0.2903
  156SAPE  H16S17382   6.305   2.184   8.244 -2.2697 -3.0990  0.3306
  156SAPE  C21717383   6.202   2.355   8.316 -0.0529 -0.5367  0.1423
  156SAPE  H17R17384   6.153   2.316   8.407 -0.3226  1.2752  0.8015
  156SAPE  H17S17385   6.135   2.434   8.276 -0.1547 -1.0287 -0.6750
  156SAPE  C21817386   6.337   2.406   8.371 -0.8864  0.3801  0.2894
  156SAPE  H18R17387   6.400   2.413   8.279 -0.1759  0.4796  0.7724
  156SAPE  H18S17388   6.398   2.336   8.432 -1.0196  0.0726  0.0688
  156SAPE  C21917389   6.312   2.547   8.431  0.4574  0.6276 -0.4096
  156SAPE  H19R17390   6.221   2.543   8.495  0.8443  1.8507  0.2538
  156SAPE  H19S17391   6.291   2.605   8.339  0.0277  1.3637  0.1392
  156SAPE  C22017392   6.425   2.601   8.518  0.1654  0.6551  0.2444
  156SAPE  H20R17393   6.519   2.587   8.461  0.8944  2.4328  0.9538
  156SAPE  H20S17394   6.429   2.552   8.618 -2.4087  1.4918  0.8440
  156SAPE  H20T17395   6.410   2.705   8.553  0.6035  0.4876  0.9625
  156SAPE   C3317396   5.218   2.267   7.202 -0.3322  0.4812 -0.0448
  156SAPE   H3X17397   5.202   2.160   7.226  3.5249 -0.5377 -1.3080
  156SAPE   H3Y17398   5.136   2.330   7.244 -0.5825 -0.1626  0.4566
  156SAPE   C3417399   5.346   2.305   7.288  0.0920  0.3892  0.5760
  156SAPE   H4X17400   5.362   2.414   7.274  2.3278  0.1263  0.7230
  156SAPE   H4Y17401   5.429   2.243   7.248  0.0203  0.1072  0.8573
  156SAPE   C3517402   5.322   2.283   7.443 -0.4837 -0.1378 -0.2594
  156SAPE   H5X17403   5.322   2.174   7.465  1.1553  0.2047  1.6606
  156SAPE   H5Y17404   5.218   2.314   7.465 -0.4741 -0.8609  0.8668
  156SAPE   C3617405   5.418   2.365   7.531  0.3357  0.2058  0.2173
  156SAPE   H6X17406   5.417   2.470   7.493 -0.6915 -1.3464 -4.8819
  156SAPE   H6Y17407   5.524   2.332   7.528  0.3009 -0.1105  1.8511
  156SAPE   C3717408   5.369   2.362   7.683 -0.1035  0.0630  0.6191
  156SAPE   H7X17409   5.359   2.256   7.715 -2.7893 -0.3127 -1.1533
  156SAPE   H7Y17410   5.277   2.422   7.699  0.6037  0.8345  2.0346
  156SAPE   C3817411   5.475   2.423   7.774 -0.2280  0.2953  0.0869
  156SAPE   H8X17412   5.497   2.531   7.762 -1.5084  1.0511  3.5943
  156SAPE   H8Y17413   5.565   2.362   7.749 -0.4771  0.3538 -0.9965
  156SAPE   C3917414   5.439   2.386   7.914  0.5582 -0.2031 -0.1656
  156SAPE   H9X17415   5.536   2.380   7.967  1.0479  0.9167 -0.8948
  156SAPE   H9Y17416   5.399   2.283   7.922  1.7058 -0.8400 -1.9914
  156SAPE  C31017417   5.344   2.489   7.979 -0.1795  0.3625 -0.2133
  156SAPE  H10X17418   5.238   2.488   7.947 -0.6310  1.8296  1.1110
  156SAPE  H10Y17419   5.367   2.592   7.943  0.2623  0.5001  0.4407
  156SAPE  C31117420   5.335   2.471   8.132 -0.5251  0.4028  0.3139
  156SAPE  H11X17421   5.322   2.365   8.162  0.5360 -0.0861 -0.8873
  156SAPE  H11Y17422   5.244   2.524   8.168 -1.3820 -1.9746  1.9137
  156SAPE  C31217423   5.459   2.516   8.206 -0.2595  0.2962  0.5336
  156SAPE  H12X17424   5.477   2.619   8.166 -1.8106  0.9836  1.5014
  156SAPE  H12Y17425   5.544   2.450   8.178 -0.9926 -1.0566  1.3724
  156SAPE  C31317426   5.445   2.504   8.351 -0.4688  0.0127  0.0573
  156SAPE  H13X17427   5.366   2.570   8.392  0.4330  1.7740 -0.9394
  156SAPE  H13Y17428   5.536   2.538   8.405 -1.0523  2.2907 -0.3257
  156SAPE  C31417429   5.442   2.358   8.401 -0.0534 -0.0444 -0.0321
  156SAPE  H14X17430   5.524   2.298   8.357 -0.5578 -2.0968  1.6241
  156SAPE  H14Y17431   5.348   2.310   8.364 -0.4482 -0.5797  1.5655
  156SAPE  C31517432   5.435   2.349   8.556 -0.8149  0.4208  0.1918
  156SAPE  H15X17433   5.327   2.349   8.582 -0.7731  4.1699  0.8740
  156SAPE  H15Y17434   5.482   2.437   8.606 -1.0421  1.5314 -1.4651
  156SAPE  C31617435   5.503   2.225   8.610  0.5619 -0.1043  0.0991
  156SAPE  H16X17436   5.612   2.226   8.588  1.1425 -2.0492  2.4246
  156SAPE  H16Y17437   5.448   2.136   8.575 -1.2552 -0.2615  3.0752
  156SAPE  C31717438   5.502   2.228   8.765  0.4042  0.0264 -0.0578
  156SAPE  H17X17439   5.398   2.224   8.804  0.0296 -1.6557 -1.1250
  156SAPE  H17Y17440   5.546   2.324   8.797 -2.5506  2.0178 -1.4951
  156SAPE  C31817441   5.582   2.115   8.838  0.3353  0.4518  0.2283
  156SAPE  H18X17442   5.583   2.123   8.949 -0.2983 -1.4687  0.4212
  156SAPE  H18Y17443   5.690   2.111   8.811  0.1409  0.6750 -0.6064
  156SAPE  H18Z17444   5.532   2.018   8.813 -1.1927  1.8982 -2.8685
  157SAPE     N17445   3.783   2.732   6.251 -0.2923 -0.5777  0.1549
  157SAPE   HN117446   3.810   2.810   6.314  0.4430 -0.3382 -0.4455
  157SAPE   HN217447   3.867   2.682   6.216  0.1564 -0.3024  0.8223
  157SAPE   HN317448   3.734   2.767   6.166  0.3850 -1.4691 -0.6241
  157SAPE   C1217449   3.697   2.631   6.323  0.0347  0.5022  0.6194
  157SAPE  H12A17450   3.733   2.615   6.427 -2.2228 -1.9637  1.1371
  157SAPE  H12B17451   3.719   2.537   6.268 -0.1286  0.6196  0.3513
  157SAPE   C1117452   3.543   2.659   6.330 -0.8083 -0.6092  0.3685
  157SAPE  H11A17453   3.530   2.761   6.371 -0.7121  0.0023 -1.0866
  157SAPE  H11B17454   3.498   2.587   6.402 -3.5460 -0.5275 -1.1254
  157SAPE     P17455   3.331   2.649   6.176  0.0895 -0.2880 -0.3337
  157SAPE   O1317456   3.298   2.753   6.081 -0.3917  0.1738  0.2896
  157SAPE   O1417457   3.298   2.510   6.139  0.0212 -0.3578  0.0899
  157SAPE   O1217458   3.488   2.649   6.204  0.1602 -0.1763  0.1944
  157SAPE   O1117459   3.261   2.676   6.317  0.2018 -0.5720 -0.3822
  157SAPE    C117460   3.150   2.769   6.321  0.4406  0.0786  0.0898
  157SAPE    HA17461   3.155   2.850   6.246 -0.6768  0.1163  0.0381
  157SAPE    HB17462   3.061   2.703   6.317  0.7199 -0.2405 -1.5565
  157SAPE    C217463   3.149   2.841   6.460 -0.1086 -0.5800 -0.1949
  157SAPE    HS17464   3.065   2.912   6.479  0.8296  0.4369  0.2741
  157SAPE   O2117465   3.270   2.900   6.494  0.1132 -0.4696 -0.3536
  157SAPE   C2117466   3.307   3.004   6.410  0.3374  0.7278 -0.8947
  157SAPE   O2217467   3.240   3.064   6.328 -0.3188 -0.0053  0.1502
  157SAPE   C2217468   3.446   3.042   6.460 -0.5728 -0.0691  0.6919
  157SAPE   H2R17469   3.487   2.957   6.520  0.8492  1.0141  1.3222
  157SAPE   H2S17470   3.512   3.063   6.374 -2.2097  0.9846 -0.3598
  157SAPE    C317471   3.135   2.733   6.572 -0.6419  1.0201  0.2802
  157SAPE    HX17472   3.227   2.671   6.560 -2.8035 -1.8317 -4.3121
  157SAPE    HY17473   3.051   2.671   6.535  0.5747 -1.3779  1.3216
  157SAPE   O3117474   3.104   2.781   6.706  0.5866  0.6149  0.0855
  157SAPE   C3117475   3.148   2.716   6.809  0.0665 -0.1367 -0.2123
  157SAPE   O3217476   3.214   2.612   6.807  0.3264 -0.0141  0.0410
  157SAPE   C3217477   3.113   2.802   6.933  0.6248 -0.6507 -0.4919
  157SAPE   H2X17478   3.006   2.783   6.954  0.6183 -0.6880 -0.5606
  157SAPE   H2Y17479   3.122   2.911   6.911 -2.1758 -0.3304 -0.4012
  157SAPE   C2317480   3.435   3.159   6.563 -0.2838 -0.3528  0.3076
  157SAPE   H3R17481   3.371   3.231   6.508 -0.6035 -1.0612 -0.2756
  157SAPE   H3S17482   3.539   3.196   6.571  0.5822 -2.4991 -0.3500
  157SAPE   C2417483   3.372   3.123   6.696 -0.1332 -0.3066  0.4867
  157SAPE   H4R17484   3.266   3.096   6.680 -0.1917 -0.8416  1.6735
  157SAPE   H4S17485   3.371   3.219   6.751  2.4891  0.4692 -0.6272
  157SAPE   C2517486   3.436   3.009   6.769  0.3856  0.0356  0.0769
  157SAPE   H5R17487   3.452   2.914   6.715  3.9296  1.0062 -0.8219
  157SAPE   C2617488   3.493   3.008   6.892 -0.1568 -0.2234  0.0966
  157SAPE   H6R17489   3.536   2.919   6.941 -0.0081 -1.5275 -2.2231
  157SAPE   C2717490   3.485   3.128   6.990  0.1313  0.4831 -0.4049
  157SAPE   H7R17491   3.482   3.224   6.934 -2.0737  1.4438  1.2109
  157SAPE   H7S17492   3.578   3.135   7.051 -0.7368  1.4454  0.8616
  157SAPE   C2817493   3.363   3.130   7.079  0.2440  0.2042 -0.2922
  157SAPE   H8R17494   3.272   3.159   7.025  0.6973  0.1460 -1.1048
  157SAPE   C2917495   3.361   3.101   7.212 -0.4829 -0.0957 -0.5794
  157SAPE   H9R17496   3.270   3.093   7.274  0.1570  0.2851  0.4319
  157SAPE  C21017497   3.479   3.065   7.303  0.1383  0.3538 -0.4150
  157SAPE  H10R17498   3.559   3.012   7.247 -1.1633 -0.1175 -1.9212
  157SAPE  H10S17499   3.454   2.990   7.381  0.8320  0.7662  0.2225
  157SAPE  C21117500   3.540   3.182   7.367 -0.6823  0.2306 -0.2191
  157SAPE  H11R17501   3.574   3.256   7.293 -1.6817  0.2057 -0.7282
  157SAPE  C21217502   3.552   3.212   7.501 -0.0980 -0.2781  0.2459
  157SAPE  H12R17503   3.590   3.312   7.524 -0.8336  0.1077 -0.1849
  157SAPE  C21317504   3.526   3.126   7.625  0.0702  0.2839  0.2988
  157SAPE  H13R17505   3.628   3.107   7.663  1.1132  0.1478 -2.3441
  157SAPE  H13S17506   3.484   3.028   7.594 -1.7347  1.5062 -1.3927
  157SAPE  C21417507   3.431   3.197   7.717 -0.7769 -0.2376  0.2829
  157SAPE  H14R17508   3.347   3.258   7.682 -0.6203 -0.3288 -0.2677
  157SAPE  C21517509   3.418   3.160   7.850  0.3753 -0.0158 -0.5391
  157SAPE  H15R17510   3.338   3.213   7.904 -0.3217 -2.0875  0.5537
  157SAPE  C21617511   3.486   3.056   7.929  0.5004 -0.1252  0.1250
  157SAPE  H16R17512   3.535   2.989   7.855 -2.1239 -2.6969  0.5157
  157SAPE  H16S17513   3.419   2.987   7.984 -1.4692  1.0396 -0.7009
  157SAPE  C21717514   3.591   3.111   8.028  0.6217 -0.5853 -0.6869
  157SAPE  H17R17515   3.541   3.184   8.096  0.7191 -0.1121 -1.1139
  157SAPE  H17S17516   3.662   3.173   7.969  1.6658 -1.1902 -0.1076
  157SAPE  C21817517   3.664   2.997   8.101  0.8519 -0.4643 -0.1549
  157SAPE  H18R17518   3.725   2.948   8.022  0.7371  0.2287 -0.6807
  157SAPE  H18S17519   3.587   2.928   8.143  0.1576  0.5284  0.2573
  157SAPE  C21917520   3.753   3.040   8.214  0.0179  0.4560 -0.1091
  157SAPE  H19R17521   3.824   2.959   8.241  0.6151  1.3377  1.0429
  157SAPE  H19S17522   3.688   3.044   8.304 -0.8926  2.3257 -0.7820
  157SAPE  C22017523   3.828   3.175   8.221  0.7483  0.7116  0.3052
  157SAPE  H20R17524   3.881   3.187   8.125 -2.0002 -0.0940 -1.4389
  157SAPE  H20S17525   3.900   3.157   8.303  1.2145 -2.5099 -0.6682
  157SAPE  H20T17526   3.767   3.265   8.244  0.3823  0.5224  0.0773
  157SAPE   C3317527   3.181   2.759   7.069  0.3058 -0.0641  0.3511
  157SAPE   H3X17528   3.291   2.772   7.060  0.3005  0.4661  0.9618
  157SAPE   H3Y17529   3.168   2.650   7.084 -1.0279  0.2503  1.6982
  157SAPE   C3417530   3.118   2.812   7.201 -0.6665  0.7938 -0.5976
  157SAPE   H4X17531   3.017   2.767   7.211 -0.7552  1.1279  0.0995
  157SAPE   H4Y17532   3.113   2.921   7.186  0.8201  0.5979 -3.0496
  157SAPE   C3517533   3.203   2.789   7.329  0.2056 -0.1571  0.2615
  157SAPE   H5X17534   3.300   2.841   7.317 -0.1260  0.3016 -0.4534
  157SAPE   H5Y17535   3.234   2.684   7.343  0.9392 -0.1172 -1.0061
  157SAPE   C3617536   3.117   2.820   7.457  0.0347 -0.2892  0.1347
  157SAPE   H6X17537   3.038   2.741   7.458  1.2592 -1.5886 -1.0722
  157SAPE   H6Y17538   3.065   2.917   7.445 -0.0129 -0.0700  1.8748
  157SAPE   C3717539   3.192   2.807   7.593 -0.2308  0.2193 -0.0014
  157SAPE   H7X17540   3.285   2.866   7.581 -0.4854  0.8525  1.0159
  157SAPE   H7Y17541   3.238   2.706   7.606 -0.2937  0.3647  1.5163
  157SAPE   C3817542   3.111   2.850   7.710 -0.1247  0.1700 -0.1323
  157SAPE   H8X17543   3.033   2.772   7.723  1.3098 -1.4757 -0.9002
  157SAPE   H8Y17544   3.059   2.945   7.687 -4.0622 -1.9700 -0.9607
  157SAPE   C3917545   3.185   2.850   7.838  0.0916 -0.1323 -0.2967
  157SAPE   H9X17546   3.280   2.903   7.816  1.7614 -2.6568  0.4822
  157SAPE   H9Y17547   3.198   2.741   7.857 -0.7585 -0.4658 -1.4913
  157SAPE  C31017548   3.105   2.901   7.956  0.2421 -0.7744 -0.0254
  157SAPE  H10X17549   2.998   2.871   7.949  0.3233 -1.7541  2.2376
  157SAPE  H10Y17550   3.086   3.010   7.950  0.7366 -0.6507  0.6008
  157SAPE  C31117551   3.169   2.866   8.093  0.1619  0.5767  1.3314
  157SAPE  H11X17552   3.270   2.911   8.109  0.6795 -1.1276  3.1941
  157SAPE  H11Y17553   3.199   2.759   8.091  0.4513  0.6554 -0.2500
  157SAPE  C31217554   3.084   2.907   8.212 -0.1471 -0.1592  0.1266
  157SAPE  H12X17555   2.998   2.973   8.188 -0.0350  1.6337  3.9372
  157SAPE  H12Y17556   3.141   2.974   8.281  1.4041 -0.3258 -0.9293
  157SAPE  C31317557   3.018   2.801   8.297 -0.2736 -0.7345 -0.5632
  157SAPE  H13X17558   2.931   2.753   8.247 -0.5784  1.0641 -1.8913
  157SAPE  H13Y17559   2.967   2.843   8.386  0.0630 -2.4508  0.4858
  157SAPE  C31417560   3.107   2.688   8.351 -0.4681 -0.5313  0.1801
  157SAPE  H14X17561   3.176   2.732   8.426 -0.7856 -0.0076  0.1720
  157SAPE  H14Y17562   3.173   2.650   8.270 -1.2988 -0.1351 -0.6998
  157SAPE  C31517563   3.023   2.577   8.416  0.0093  0.6358  0.1470
  157SAPE  H15X17564   2.955   2.530   8.342  1.1858 -3.4586  1.4077
  157SAPE  H15Y17565   2.954   2.624   8.490  1.5678  1.4127  1.1635
  157SAPE  C31617566   3.103   2.466   8.480 -0.2606 -1.2614 -0.6327
  157SAPE  H16X17567   3.167   2.500   8.564  0.5025 -2.5394 -0.6578
  157SAPE  H16Y17568   3.168   2.422   8.401  1.3565  0.8551 -0.5313
  157SAPE  C31717569   3.019   2.351   8.533 -0.5804  0.5205 -0.1142
  157SAPE  H17X17570   3.086   2.265   8.553 -1.3040 -0.0562 -0.1288
  157SAPE  H17Y17571   2.947   2.311   8.458  0.1329  1.1956 -1.2069
  157SAPE  C31817572   2.956   2.384   8.665 -0.2233 -0.1755 -0.2394
  157SAPE  H18X17573   2.906   2.295   8.709 -1.6381 -0.6371 -2.6148
  157SAPE  H18Y17574   2.878   2.461   8.648 -1.0566 -0.8168  0.5613
  157SAPE  H18Z17575   3.037   2.412   8.736 -0.3217 -1.8685  0.5914
  158SAPE     N17576   4.585   2.347   6.616  0.5718 -0.1909  0.2500
  158SAPE   HN117577   4.578   2.400   6.527 -0.6692 -0.3133  0.2499
  158SAPE   HN217578   4.645   2.406   6.676  0.1783 -0.8081  1.2856
  158SAPE   HN317579   4.638   2.265   6.580  1.8978  0.1494  1.3690
  158SAPE   C1217580   4.453   2.299   6.664  0.1508 -1.4097  0.4059
  158SAPE  H12A17581   4.401   2.382   6.716  1.2004 -2.6119  3.6074
  158SAPE  H12B17582   4.465   2.214   6.735  0.7213 -2.0412 -0.4212
  158SAPE   C1117583   4.359   2.250   6.546 -0.7226 -0.3865  0.2250
  158SAPE  H11A17584   4.330   2.339   6.487 -0.3430 -0.0074  0.6065
  158SAPE  H11B17585   4.270   2.219   6.605  0.7334 -0.5145  2.4650
  158SAPE     P17586   4.347   2.009   6.445 -0.0538  0.0362 -0.1280
  158SAPE   O1317587   4.229   2.032   6.358  0.2758  0.6124  0.2918
  158SAPE   O1417588   4.443   1.908   6.396 -0.9478  0.1361  0.5366
  158SAPE   O1217589   4.420   2.148   6.469  0.0618 -0.5483  0.0545
  158SAPE   O1117590   4.304   1.974   6.590 -0.4157  0.0565 -0.1011
  158SAPE    C117591   4.386   1.894   6.676  0.1685  0.0825  0.2329
  158SAPE    HA17592   4.493   1.897   6.646 -0.4164  2.6858 -1.9650
  158SAPE    HB17593   4.372   1.924   6.782 -0.1290 -0.5067  0.3617
  158SAPE    C217594   4.340   1.743   6.676 -0.1387 -0.0906 -0.4151
  158SAPE    HS17595   4.318   1.712   6.572 -2.2849 -1.6669  0.4397
  158SAPE   O2117596   4.218   1.727   6.759  0.3163 -0.7083 -0.8873
  158SAPE   C2117597   4.120   1.655   6.707  0.0806 -0.4079  0.0429
  158SAPE   O2217598   4.114   1.612   6.592  0.0333 -0.3979  0.2627
  158SAPE   C2217599   4.017   1.606   6.816 -1.0104 -0.7256 -0.0056
  158SAPE   H2R17600   3.921   1.585   6.764 -1.5738 -1.2558  1.2263
  158SAPE   H2S17601   4.054   1.515   6.868  0.5923 -0.8023 -1.2016
  158SAPE    C317602   4.446   1.652   6.738 -0.0174 -0.3082 -0.2920
  158SAPE    HX17603   4.539   1.661   6.677  0.0586  1.5600  0.0238
  158SAPE    HY17604   4.420   1.545   6.722 -2.1197  0.3467 -1.7333
  158SAPE   O3117605   4.475   1.686   6.875  0.3069  0.2191 -0.4333
  158SAPE   C3117606   4.396   1.642   6.971 -0.5232 -0.2038  0.5873
  158SAPE   O3217607   4.317   1.551   6.959  0.3358 -0.0547 -0.0868
  158SAPE   C3217608   4.418   1.725   7.096 -0.6825  0.0285 -0.2635
  158SAPE   H2X17609   4.319   1.770   7.118 -0.1131  1.4854 -0.5671
  158SAPE   H2Y17610   4.481   1.814   7.075 -1.2085  0.7791  1.2168
  158SAPE   C2317611   3.989   1.713   6.922 -0.0992 -1.1505  0.2744
  158SAPE   H3R17612   3.980   1.816   6.882 -1.0612 -0.9943  0.8546
  158SAPE   H3S17613   4.082   1.722   6.984  0.8289 -0.0435 -1.2143
  158SAPE   C2417614   3.879   1.689   7.018 -0.7269 -0.0391  0.0585
  158SAPE   H4R17615   3.913   1.601   7.076 -0.7574 -0.2562 -0.2503
  158SAPE   H4S17616   3.804   1.641   6.951 -0.1127 -0.0146 -0.6607
  158SAPE   C2517617   3.828   1.812   7.098 -0.8829  0.0438  0.3647
  158SAPE   H5R17618   3.756   1.880   7.050 -0.4211  0.5156  0.3366
  158SAPE   C2617619   3.885   1.843   7.217 -0.8520 -0.1907 -0.0111
  158SAPE   H6R17620   3.835   1.920   7.278 -2.7157 -2.8514  2.1079
  158SAPE   C2717621   3.996   1.766   7.290  0.1046  0.2794  0.1438
  158SAPE   H7R17622   4.067   1.836   7.339  1.8260 -2.3868  1.6954
  158SAPE   H7S17623   4.056   1.709   7.216 -0.2062 -1.3430  1.0856
  158SAPE   C2817624   3.931   1.665   7.379  0.3852  0.1395  0.6827
  158SAPE   H8R17625   3.871   1.594   7.320 -0.1671 -0.6877  2.2046
  158SAPE   C2917626   3.912   1.663   7.508 -0.0538  0.7208 -0.6660
  158SAPE   H9R17627   3.851   1.580   7.548 -0.7831  1.2294 -0.7095
  158SAPE  C21017628   3.966   1.766   7.602  0.7257 -0.1348 -0.7576
  158SAPE  H10R17629   4.063   1.803   7.562  1.4859 -3.7093 -2.6668
  158SAPE  H10S17630   3.991   1.725   7.702 -0.2948  0.4181 -0.2605
  158SAPE  C21117631   3.873   1.886   7.609  0.4094  0.2087  0.5513
  158SAPE  H11R17632   3.856   1.956   7.526 -1.3301  0.4548  1.0689
  158SAPE  C21217633   3.821   1.928   7.721 -0.1637  0.0076  0.3870
  158SAPE  H12R17634   3.751   2.013   7.716  1.2352  1.2266  0.6394
  158SAPE  C21317635   3.833   1.870   7.862 -0.3206  0.1392  0.3447
  158SAPE  H13R17636   3.930   1.820   7.878 -0.7047 -0.0383  2.3547
  158SAPE  H13S17637   3.750   1.797   7.869  0.5748 -1.4791 -3.4055
  158SAPE  C21417638   3.827   1.986   7.965  0.4044  0.4156  0.1001
  158SAPE  H14R17639   3.810   2.087   7.924 -1.6723  0.4677  0.9566
  158SAPE  C21517640   3.821   1.968   8.100 -0.1994 -0.1222  0.4717
  158SAPE  H15R17641   3.828   2.060   8.160 -0.7558  1.2780 -1.4895
  158SAPE  C21617642   3.833   1.836   8.174  1.0152 -1.2251 -0.0226
  158SAPE  H16R17643   3.930   1.829   8.228  1.1032  0.6824  0.1229
  158SAPE  H16S17644   3.823   1.741   8.117 -0.6340 -1.2155  0.2044
  158SAPE  C21717645   3.719   1.823   8.268  0.2200  0.4881  0.4924
  158SAPE  H17R17646   3.633   1.795   8.204 -0.5383 -1.3728  2.2311
  158SAPE  H17S17647   3.692   1.915   8.325 -1.2792 -1.4157  3.0870
  158SAPE  C21817648   3.739   1.712   8.373 -0.4390  0.4362 -0.2163
  158SAPE  H18R17649   3.814   1.754   8.444  0.7652  0.1296 -1.2856
  158SAPE  H18S17650   3.770   1.616   8.328 -0.5632  0.9150 -1.3434
  158SAPE  C21917651   3.602   1.675   8.460 -0.9198 -0.1889 -0.0915
  158SAPE  H19R17652   3.516   1.662   8.392 -2.3604 -0.7260  1.7494
  158SAPE  H19S17653   3.588   1.770   8.516  0.8943  0.1999 -0.2295
  158SAPE  C22017654   3.615   1.545   8.544 -0.3223 -0.1661 -0.2163
  158SAPE  H20R17655   3.629   1.463   8.470 -1.5440  1.7979 -2.7847
  158SAPE  H20S17656   3.525   1.520   8.605 -1.0932 -1.1919 -1.7171
  158SAPE  H20T17657   3.702   1.563   8.610 -0.3817  2.4835 -0.7760
  158SAPE   C3317658   4.467   1.649   7.221  0.1587 -0.0033  0.0307
  158SAPE   H3X17659   4.573   1.617   7.214  0.2220  0.0575  0.6788
  158SAPE   H3Y17660   4.391   1.569   7.234 -1.5139  1.2713 -1.3491
  158SAPE   C3417661   4.446   1.728   7.346  0.2401 -0.0078 -1.0954
  158SAPE   H4X17662   4.338   1.752   7.357  0.5897  0.9292  0.6487
  158SAPE   H4Y17663   4.506   1.822   7.349  0.2823 -0.0523  0.7199
  158SAPE   C3517664   4.481   1.651   7.478  0.6441 -1.0662 -0.4437
  158SAPE   H5X17665   4.592   1.656   7.481  0.6505 -1.0983  2.7979
  158SAPE   H5Y17666   4.452   1.545   7.461  0.4107 -0.9084 -1.0580
  158SAPE   C3617667   4.409   1.712   7.604  0.0775 -0.3030  0.8491
  158SAPE   H6X17668   4.298   1.701   7.605 -0.1376  1.5442  0.7821
  158SAPE   H6Y17669   4.436   1.819   7.610 -1.1113  0.2156 -1.6211
  158SAPE   C3717670   4.460   1.657   7.738 -0.9798 -0.6604  0.0156
  158SAPE   H7X17671   4.441   1.549   7.759 -4.2226 -0.0182  0.8246
  158SAPE   H7Y17672   4.571   1.664   7.738 -0.9372 -0.2446  2.9586
  158SAPE   C3817673   4.407   1.733   7.862  0.4064  0.5145  0.3633
  158SAPE   H8X17674   4.426   1.841   7.846  1.1617  0.4006  0.4323
  158SAPE   H8Y17675   4.454   1.699   7.957  0.6926 -1.3257 -0.3983
  158SAPE   C3917676   4.258   1.711   7.891 -0.2331 -0.2817 -0.0706
  158SAPE   H9X17677   4.240   1.602   7.903 -3.7008 -0.1127 -2.4093
  158SAPE   H9Y17678   4.202   1.749   7.803  0.2602 -1.5982 -0.9837
  158SAPE  C31017679   4.219   1.783   8.023  0.0834 -1.0491  0.4099
  158SAPE  H10X17680   4.111   1.760   8.035 -0.0199 -1.1302 -0.5936
  158SAPE  H10Y17681   4.247   1.890   8.016 -0.2795 -1.0306 -1.0897
  158SAPE  C31117682   4.282   1.720   8.142 -0.0760 -0.9968 -0.1432
  158SAPE  H11X17683   4.381   1.766   8.166 -0.5283 -0.4516  0.7492
  158SAPE  H11Y17684   4.303   1.613   8.122 -1.3008 -1.0172 -1.4013
  158SAPE  C31217685   4.188   1.712   8.262 -0.8304  0.0652  0.0224
  158SAPE  H12X17686   4.091   1.670   8.227  0.3915 -2.1209 -0.9518
  158SAPE  H12Y17687   4.163   1.811   8.305 -1.5980  0.1184 -0.5328
  158SAPE  C31317688   4.239   1.614   8.374 -0.3040  0.2739 -0.0313
  158SAPE  H13X17689   4.173   1.637   8.460 -0.5544  3.2653 -0.9239
  158SAPE  H13Y17690   4.344   1.640   8.399 -0.0311 -2.1171  1.6397
  158SAPE  C31417691   4.214   1.474   8.336  0.2411  0.1141 -0.2875
  158SAPE  H14X17692   4.242   1.449   8.231  0.3179 -1.9905  0.1892
  158SAPE  H14Y17693   4.105   1.455   8.348  0.1844  1.7398  2.6750
  158SAPE  C31517694   4.299   1.382   8.428 -0.0073 -0.2882 -0.2407
  158SAPE  H15X17695   4.259   1.387   8.532  1.1418 -1.5443  0.2982
  158SAPE  H15Y17696   4.403   1.423   8.430  0.2948 -1.0342  1.0412
  158SAPE  C31617697   4.299   1.236   8.391 -0.0388 -0.1085  0.3246
  158SAPE  H16X17698   4.376   1.182   8.450 -0.3435 -1.0718 -0.1358
  158SAPE  H16Y17699   4.317   1.234   8.281 -0.4565  1.7790  0.1824
  158SAPE  C31717700   4.175   1.162   8.426  0.8023  0.7604  0.1755
  158SAPE  H17X17701   4.084   1.218   8.396  0.7298  2.2331  2.8178
  158SAPE  H17Y17702   4.172   1.152   8.537  1.8266  3.5134  0.5472
  158SAPE  C31817703   4.145   1.023   8.368  0.3553 -0.5411 -0.2925
  158SAPE  H18X17704   4.153   1.020   8.257  2.2806  1.1577 -0.2733
  158SAPE  H18Y17705   4.051   0.987   8.413 -0.4328  1.5909 -0.0983
  158SAPE  H18Z17706   4.232   0.959   8.395  0.5664 -0.7778 -1.4607
  159SAPE     N17707   3.401   5.945   6.022  0.1421 -0.3095  0.1468
  159SAPE   HN117708   3.363   6.033   6.062 -0.2557  0.4721 -1.8231
  159SAPE   HN217709   3.501   5.969   6.003 -0.1399  0.8977  0.0666
  159SAPE   HN317710   3.336   5.933   5.942 -2.2037  0.8501  1.7738
  159SAPE   C1217711   3.393   5.836   6.122  0.7381  0.3495  0.1363
  159SAPE  H12A17712   3.294   5.844   6.174  0.5280 -0.4165 -0.1238
  159SAPE  H12B17713   3.470   5.854   6.200 -0.1242  1.3926  0.7855
  159SAPE   C1117714   3.414   5.693   6.061  0.1968 -0.4178 -0.2099
  159SAPE  H11A17715   3.348   5.674   5.973 -0.0257 -2.6113  0.3741
  159SAPE  H11B17716   3.389   5.623   6.144  0.5175 -0.7284 -0.3711
  159SAPE     P17717   3.639   5.558   5.997 -0.1930  0.3337  0.0349
  159SAPE   O1317718   3.564   5.447   6.053 -0.7738 -0.2476 -0.1947
  159SAPE   O1417719   3.694   5.549   5.865 -0.7054 -0.3621  0.1824
  159SAPE   O1217720   3.549   5.689   6.008 -0.0231  0.3476 -0.1003
  159SAPE   O1117721   3.767   5.590   6.081 -0.6436 -0.1646  0.6076
  159SAPE    C117722   3.787   5.717   6.154 -0.3768 -0.8608 -0.3004
  159SAPE    HA17723   3.888   5.758   6.134 -0.6156 -0.6476 -1.1033
  159SAPE    HB17724   3.715   5.799   6.133  1.6219  1.6146  1.7546
  159SAPE    C217725   3.776   5.699   6.308  0.2813 -0.4041  0.1500
  159SAPE    HS17726   3.845   5.614   6.331 -0.2491 -0.8614  0.0765
  159SAPE   O2117727   3.641   5.661   6.341  0.5186 -0.0188  0.0018
  159SAPE   C2117728   3.631   5.558   6.423 -0.3378 -0.5669  0.0639
  159SAPE   O2217729   3.721   5.488   6.462  0.3492  0.1949  0.2389
  159SAPE   C2217730   3.480   5.535   6.455 -0.1199  0.1079  0.7285
  159SAPE   H2R17731   3.407   5.549   6.373  1.1292  0.8765 -0.2899
  159SAPE   H2S17732   3.478   5.427   6.483 -0.7275  0.1039  0.6654
  159SAPE    C317733   3.809   5.822   6.401 -0.1476 -0.0279  0.2772
  159SAPE    HX17734   3.732   5.896   6.373 -0.3558 -0.1038  0.6552
  159SAPE    HY17735   3.903   5.876   6.377 -1.0756  0.9152 -1.4074
  159SAPE   O3117736   3.789   5.787   6.542  0.2413 -0.2852  0.3011
  159SAPE   C3117737   3.901   5.755   6.602  0.0920  0.0986  0.9865
  159SAPE   O3217738   4.010   5.735   6.552  0.2767 -0.3215 -0.1380
  159SAPE   C3217739   3.881   5.755   6.757 -0.1437  0.1344 -0.1442
  159SAPE   H2X17740   3.795   5.690   6.783  0.7743 -1.0840 -0.0342
  159SAPE   H2Y17741   3.852   5.858   6.784  0.9223 -0.2397  2.7031
  159SAPE   C2317742   3.427   5.624   6.573 -0.2718 -0.3744  0.1843
  159SAPE   H3R17743   3.466   5.588   6.671  0.8563  0.2763 -0.0142
  159SAPE   H3S17744   3.319   5.600   6.586 -0.4618 -1.5000 -2.6894
  159SAPE   C2417745   3.445   5.779   6.547 -0.1254 -1.1391 -0.5642
  159SAPE   H4R17746   3.400   5.802   6.448  2.2454 -2.6758 -2.0930
  159SAPE   H4S17747   3.552   5.809   6.551 -0.1168 -1.3033  0.8636
  159SAPE   C2517748   3.366   5.837   6.662 -0.0798  0.1590  0.6660
  159SAPE   H5R17749   3.265   5.865   6.627  0.3830 -0.2814 -1.1429
  159SAPE   C2617750   3.398   5.883   6.790 -0.1697 -0.8034  0.9631
  159SAPE   H6R17751   3.317   5.935   6.842 -0.7077  0.4250 -0.9904
  159SAPE   C2717752   3.525   5.879   6.863  0.5639  0.3961  0.3267
  159SAPE   H7R17753   3.550   5.983   6.894  1.3522  0.6246 -0.9743
  159SAPE   H7S17754   3.604   5.865   6.785  1.2627  0.9871  0.9034
  159SAPE   C2817755   3.542   5.774   6.966  0.7159  0.2193 -0.0747
  159SAPE   H8R17756   3.604   5.689   6.933  0.9366  0.0408  0.7784
  159SAPE   C2917757   3.499   5.797   7.095 -0.4701 -0.1225 -0.4387
  159SAPE   H9R17758   3.535   5.725   7.170  0.1895  1.0379  0.4053
  159SAPE  C21017759   3.440   5.921   7.153  0.7457  0.5414 -0.1743
  159SAPE  H10R17760   3.444   6.003   7.078 -0.0066 -0.9136 -1.8716
  159SAPE  H10S17761   3.488   5.938   7.252  0.0472  2.1985 -0.0817
  159SAPE  C21117762   3.297   5.891   7.186 -1.3686  0.2863  0.7406
  159SAPE  H11R17763   3.280   5.783   7.197  1.4845 -0.3736 -0.4141
  159SAPE  C21217764   3.200   5.979   7.207 -0.8767 -0.1988 -0.7578
  159SAPE  H12R17765   3.104   5.932   7.234  0.6299 -1.7235  2.6091
  159SAPE  C21317766   3.192   6.127   7.199  0.4975 -0.6443 -0.7398
  159SAPE  H13R17767   3.090   6.158   7.169  0.3778  3.1427  2.6911
  159SAPE  H13S17768   3.261   6.171   7.124 -0.8613  4.1941  0.4839
  159SAPE  C21417769   3.211   6.198   7.335  0.9797 -0.0633 -0.2826
  159SAPE  H14R17770   3.315   6.218   7.362  1.0044  0.2115 -0.5756
  159SAPE  C21517771   3.111   6.234   7.422  0.1403 -0.1247  0.4274
  159SAPE  H15R17772   3.139   6.291   7.512  2.6459  0.0743 -0.4043
  159SAPE  C21617773   2.966   6.205   7.415  0.4504  0.6106  0.5382
  159SAPE  H16R17774   2.947   6.097   7.398 -1.1579  0.9090  0.2135
  159SAPE  H16S17775   2.920   6.254   7.326  1.2907  0.7319  0.1585
  159SAPE  C21717776   2.877   6.254   7.537  0.1213  0.5420  0.5806
  159SAPE  H17R17777   2.891   6.364   7.544 -1.4909  0.7460  0.9094
  159SAPE  H17S17778   2.918   6.204   7.627 -3.2910 -0.2627  1.8239
  159SAPE  C21817779   2.728   6.227   7.521 -0.0163 -0.1826 -0.1803
  159SAPE  H18R17780   2.732   6.116   7.508  1.1683  0.0249 -2.0526
  159SAPE  H18S17781   2.687   6.272   7.428  1.8692 -1.0418 -1.5089
  159SAPE  C21917782   2.646   6.265   7.641 -0.4160  0.7386 -0.1242
  159SAPE  H19R17783   2.683   6.365   7.674 -0.8895  1.5102 -1.8411
  159SAPE  H19S17784   2.672   6.189   7.719  2.0690  1.8294  0.2169
  159SAPE  C22017785   2.497   6.270   7.621 -0.0601 -0.3104  0.4762
  159SAPE  H20R17786   2.438   6.297   7.711 -1.2186  1.7842 -0.8289
  159SAPE  H20S17787   2.467   6.166   7.594  1.6155 -1.0046  1.1739
  159SAPE  H20T17788   2.462   6.341   7.543  0.3121 -0.7192 -0.0767
  159SAPE   C3317789   4.000   5.692   6.832  0.1981  0.1364  0.0271
  159SAPE   H3X17790   4.090   5.752   6.805  1.5589 -1.2705  1.2046
  159SAPE   H3Y17791   4.025   5.590   6.796 -0.1686 -0.0160  0.1974
  159SAPE   C3417792   3.986   5.685   6.989 -0.0053  0.6146  0.5656
  159SAPE   H4X17793   4.075   5.627   7.020  0.4033  1.2195  0.5303
  159SAPE   H4Y17794   3.897   5.627   7.022  0.6358  0.4812  2.1146
  159SAPE   C3517795   3.988   5.825   7.049  0.8610 -0.0941 -0.4429
  159SAPE   H5X17796   3.894   5.878   7.026  1.0472  1.2495  1.6315
  159SAPE   H5Y17797   4.069   5.891   7.010  0.1209  1.0396 -0.1055
  159SAPE   C3617798   4.000   5.814   7.206  0.1755 -0.2005  0.4037
  159SAPE   H6X17799   4.098   5.766   7.225 -0.1959 -1.3766 -0.5325
  159SAPE   H6Y17800   3.915   5.746   7.230 -0.6165  0.1692 -1.1606
  159SAPE   C3717801   3.986   5.943   7.285 -0.5309 -0.0792  1.0051
  159SAPE   H7X17802   3.881   5.978   7.287 -1.0238 -1.4097 -0.3539
  159SAPE   H7Y17803   4.039   6.031   7.242 -0.8384 -0.3678  0.0153
  159SAPE   C3817804   4.021   5.925   7.434 -0.0443 -1.1297  0.2123
  159SAPE   H8X17805   3.985   5.832   7.483  0.1413 -1.1974  0.2207
  159SAPE   H8Y17806   3.986   6.020   7.480 -1.3438 -1.3431 -0.3251
  159SAPE   C3917807   4.173   5.920   7.457  0.4974 -0.5004  0.4313
  159SAPE   H9X17808   4.219   6.002   7.397 -0.7834  0.5234  0.7954
  159SAPE   H9Y17809   4.209   5.822   7.420 -3.6475 -1.7810 -0.7470
  159SAPE  C31017810   4.205   5.936   7.607 -0.2277  0.8735 -0.0493
  159SAPE  H10X17811   4.171   5.851   7.670 -0.2839  0.3662 -0.7536
  159SAPE  H10Y17812   4.146   6.022   7.645 -1.9614 -0.2825 -0.0364
  159SAPE  C31117813   4.359   5.940   7.625 -0.3124  0.2494  0.3608
  159SAPE  H11X17814   4.396   6.032   7.575  1.1173 -0.9967 -1.0297
  159SAPE  H11Y17815   4.404   5.856   7.567  0.9552 -0.0323  1.6937
  159SAPE  C31217816   4.412   5.927   7.764  0.2918 -0.1973 -0.2207
  159SAPE  H12X17817   4.524   5.924   7.764  0.3787  1.8061  0.6480
  159SAPE  H12Y17818   4.380   5.828   7.804  1.5020 -1.2917 -1.7803
  159SAPE  C31317819   4.370   6.040   7.852  1.5811 -0.5592 -0.4430
  159SAPE  H13X17820   4.260   6.027   7.860  1.4454  0.2514 -0.9556
  159SAPE  H13Y17821   4.386   6.135   7.796  3.1106 -1.4150 -1.5404
  159SAPE  C31417822   4.428   6.030   7.996  0.3554  0.2950  0.4249
  159SAPE  H14X17823   4.534   6.007   7.973 -0.0838 -2.6692  0.9657
  159SAPE  H14Y17824   4.376   5.943   8.042  1.3171 -0.8288 -0.5309
  159SAPE  C31517825   4.412   6.152   8.086  0.1811 -0.0157 -0.0487
  159SAPE  H15X17826   4.308   6.149   8.125 -0.1008 -2.4103 -0.7911
  159SAPE  H15Y17827   4.421   6.244   8.025 -1.9457 -0.2840 -0.8580
  159SAPE  C31617828   4.512   6.161   8.201 -0.4929 -0.1483  0.6661
  159SAPE  H16X17829   4.491   6.255   8.256 -2.7112 -1.4987  2.2521
  159SAPE  H16Y17830   4.607   6.170   8.144 -2.8885  3.5361 -3.4638
  159SAPE  C31717831   4.507   6.038   8.290  1.5176 -0.1968 -0.3583
  159SAPE  H17X17832   4.530   5.940   8.243 -1.6869 -0.4420 -1.7002
  159SAPE  H17Y17833   4.403   6.012   8.321  0.7135 -0.1167 -2.7740
  159SAPE  C31817834   4.578   6.047   8.420 -0.1040  0.4180  0.3345
  159SAPE  H18X17835   4.581   5.948   8.470  1.1387 -0.9872 -2.3046
  159SAPE  H18Y17836   4.524   6.108   8.495 -1.1921  0.6922 -0.6314
  159SAPE  H18Z17837   4.683   6.082   8.412  1.4272 -2.3892  4.6435
  160SAPE     N17838   5.123   1.766   6.657  0.4040 -0.1805  0.0329
  160SAPE   HN117839   5.072   1.761   6.748  1.3622  1.9940  0.7661
  160SAPE   HN217840   5.184   1.683   6.643  0.0688 -0.4297  0.0410
  160SAPE   HN317841   5.186   1.848   6.645 -0.1842  0.1990 -0.4839
  160SAPE   C1217842   5.021   1.751   6.544 -0.0557  0.7365  0.1387
  160SAPE  H12A17843   5.012   1.641   6.536  1.3874  0.5981  0.0337
  160SAPE  H12B17844   5.070   1.802   6.458  0.2864  0.9419  0.4516
  160SAPE   C1117845   4.870   1.800   6.568  0.0305  0.3783  0.1468
  160SAPE  H11A17846   4.831   1.747   6.657 -1.4843  1.2336  0.0191
  160SAPE  H11B17847   4.793   1.766   6.496 -1.5496  1.1142  1.4081
  160SAPE     P17848   4.844   2.063   6.506  0.0721  0.3048 -0.2731
  160SAPE   O1317849   4.845   2.009   6.368  0.1927 -0.3889 -0.6981
  160SAPE   O1417850   4.727   2.140   6.540  0.3861 -0.5284 -0.0866
  160SAPE   O1217851   4.863   1.943   6.603  0.0991 -0.4733 -1.0692
  160SAPE   O1117852   4.973   2.143   6.518  0.1031  0.2533  0.4284
  160SAPE    C117853   5.036   2.166   6.642  0.1004 -0.1322 -0.4380
  160SAPE    HA17854   5.055   2.073   6.699  1.2986  1.2417  1.4835
  160SAPE    HB17855   5.136   2.211   6.628  0.3929 -1.0787 -1.6052
  160SAPE    C217856   4.968   2.268   6.736 -0.2880  0.3253  0.3952
  160SAPE    HS17857   5.031   2.293   6.824  1.2983 -0.7318 -0.3902
  160SAPE   O2117858   4.836   2.216   6.776  0.0136  0.5018 -0.4608
  160SAPE   C2117859   4.840   2.107   6.852 -0.0968  0.1441  0.1006
  160SAPE   O2217860   4.940   2.065   6.910  0.2638 -0.2816 -0.1468
  160SAPE   C2217861   4.700   2.040   6.860 -0.6882 -0.4223 -0.3802
  160SAPE   H2R17862   4.630   2.099   6.798  0.2152  1.8514  0.6257
  160SAPE   H2S17863   4.709   1.935   6.825 -0.0902 -0.1174 -1.1759
  160SAPE    C317864   4.948   2.400   6.655 -0.5533  0.2740 -0.2357
  160SAPE    HX17865   4.853   2.392   6.600 -1.4083 -2.6430  1.4621
  160SAPE    HY17866   5.027   2.404   6.576  0.5148  0.3252  0.8062
  160SAPE   O3117867   4.956   2.513   6.742 -0.1961 -0.1995 -0.3085
  160SAPE   C3117868   4.841   2.556   6.793  0.3967  0.5732 -0.0781
  160SAPE   O3217869   4.734   2.495   6.788  0.1012 -0.2857 -0.3775
  160SAPE   C3217870   4.862   2.672   6.885 -0.2086  0.1951 -0.3389
  160SAPE   H2X17871   4.888   2.761   6.823  0.6120  0.8558  0.9060
  160SAPE   H2Y17872   4.953   2.655   6.947  0.1268 -1.1473 -1.1631
  160SAPE   C2317873   4.647   2.044   7.005  0.2893 -0.0267  0.1967
  160SAPE   H3R17874   4.714   2.008   7.086  0.3391  0.4332  0.3616
  160SAPE   H3S17875   4.560   1.976   6.998  1.4012 -1.3397 -1.8003
  160SAPE   C2417876   4.586   2.181   7.047 -0.3415 -0.0037 -0.2708
  160SAPE   H4R17877   4.519   2.177   7.135  1.0444  0.8713  0.8713
  160SAPE   H4S17878   4.533   2.211   6.954  1.2997  1.3460 -0.8222
  160SAPE   C2517879   4.694   2.277   7.088  0.2268 -0.0315  0.3607
  160SAPE   H5R17880   4.755   2.311   7.003  1.0249 -0.8650  0.5931
  160SAPE   C2617881   4.720   2.319   7.212 -0.0158  0.4794 -0.1475
  160SAPE   H6R17882   4.817   2.371   7.218  0.7684 -0.8363 -0.8162
  160SAPE   C2717883   4.655   2.284   7.340 -0.3607  0.2624 -0.4517
  160SAPE   H7R17884   4.737   2.265   7.412  0.0167  1.2408 -0.6055
  160SAPE   H7S17885   4.593   2.193   7.328 -1.4097  0.9248 -0.2297
  160SAPE   C2817886   4.567   2.392   7.395  0.6590 -0.3318 -0.5029
  160SAPE   H8R17887   4.515   2.457   7.323 -0.9502  1.3782  2.0289
  160SAPE   C2917888   4.543   2.419   7.528  0.5282 -0.0453 -0.2735
  160SAPE   H9R17889   4.467   2.493   7.558 -3.6906 -3.7566 -0.7591
  160SAPE  C21017890   4.602   2.342   7.643  0.0441  0.8860 -0.1246
  160SAPE  H10R17891   4.621   2.237   7.613  0.3236  0.5851  1.0369
  160SAPE  H10S17892   4.523   2.329   7.720  0.8046 -0.8373  0.4129
  160SAPE  C21117893   4.719   2.401   7.718 -0.3389  0.5621  0.9682
  160SAPE  H11R17894   4.737   2.510   7.710  0.1511  0.4480  0.4505
  160SAPE  C21217895   4.781   2.339   7.821 -0.1265 -0.4088 -1.2832
  160SAPE  H12R17896   4.852   2.395   7.883 -1.6745 -0.7705  0.9038
  160SAPE  C21317897   4.748   2.205   7.886 -0.4247 -0.4839 -0.1974
  160SAPE  H13R17898   4.823   2.128   7.858  0.7327  0.9014 -1.0984
  160SAPE  H13S17899   4.649   2.173   7.848 -1.6632  1.3907  1.2366
  160SAPE  C21417900   4.740   2.202   8.036  0.5677 -0.5106 -1.1049
  160SAPE  H14R17901   4.818   2.143   8.087 -0.7832 -0.0468  1.6470
  160SAPE  C21517902   4.645   2.248   8.125 -0.6353 -0.2949  0.5246
  160SAPE  H15R17903   4.645   2.208   8.228 -0.3895 -0.7839  0.3389
  160SAPE  C21617904   4.514   2.317   8.101 -0.4788  0.2836 -0.1142
  160SAPE  H16R17905   4.501   2.331   7.992 -0.4412  1.6661  0.0479
  160SAPE  H16S17906   4.515   2.418   8.146 -2.9296 -0.2803  1.3487
  160SAPE  C21717907   4.393   2.238   8.157 -0.1620 -0.4869 -0.1806
  160SAPE  H17R17908   4.417   2.203   8.260  1.4031 -1.9352 -0.9965
  160SAPE  H17S17909   4.381   2.144   8.100 -0.2619 -0.0192 -0.9481
  160SAPE  C21817910   4.270   2.322   8.139 -0.4549 -0.0197  0.0143
  160SAPE  H18R17911   4.232   2.291   8.039  0.8901  1.8317 -1.1409
  160SAPE  H18S17912   4.280   2.433   8.140  0.7641 -0.1219  0.4677
  160SAPE  C21917913   4.177   2.277   8.247  0.1043 -0.4387  0.5709
  160SAPE  H19R17914   4.220   2.310   8.344  2.5405  0.6820 -0.8268
  160SAPE  H19S17915   4.169   2.166   8.249  0.9129 -0.5111  0.1647
  160SAPE  C22017916   4.031   2.330   8.227  0.0164  0.4608  0.3227
  160SAPE  H20R17917   3.971   2.313   8.319  1.5419  1.9796  1.6708
  160SAPE  H20S17918   3.990   2.283   8.135  3.3210  0.3862 -1.2399
  160SAPE  H20T17919   4.028   2.441   8.215  0.2496  0.3720 -0.5878
  160SAPE   C3317920   4.728   2.683   6.967  0.4354  0.1893  0.0424
  160SAPE   H3X17921   4.720   2.590   7.028 -0.5227  1.1822  1.4796
  160SAPE   H3Y17922   4.637   2.681   6.904 -0.5713 -1.7364  1.4377
  160SAPE   C3417923   4.721   2.798   7.068 -0.2299  0.5240 -0.3665
  160SAPE   H4X17924   4.616   2.833   7.083 -0.1060  1.2305 -1.1088
  160SAPE   H4Y17925   4.775   2.881   7.018 -0.1651 -1.0784 -3.0844
  160SAPE   C3517926   4.782   2.777   7.207 -0.0988  0.0119 -0.2016
  160SAPE   H5X17927   4.716   2.710   7.266  0.3978 -2.7141 -2.5118
  160SAPE   H5Y17928   4.801   2.878   7.249  1.2158  0.0515 -0.8317
  160SAPE   C3617929   4.920   2.717   7.218  0.1099  0.3368 -0.8348
  160SAPE   H6X17930   4.993   2.769   7.151 -0.2439 -2.3999 -3.5789
  160SAPE   H6Y17931   4.910   2.608   7.199  2.0528 -0.1995  0.9165
  160SAPE   C3717932   4.980   2.719   7.361  0.0556 -0.1426  0.0851
  160SAPE   H7X17933   4.993   2.824   7.393  1.1210  0.1957 -1.3531
  160SAPE   H7Y17934   5.086   2.685   7.359  0.2841  0.5805 -0.4896
  160SAPE   C3817935   4.901   2.641   7.471 -0.7545 -0.5371  0.0471
  160SAPE   H8X17936   4.889   2.533   7.447 -0.3906 -0.8481  1.2238
  160SAPE   H8Y17937   4.799   2.684   7.480  0.3497  2.0709  0.9271
  160SAPE   C3917938   4.973   2.639   7.608 -0.3962 -0.1538 -0.5994
  160SAPE   H9X17939   5.074   2.598   7.584  0.2207  0.7771  0.3224
  160SAPE   H9Y17940   4.919   2.576   7.682 -1.0299  0.7293 -0.2928
  160SAPE  C31017941   4.997   2.776   7.674  0.2064  0.6349 -0.4741
  160SAPE  H10X17942   4.912   2.848   7.684  1.0117  1.4322  0.9853
  160SAPE  H10Y17943   5.070   2.829   7.609  0.7632  0.8819  0.3455
  160SAPE  C31117944   5.048   2.768   7.816 -0.7144  0.7580 -0.2442
  160SAPE  H11X17945   5.127   2.691   7.833 -4.1615 -3.1411 -0.4290
  160SAPE  H11Y17946   4.967   2.732   7.883 -1.3094  2.4063 -0.0333
  160SAPE  C31217947   5.100   2.899   7.879 -0.3456 -0.3684  0.2774
  160SAPE  H12X17948   5.020   2.976   7.868  0.1600  0.4416  2.0484
  160SAPE  H12Y17949   5.186   2.938   7.820 -0.9105  3.0063  1.4621
  160SAPE  C31317950   5.147   2.894   8.021 -0.1924  0.2559  0.1093
  160SAPE  H13X17951   5.190   2.989   8.058 -0.3106 -0.2423  1.5751
  160SAPE  H13Y17952   5.231   2.821   8.033  0.5443  1.4013  2.3762
  160SAPE  C31417953   5.036   2.831   8.122  0.6056  1.0118  0.6785
  160SAPE  H14X17954   4.982   2.743   8.080 -1.1625  2.4258 -0.1643
  160SAPE  H14Y17955   4.958   2.907   8.143  0.3405  0.7801  0.5459
  160SAPE  C31517956   5.087   2.779   8.256  0.4333 -0.3684 -0.1361
  160SAPE  H15X17957   5.136   2.869   8.298  1.3880 -0.7886 -0.3184
  160SAPE  H15Y17958   5.166   2.701   8.254 -0.8704 -1.7224 -0.4860
  160SAPE  C31617959   4.977   2.741   8.352  0.8726 -0.1073  0.3185
  160SAPE  H16X17960   4.914   2.657   8.316  0.5497 -0.7434  2.2385
  160SAPE  H16Y17961   4.910   2.827   8.377 -1.2622 -1.5251 -0.1919
  160SAPE  C31717962   5.036   2.685   8.476 -0.3884  0.0860 -0.0010
  160SAPE  H17X17963   5.094   2.764   8.530 -0.8517  1.3415 -1.2704
  160SAPE  H17Y17964   5.113   2.613   8.442  0.6543 -0.0812  2.4739
  160SAPE  C31817965   4.941   2.609   8.570  0.7780 -0.0922  0.4893
  160SAPE  H18X17966   5.001   2.549   8.641  0.6968 -1.4746 -0.5719
  160SAPE  H18Y17967   4.871   2.542   8.516  1.3793  1.3017 -2.2363
  160SAPE  H18Z17968   4.888   2.695   8.616 -0.3871  0.7317 -2.1618
  161SOPE     N17969   1.944   4.845  10.830 -0.1789  0.1708  0.5742
  161SOPE   HN117970   1.856   4.866  10.778  0.8078  2.3541 -0.3602
  161SOPE   HN217971   1.946   4.762  10.893  0.9642  0.1521  0.5387
  161SOPE   HN317972   1.954   4.929  10.890 -1.5653  0.4517  0.4538
  161SOPE   C1217973   2.063   4.850  10.740 -0.0548 -0.0214 -0.5021
  161SOPE  H12A17974   2.068   4.945  10.682  0.0811 -1.1318 -2.4109
  161SOPE  H12B17975   2.040   4.765  10.672 -0.2335 -0.4974  0.1514
  161SOPE   C1117976   2.197   4.829  10.813 -0.6002  0.4033  0.1819
  161SOPE  H11A17977   2.180   4.847  10.921 -1.3689 -0.2342  0.1783
  161SOPE  H11B17978   2.255   4.914  10.771 -1.3376  0.4691 -0.7217
  161SOPE     P17979   2.359   4.666  10.684  0.2066 -0.2283 -0.1108
  161SOPE   O1317980   2.387   4.521  10.697 -0.2778 -0.5277 -0.1308
  161SOPE   O1417981   2.474   4.763  10.695  0.0799  0.1102 -0.6030
  161SOPE   O1217982   2.248   4.694  10.792 -0.3686  0.1511 -0.4921
  161SOPE   O1117983   2.291   4.688  10.544  0.8449  1.5066 -0.1051
  161SOPE    C117984   2.274   4.587  10.441  0.1576 -0.6020  0.3008
  161SOPE    HA17985   2.170   4.583  10.402 -0.2769  1.8842  1.0317
  161SOPE    HB17986   2.309   4.485  10.467  0.4439 -0.6036 -0.0934
  161SOPE    C217987   2.366   4.631  10.320  0.0347  0.3959 -0.2843
  161SOPE    HS17988   2.470   4.649  10.355  0.4023  0.0587 -1.1916
  161SOPE   O2117989   2.307   4.744  10.250 -0.3211 -0.5839 -0.0772
  161SOPE   C2117990   2.392   4.836  10.218  0.0507 -0.0353 -0.0316
  161SOPE   O2217991   2.511   4.837  10.247 -0.1316 -0.3829  0.7617
  161SOPE   C2217992   2.310   4.951  10.162  0.0422 -0.1425 -0.0063
  161SOPE   H2R17993   2.322   5.037  10.231  0.5861 -2.8496  3.5857
  161SOPE   H2S17994   2.205   4.919  10.179  0.3594 -0.7914  0.7868
  161SOPE    C317995   2.394   4.513  10.222  0.4832  0.3932  0.0014
  161SOPE    HX17996   2.295   4.481  10.182  0.4836  0.5773 -0.1478
  161SOPE    HY17997   2.438   4.429  10.280 -0.4683 -0.2402 -0.1621
  161SOPE   O3117998   2.485   4.549  10.108  0.5042  0.0204 -0.2722
  161SOPE   C3117999   2.618   4.516  10.130  0.3398 -0.4198 -0.1084
  161SOPE   O3218000   2.670   4.484  10.233 -0.0060  0.6196 -0.3433
  161SOPE   C3218001   2.695   4.535   9.992  0.6836 -0.8016  0.2972
  161SOPE   H2X18002   2.712   4.433   9.953 -1.2102 -1.7038  1.7245
  161SOPE   H2Y18003   2.790   4.583  10.023  1.3549 -1.9712  0.1030
  161SOPE   C2318004   2.341   4.971  10.013 -0.6325  0.0467 -0.1655
  161SOPE   H3R18005   2.446   4.975   9.977 -0.3511 -0.1703  0.6195
  161SOPE   H3S18006   2.301   5.070   9.982  0.2351 -0.3922 -2.9887
  161SOPE   C2418007   2.256   4.875   9.922 -0.2289  0.5057 -0.5383
  161SOPE   H4R18008   2.280   4.767   9.928 -0.4145  0.5308  1.5771
  161SOPE   H4S18009   2.148   4.883   9.946 -0.3153 -2.0294  0.2326
  161SOPE   C2518010   2.272   4.913   9.775 -0.1329 -0.7598 -0.6594
  161SOPE   H5R18011   2.287   5.023   9.769  0.7032 -0.8677 -0.7228
  161SOPE   H5S18012   2.373   4.884   9.740 -0.1714 -1.1061 -0.4823
  161SOPE   C2618013   2.157   4.872   9.682  0.1213 -0.9766  0.6147
  161SOPE   H6R18014   2.160   4.764   9.654  1.3739 -0.5750 -0.8956
  161SOPE   H6S18015   2.062   4.892   9.737 -1.1831 -1.8173 -1.2216
  161SOPE   C2718016   2.167   4.947   9.549  0.0821 -0.3146 -0.2373
  161SOPE   H7R18017   2.134   5.053   9.556  0.4025 -0.2816  1.1591
  161SOPE   H7S18018   2.275   4.948   9.522  0.3590 -0.1272  0.8303
  161SOPE   C2818019   2.081   4.874   9.436 -0.0652 -0.8386 -0.4936
  161SOPE   H8R18020   2.125   4.772   9.425  0.0580 -0.9596  0.9069
  161SOPE   H8S18021   1.976   4.861   9.468  0.6079 -0.8832  1.8941
  161SOPE   C2918022   2.085   4.960   9.315 -0.5133 -0.6290  0.4532
  161SOPE   H9118023   2.026   5.052   9.325  0.8791  0.7217 -2.4876
  161SOPE  C21018024   2.141   4.942   9.192  0.2531  0.5564 -0.3762
  161SOPE  H10118025   2.154   5.021   9.117 -0.2181 -0.0994 -1.1629
  161SOPE  C21118026   2.208   4.812   9.151  0.1325  0.0226  0.3773
  161SOPE  H11R18027   2.139   4.725   9.148  1.2997 -0.9158  0.0425
  161SOPE  H11S18028   2.293   4.793   9.219  0.6146 -0.0576 -0.2363
  161SOPE  C21218029   2.271   4.830   9.013 -0.1761  0.3372 -0.2235
  161SOPE  H12R18030   2.344   4.747   9.000 -0.6866 -0.3062  0.8811
  161SOPE  H12S18031   2.339   4.917   9.003  3.0693 -1.9590  0.0815
  161SOPE  C21318032   2.171   4.803   8.900  0.0689 -0.0005  0.5064
  161SOPE  H13R18033   2.085   4.872   8.908  0.1271  0.4821 -2.0079
  161SOPE  H13S18034   2.126   4.702   8.910 -0.1500  0.2403  2.2315
  161SOPE  C21418035   2.233   4.821   8.760  0.3334 -0.2737  0.9957
  161SOPE  H14R18036   2.320   4.757   8.737 -1.8807 -2.8092 -1.0707
  161SOPE  H14S18037   2.256   4.929   8.751  1.9152 -0.5855  1.0236
  161SOPE  C21518038   2.127   4.778   8.650 -0.2263 -0.6995  0.2636
  161SOPE  H15R18039   2.022   4.806   8.674 -0.3417  1.0145 -1.9038
  161SOPE  H15S18040   2.135   4.667   8.650 -1.8629 -0.8359 -0.6879
  161SOPE  C21618041   2.177   4.832   8.516 -0.5807  0.4695 -0.1125
  161SOPE  H16R18042   2.133   4.780   8.428 -0.0030 -2.5290  1.2183
  161SOPE  H16S18043   2.288   4.824   8.514 -0.4845  0.3107  2.5516
  161SOPE  C21718044   2.131   4.975   8.490  0.4745  0.7188  0.2577
  161SOPE  H17R18045   2.214   5.018   8.428  0.3963 -2.2492 -2.1523
  161SOPE  H17S18046   2.121   5.028   8.586 -1.4181  0.8270  0.0224
  161SOPE  C21818047   1.996   4.984   8.413  0.5705 -0.1712 -0.0971
  161SOPE  H18R18048   1.914   4.924   8.456 -1.9411  2.5658 -0.7377
  161SOPE  H18S18049   2.016   4.952   8.309  2.2051 -1.3336  0.5303
  161SOPE  H18T18050   1.961   5.088   8.432 -0.0010 -0.4291  0.2854
  161SOPE   C3318051   2.614   4.611   9.883 -0.7607 -0.0975  0.0475
  161SOPE   H3X18052   2.681   4.687   9.838  1.4183 -2.4831 -0.9367
  161SOPE   H3Y18053   2.530   4.672   9.924  1.2965  2.7570  0.3672
  161SOPE   C3418054   2.569   4.522   9.769 -0.5876 -0.1000  0.0331
  161SOPE   H4X18055   2.519   4.438   9.822 -1.0071 -1.0114 -1.7257
  161SOPE   H4Y18056   2.646   4.466   9.712  2.3498  2.7278  0.9343
  161SOPE   C3518057   2.470   4.586   9.673  0.1835 -0.3843  0.6235
  161SOPE   H5X18058   2.515   4.675   9.625 -2.3538  0.6269 -0.0470
  161SOPE   H5Y18059   2.378   4.609   9.731 -0.9555 -0.5402 -1.0425
  161SOPE   C3618060   2.427   4.494   9.562 -0.1291 -0.1445 -0.7298
  161SOPE   H6X18061   2.373   4.416   9.619 -1.0305  1.4595  0.6904
  161SOPE   H6Y18062   2.497   4.441   9.494 -0.5269 -1.5765 -0.0610
  161SOPE   C3718063   2.330   4.557   9.460 -0.2873 -0.3006 -0.8982
  161SOPE   H7X18064   2.355   4.664   9.442  0.7736  0.3020  3.2162
  161SOPE   H7Y18065   2.228   4.566   9.503 -0.9284  2.0707 -2.6588
  161SOPE   C3818066   2.315   4.479   9.328 -0.1843 -0.1089 -0.2619
  161SOPE   H8X18067   2.234   4.525   9.268  1.2666  1.2246 -1.2571
  161SOPE   H8Y18068   2.284   4.376   9.355 -1.5715  0.0229 -1.2486
  161SOPE   C3918069   2.431   4.477   9.245 -0.5204 -0.2377 -0.0389
  161SOPE   H9X18070   2.507   4.407   9.285 -1.0495 -0.1469  1.1427
  161SOPE   H9Y18071   2.471   4.581   9.243 -1.2668  0.0562 -0.0913
  161SOPE  C31018072   2.386   4.439   9.099 -0.2140  0.3201 -0.7288
  161SOPE  H10X18073   2.313   4.512   9.059 -2.5598 -0.2697  2.1645
  161SOPE  H10Y18074   2.319   4.350   9.104  1.8008 -1.3506 -1.6479
  161SOPE  C31118075   2.500   4.407   9.005 -0.0039  0.5904  0.4019
  161SOPE  H11X18076   2.458   4.379   8.906  0.1728 -1.8256  0.9594
  161SOPE  H11Y18077   2.559   4.321   9.043 -1.8576 -1.2318 -0.6691
  161SOPE  C31218078   2.595   4.525   8.982 -0.2648  0.0624  0.1136
  161SOPE  H12X18079   2.657   4.547   9.071 -0.8534 -0.3656  0.6267
  161SOPE  H12Y18080   2.543   4.623   8.971 -0.2260 -0.0035 -0.7650
  161SOPE  C31318081   2.696   4.525   8.862 -0.1965  1.2557 -0.4388
  161SOPE  H13X18082   2.745   4.427   8.844 -2.9485 -0.2600 -0.1527
  161SOPE  H13Y18083   2.773   4.605   8.868  0.4121  0.7981 -1.6918
  161SOPE  C31418084   2.621   4.546   8.733 -0.0709  0.8812  0.2965
  161SOPE  H14X18085   2.547   4.627   8.748 -0.4249  0.6810 -0.3306
  161SOPE  H14Y18086   2.575   4.449   8.706  1.1987  0.3948 -0.2169
  161SOPE  C31518087   2.700   4.578   8.606  0.0603 -0.3902 -0.1507
  161SOPE  H15X18088   2.741   4.681   8.611 -0.6297 -0.1583  0.7868
  161SOPE  H15Y18089   2.620   4.591   8.531 -1.6041  0.3790  1.6763
  161SOPE  C31618090   2.807   4.478   8.554  0.2530 -0.2836 -0.1623
  161SOPE  H16X18091   2.767   4.376   8.537  1.5066 -0.6161 -1.2645
  161SOPE  H16Y18092   2.881   4.466   8.636  1.2393 -0.8475 -1.1090
  161SOPE  C31718093   2.876   4.521   8.431 -0.6963 -0.2087  0.2853
  161SOPE  H17X18094   2.798   4.516   8.352 -0.8067 -1.2621  0.4524
  161SOPE  H17Y18095   2.961   4.454   8.406 -0.3515  0.5339 -0.5835
  161SOPE  C31818096   2.940   4.658   8.435  0.0530  0.3366  0.4399
  161SOPE  H18X18097   2.999   4.665   8.342 -1.4522 -0.2679 -0.6027
  161SOPE  H18Y18098   3.009   4.668   8.521  0.0669  0.5375  0.4062
  161SOPE  H18Z18099   2.866   4.740   8.446 -1.4051 -0.5524 -2.0663
  162SOPE     N18100   2.258   4.451  10.926  0.7708 -0.2029  0.2170
  162SOPE   HN118101   2.208   4.538  10.952  0.5139 -0.3343  0.1610
  162SOPE   HN218102   2.337   4.445  10.994  1.2890  1.7718 -0.1671
  162SOPE   HN318103   2.298   4.473  10.833 -0.5524 -0.5083 -0.4459
  162SOPE   C1218104   2.179   4.329  10.933  0.4519  0.3027 -0.0829
  162SOPE  H12A18105   2.252   4.246  10.930 -0.6983 -0.7518  0.2485
  162SOPE  H12B18106   2.116   4.335  10.841  1.7096  0.1713 -0.9812
  162SOPE   C1118107   2.091   4.315  11.059 -0.1188  0.0745 -0.0593
  162SOPE  H11A18108   2.167   4.278  11.131  1.1172  0.5926 -1.0466
  162SOPE  H11B18109   2.008   4.242  11.051  2.9621 -3.6666 -1.3438
  162SOPE     P18110   1.925   4.513  11.055  0.0853  0.0758 -0.1187
  162SOPE   O1318111   1.981   4.632  10.986  0.0824  0.6077  0.6979
  162SOPE   O1418112   1.827   4.542  11.161 -0.0275  0.8236  0.0645
  162SOPE   O1218113   2.045   4.441  11.118 -0.0299  0.4165  0.2856
  162SOPE   O1118114   1.859   4.408  10.956 -0.8968 -0.3665  0.1408
  162SOPE    C118115   1.840   4.459  10.823  0.0688  0.4403 -0.0580
  162SOPE    HA18116   1.932   4.502  10.778 -0.1384 -1.1311 -2.1102
  162SOPE    HB18117   1.752   4.527  10.824 -0.2010  0.2814 -3.3186
  162SOPE    C218118   1.817   4.341  10.719  0.1251  0.5336  0.1419
  162SOPE    HS18119   1.735   4.277  10.758  0.3375  0.6650  0.8133
  162SOPE   O2118120   1.943   4.260  10.698  0.2619 -0.4409 -0.1763
  162SOPE   C2118121   1.922   4.153  10.634 -0.1343 -0.3660 -0.3893
  162SOPE   O2218122   1.812   4.104  10.608  0.2725 -0.6135 -0.5077
  162SOPE   C2218123   2.060   4.102  10.595 -0.0830  0.1869 -0.6753
  162SOPE   H2R18124   2.052   4.001  10.550  0.6084 -0.0909 -0.1802
  162SOPE   H2S18125   2.125   4.102  10.685 -0.7709 -2.0878 -0.1111
  162SOPE    C318126   1.767   4.402  10.579 -0.0049 -0.3550 -0.5046
  162SOPE    HX18127   1.666   4.441  10.602  1.1357  2.0103  0.8138
  162SOPE    HY18128   1.761   4.311  10.514 -2.6971 -1.1416  0.6857
  162SOPE   O3118129   1.851   4.501  10.526  0.1734 -0.1157  0.0287
  162SOPE   C3118130   1.800   4.559  10.417 -0.8001 -0.1740 -0.2439
  162SOPE   O3218131   1.702   4.528  10.358  0.2175 -0.2354 -0.6046
  162SOPE   C3218132   1.913   4.655  10.361 -0.2037 -0.0646  0.7856
  162SOPE   H2X18133   1.984   4.590  10.306  0.9196  1.6536  0.1271
  162SOPE   H2Y18134   1.958   4.696  10.454  1.4650 -0.5773  0.2454
  162SOPE   C2318135   2.126   4.187  10.486 -0.5770 -0.1030  0.1067
  162SOPE   H3R18136   2.095   4.291  10.512 -0.4287 -0.0652  0.1336
  162SOPE   H3S18137   2.104   4.160  10.381 -2.2252  2.3716 -0.2731
  162SOPE   C2418138   2.274   4.183  10.489 -0.5823 -0.2660  0.3530
  162SOPE   H4R18139   2.328   4.264  10.437  2.7103 -2.0242  0.7233
  162SOPE   H4S18140   2.308   4.190  10.595  3.3648 -1.4859 -0.6436
  162SOPE   C2518141   2.328   4.049  10.425 -0.3278  0.7586 -0.0876
  162SOPE   H5R18142   2.268   3.975  10.483 -2.5677  0.4754 -2.5559
  162SOPE   H5S18143   2.301   4.034  10.318  1.8169  0.1848 -0.5969
  162SOPE   C2618144   2.480   4.013  10.453 -0.6254 -0.0776  0.5669
  162SOPE   H6R18145   2.500   4.036  10.560  2.3879 -0.8665  0.2464
  162SOPE   H6S18146   2.483   3.906  10.425  2.6820 -0.1909  1.0303
  162SOPE   C2718147   2.573   4.107  10.374 -0.3019 -0.2384  0.3447
  162SOPE   H7R18148   2.553   4.214  10.395  1.0445  0.6620 -2.4921
  162SOPE   H7S18149   2.680   4.098  10.403 -0.0558  2.4472  0.5769
  162SOPE   C2818150   2.561   4.086  10.228  0.8823 -0.1933  0.6721
  162SOPE   H8R18151   2.455   4.094  10.193  1.4482  0.0451 -1.0517
  162SOPE   H8S18152   2.623   4.171  10.192  1.3675 -0.2648  1.3190
  162SOPE   C2918153   2.629   3.960  10.181 -0.2336 -0.3295 -0.1105
  162SOPE   H9118154   2.646   3.885  10.260  1.0288  0.6042  0.5329
  162SOPE  C21018155   2.649   3.945  10.053  0.1628 -0.1894  0.6033
  162SOPE  H10118156   2.706   3.855  10.026 -0.2792  0.0883 -1.4404
  162SOPE  C21118157   2.617   4.035   9.934  0.0824 -0.4042 -0.5313
  162SOPE  H11R18158   2.534   4.108   9.945  0.7443  0.4022 -0.7934
  162SOPE  H11S18159   2.581   3.967   9.853  2.0085 -1.4168 -0.6000
  162SOPE  C21218160   2.743   4.103   9.865  0.1482  0.1220 -0.1185
  162SOPE  H12R18161   2.832   4.037   9.860 -0.2919 -0.5364  0.4897
  162SOPE  H12S18162   2.772   4.193   9.923 -2.4274  0.6546  0.5035
  162SOPE  C21318163   2.696   4.134   9.718  0.3858 -0.3988 -0.0921
  162SOPE  H13R18164   2.609   4.203   9.724 -0.4453 -1.4678  0.4445
  162SOPE  H13S18165   2.656   4.040   9.674 -2.4397  0.5798  0.1842
  162SOPE  C21418166   2.806   4.197   9.633  0.0581  0.3560 -0.5569
  162SOPE  H14R18167   2.874   4.114   9.606 -0.1743  0.1632 -0.5612
  162SOPE  H14S18168   2.870   4.265   9.692  0.5295 -0.2833 -0.3319
  162SOPE  C21518169   2.757   4.258   9.496  0.0297 -0.1572 -0.3189
  162SOPE  H15R18170   2.711   4.355   9.524  0.4845  0.0339 -0.2374
  162SOPE  H15S18171   2.677   4.188   9.462 -0.6996 -0.6749  2.2296
  162SOPE  C21618172   2.864   4.273   9.392  0.1817  0.1506 -0.1154
  162SOPE  H16R18173   2.892   4.170   9.361 -1.5417  0.2514 -2.3314
  162SOPE  H16S18174   2.949   4.335   9.427 -1.1128  2.2990 -0.5639
  162SOPE  C21718175   2.810   4.349   9.269  0.1860  1.3746 -0.1969
  162SOPE  H17R18176   2.752   4.437   9.304 -1.2510  0.0711  0.8304
  162SOPE  H17S18177   2.740   4.272   9.229 -0.0169  2.2613 -1.6231
  162SOPE  C21818178   2.913   4.378   9.169 -0.6880 -0.2779  0.6953
  162SOPE  H18R18179   2.984   4.447   9.219  0.0248 -0.3777 -0.1457
  162SOPE  H18S18180   2.871   4.425   9.078  0.9230  0.2626  0.2051
  162SOPE  H18T18181   2.978   4.291   9.143  0.5963  0.7301  0.4475
  162SOPE   C3318182   1.856   4.758  10.264 -0.3863  0.4692  0.4835
  162SOPE   H3X18183   1.783   4.832  10.303 -0.6519  0.1507  0.5842
  162SOPE   H3Y18184   1.799   4.704  10.186 -1.0348 -0.9339  1.8895
  162SOPE   C3418185   1.970   4.853  10.201 -0.2819 -0.0476 -1.2400
  162SOPE   H4X18186   2.040   4.782  10.153  1.6621  1.1342 -0.2656
  162SOPE   H4Y18187   2.031   4.896  10.283  1.0866  0.6036 -2.5632
  162SOPE   C3518188   1.922   4.966  10.108  0.4821  0.4052  0.0873
  162SOPE   H5X18189   2.017   5.010  10.071  0.9218 -0.3516  0.2880
  162SOPE   H5Y18190   1.882   5.049  10.169 -1.0356  0.4662 -0.9423
  162SOPE   C3618191   1.834   4.927   9.992 -0.3901 -0.6279 -0.2347
  162SOPE   H6X18192   1.732   4.894  10.021  0.1059 -0.9168  1.2119
  162SOPE   H6Y18193   1.880   4.839   9.941  2.3221  0.9487 -0.7413
  162SOPE   C3718194   1.820   5.048   9.898  0.0642 -0.4070  0.6631
  162SOPE   H7X18195   1.918   5.055   9.847 -0.6772  2.9136 -0.5551
  162SOPE   H7Y18196   1.790   5.145   9.945  0.0166 -0.5230  0.8718
  162SOPE   C3818197   1.717   5.018   9.781  0.1035  0.3609 -0.0010
  162SOPE   H8X18198   1.620   5.003   9.833  0.7960  1.1630  1.6166
  162SOPE   H8Y18199   1.746   4.924   9.729  1.0831  0.6222  0.0490
  162SOPE   C3918200   1.708   5.134   9.682  0.0783  0.4202  0.2505
  162SOPE   H9X18201   1.808   5.149   9.634  0.3760  2.1274  1.2952
  162SOPE   H9Y18202   1.698   5.230   9.738  2.9357  0.4423  0.8887
  162SOPE  C31018203   1.600   5.119   9.571 -0.1212  0.8535  0.4943
  162SOPE  H10X18204   1.512   5.072   9.621 -0.2486  0.5825  0.0193
  162SOPE  H10Y18205   1.638   5.042   9.500  0.6510  2.3743 -0.7927
  162SOPE  C31118206   1.547   5.246   9.518  0.5507 -0.1591 -0.0779
  162SOPE  H11X18207   1.627   5.303   9.466 -0.5705 -1.4459 -3.5207
  162SOPE  H11Y18208   1.515   5.303   9.607  0.0545 -0.0500 -0.3196
  162SOPE  C31218209   1.447   5.238   9.400  0.4115 -0.7504 -0.0765
  162SOPE  H12X18210   1.362   5.168   9.412  0.4024 -0.5109  1.4434
  162SOPE  H12Y18211   1.495   5.203   9.306  1.2784  1.0397 -0.3511
  162SOPE  C31318212   1.380   5.376   9.372  0.5183 -0.6958  0.1764
  162SOPE  H13X18213   1.455   5.433   9.314 -0.2193  0.4829  0.3412
  162SOPE  H13Y18214   1.333   5.440   9.450 -0.3621 -1.5059  0.3257
  162SOPE  C31418215   1.268   5.360   9.267  0.4294  0.5444  0.0504
  162SOPE  H14X18216   1.221   5.459   9.248  0.7210  0.2644 -2.4573
  162SOPE  H14Y18217   1.186   5.293   9.300 -0.5711  1.5464 -0.3495
  162SOPE  C31518218   1.321   5.305   9.134  0.0002 -0.5284  0.5036
  162SOPE  H15X18219   1.378   5.210   9.143  1.3891  0.3084  0.7690
  162SOPE  H15Y18220   1.391   5.380   9.092 -1.0565  0.5357  0.5925
  162SOPE  C31618221   1.211   5.276   9.033  1.5004  0.0232  0.5454
  162SOPE  H16X18222   1.146   5.365   9.024 -1.8154 -2.3978 -2.3100
  162SOPE  H16Y18223   1.153   5.190   9.071  0.8350 -0.3667 -1.2702
  162SOPE  C31718224   1.271   5.230   8.896 -0.5819  0.0326 -0.1111
  162SOPE  H17X18225   1.192   5.201   8.823  0.6011  0.4631 -1.6102
  162SOPE  H17Y18226   1.342   5.146   8.911 -0.9006 -0.2384 -0.1227
  162SOPE  C31818227   1.350   5.337   8.813  0.7275  0.8877 -0.0188
  162SOPE  H18X18228   1.454   5.344   8.853  0.0356  1.6599  1.7839
  162SOPE  H18Y18229   1.300   5.435   8.803  0.9762  1.0249  0.0641
  162SOPE  H18Z18230   1.360   5.307   8.707 -4.0456  2.2915 -1.0764
  163SOPE     N18231   1.591   2.774  10.800  0.3744  0.1030  0.0877
  163SOPE   HN118232   1.583   2.674  10.830 -1.0087 -0.5283 -2.1354
  163SOPE   HN218233   1.641   2.829  10.873 -0.9484 -0.2602  1.3295
  163SOPE   HN318234   1.494   2.804  10.779  1.2760  2.4535 -0.9762
  163SOPE   C1218235   1.681   2.766  10.683 -0.6559 -0.0115 -0.1534
  163SOPE  H12A18236   1.672   2.861  10.627 -0.7771  0.3715  0.5095
  163SOPE  H12B18237   1.651   2.683  10.615 -0.2581 -0.9761  0.8175
  163SOPE   C1118238   1.832   2.744  10.720  0.2320 -0.1243  0.1386
  163SOPE  H11A18239   1.898   2.723  10.634 -1.0031 -0.5842 -0.7133
  163SOPE  H11B18240   1.843   2.651  10.780 -0.8503 -0.5515 -0.2913
  163SOPE     P18241   1.921   2.986  10.760 -0.7705 -0.1955 -0.0524
  163SOPE   O1318242   2.043   3.029  10.836 -0.0801 -0.0229  0.2898
  163SOPE   O1418243   1.798   3.075  10.781 -0.9158  0.0356  0.0250
  163SOPE   O1218244   1.880   2.844  10.799  0.1055  0.1078 -0.0971
  163SOPE   O1118245   1.944   2.999  10.607  0.2310  0.5545 -0.0048
  163SOPE    C118246   2.045   3.085  10.555 -0.2427 -0.6033  0.7101
  163SOPE    HA18247   2.066   3.074  10.447  4.3520  1.0762  1.2106
  163SOPE    HB18248   2.146   3.063  10.593 -0.6721 -1.9902  1.1074
  163SOPE    C218249   2.012   3.241  10.577 -1.1666  0.0883  0.2863
  163SOPE    HS18250   1.994   3.267  10.683 -1.2601  0.0569  0.2791
  163SOPE   O2118251   1.896   3.264  10.499  0.1770 -0.0929  0.0826
  163SOPE   C2118252   1.844   3.385  10.521 -0.7459 -0.2777  0.5351
  163SOPE   O2218253   1.893   3.474  10.591  0.0564 -0.7987 -0.1522
  163SOPE   C2218254   1.711   3.395  10.447 -0.4979 -0.1617 -0.2308
  163SOPE   H2R18255   1.634   3.386  10.526 -1.0599  0.5890 -0.6740
  163SOPE   H2S18256   1.698   3.314  10.373 -0.4098 -1.3912  1.0696
  163SOPE    C318257   2.138   3.320  10.522 -0.1847  0.2601 -0.3040
  163SOPE    HX18258   2.224   3.278  10.579 -0.4511 -0.2556 -0.2730
  163SOPE    HY18259   2.123   3.427  10.549  1.8465  0.2351  1.2052
  163SOPE   O3118260   2.174   3.294  10.384 -0.1492 -0.2004  0.0718
  163SOPE   C3118261   2.167   3.403  10.299 -0.9125  0.3716 -0.2446
  163SOPE   O3218262   2.156   3.518  10.333  0.0519 -0.7649  0.0721
  163SOPE   C3218263   2.186   3.346  10.161  0.3443  0.1198 -0.3378
  163SOPE   H2X18264   2.297   3.345  10.155  0.5390 -0.3243  2.2700
  163SOPE   H2Y18265   2.147   3.423  10.091 -0.7746 -1.3703 -1.4514
  163SOPE   C2318266   1.689   3.528  10.375  0.4169 -0.8164  0.1998
  163SOPE   H3R18267   1.699   3.613  10.446  2.4166 -1.8806  1.2824
  163SOPE   H3S18268   1.585   3.522  10.336  1.2618 -1.3289 -2.1336
  163SOPE   C2418269   1.775   3.558  10.247 -0.0331  0.5848 -0.4669
  163SOPE   H4R18270   1.772   3.664  10.213  2.9852  0.2718 -2.1055
  163SOPE   H4S18271   1.881   3.558  10.283  0.1148  0.4880 -0.8950
  163SOPE   C2518272   1.741   3.455  10.139  0.5179  0.4526  0.4966
  163SOPE   H5R18273   1.782   3.354  10.162  0.2188 -0.4107 -2.3250
  163SOPE   H5S18274   1.630   3.450  10.139  0.4707  1.3659  0.0057
  163SOPE   C2618275   1.787   3.495   9.998  0.1391 -0.6636 -0.2678
  163SOPE   H6R18276   1.759   3.599   9.971  0.5048 -0.0208  1.6213
  163SOPE   H6S18277   1.898   3.490  10.005  0.1735 -0.1901 -0.4554
  163SOPE   C2718278   1.737   3.411   9.880  0.0673  0.0224  0.5238
  163SOPE   H7R18279   1.746   3.301   9.896 -0.0845 -0.4278 -2.0146
  163SOPE   H7S18280   1.632   3.431   9.853  0.5077 -0.1524 -1.4787
  163SOPE   C2818281   1.817   3.437   9.743 -0.2142 -0.0009  0.1548
  163SOPE   H8R18282   1.915   3.388   9.765  0.2822  1.0621  0.3880
  163SOPE   H8S18283   1.766   3.367   9.674 -1.3755  1.9802 -1.0940
  163SOPE   C2918284   1.832   3.574   9.685  0.7424  0.6591 -0.5834
  163SOPE   H9118285   1.890   3.645   9.747 -0.0139 -1.4503  2.8398
  163SOPE  C21018286   1.769   3.618   9.572 -0.9279  1.0342 -0.4238
  163SOPE  H10118287   1.805   3.715   9.536  1.5543 -0.1408 -1.3398
  163SOPE  C21118288   1.677   3.534   9.483  0.6891  0.5189 -0.0684
  163SOPE  H11R18289   1.569   3.560   9.485  0.7468  0.7506  2.1076
  163SOPE  H11S18290   1.688   3.428   9.515 -1.4577  1.1716  3.3821
  163SOPE  C21218291   1.721   3.560   9.334 -0.1003  0.1977 -0.6732
  163SOPE  H12R18292   1.829   3.537   9.321  0.2650  1.5829 -0.2769
  163SOPE  H12S18293   1.714   3.669   9.314 -1.6070  0.6655  1.9129
  163SOPE  C21318294   1.632   3.461   9.251  0.3492 -0.0249  0.9047
  163SOPE  H13R18295   1.533   3.508   9.229  1.2205  1.8049  0.7200
  163SOPE  H13S18296   1.608   3.367   9.305 -1.8865  1.4247  2.6214
  163SOPE  C21418297   1.695   3.401   9.116  0.1499 -0.2229 -0.8161
  163SOPE  H14R18298   1.784   3.339   9.140  1.0230  0.8526 -1.2061
  163SOPE  H14S18299   1.732   3.481   9.049 -0.9219  0.1096 -1.0255
  163SOPE  C21518300   1.596   3.311   9.045 -0.4361  1.1549  0.4503
  163SOPE  H15R18301   1.528   3.376   8.986  0.2995  2.0929  0.6022
  163SOPE  H15S18302   1.525   3.266   9.117 -1.4247  0.8088 -0.7055
  163SOPE  C21618303   1.674   3.213   8.946 -0.5569 -0.0724  0.0786
  163SOPE  H16R18304   1.754   3.169   9.009  0.0751  2.2077  0.9862
  163SOPE  H16S18305   1.717   3.272   8.862 -1.1621 -2.8944 -2.3960
  163SOPE  C21718306   1.585   3.100   8.890 -0.2996 -0.7252  0.6141
  163SOPE  H17R18307   1.483   3.138   8.866  0.8000  0.6500 -2.4822
  163SOPE  H17S18308   1.578   3.026   8.972 -0.0670 -0.3776  0.9536
  163SOPE  C21818309   1.628   3.037   8.758 -0.2342 -0.1865  0.1514
  163SOPE  H18R18310   1.704   2.959   8.779 -1.2772 -0.9140  1.3914
  163SOPE  H18S18311   1.665   3.099   8.674  2.1746 -1.5161  0.1278
  163SOPE  H18T18312   1.541   2.976   8.727 -0.5096  0.6196 -0.7069
  163SOPE   C3318313   2.106   3.213  10.138  0.0115  0.8315  0.0948
  163SOPE   H3X18314   2.012   3.217  10.196 -0.9034 -3.0985 -0.8836
  163SOPE   H3Y18315   2.165   3.129  10.179  0.0931  1.4247  1.2443
  163SOPE   C3418316   2.073   3.197   9.995  0.2463 -0.0309  0.9178
  163SOPE   H4X18317   2.165   3.184   9.934 -0.1971 -1.2718  0.4829
  163SOPE   H4Y18318   2.021   3.281   9.945 -0.2554 -1.8628 -1.8765
  163SOPE   C3518319   1.993   3.073   9.965  0.8306  0.3597  0.0866
  163SOPE   H5X18320   1.883   3.082   9.974  0.9448  1.3308  0.6513
  163SOPE   H5Y18321   2.034   2.991  10.028 -1.0384 -1.2230 -0.6612
  163SOPE   C3618322   2.008   3.011   9.822 -0.2898  0.2500  0.0757
  163SOPE   H6X18323   2.114   3.014   9.789 -0.2968 -1.3851 -0.1515
  163SOPE   H6Y18324   1.960   3.085   9.755  1.2576 -1.1348 -2.7352
  163SOPE   C3718325   1.952   2.873   9.814  0.1408 -0.0996  0.0772
  163SOPE   H7X18326   1.841   2.880   9.827  0.3034  0.7018  1.2071
  163SOPE   H7Y18327   2.000   2.808   9.890  0.4924  0.8765  0.7063
  163SOPE   C3818328   1.974   2.820   9.674  0.3620 -0.1334  0.4036
  163SOPE   H8X18329   2.082   2.808   9.652 -0.0438  0.8103 -2.4336
  163SOPE   H8Y18330   1.945   2.898   9.600  1.8960 -1.7004 -1.9906
  163SOPE   C3918331   1.882   2.702   9.641 -0.0115 -0.4615  0.1154
  163SOPE   H9X18332   1.778   2.721   9.676  0.5642  0.1672  1.5618
  163SOPE   H9Y18333   1.914   2.613   9.700  2.2885  0.1872 -0.0566
  163SOPE  C31018334   1.894   2.657   9.494  0.0298 -0.4127  0.6266
  163SOPE  H10X18335   2.002   2.646   9.472  0.4827  2.6440  0.8664
  163SOPE  H10Y18336   1.857   2.736   9.426 -0.3179 -0.9354  0.1966
  163SOPE  C31118337   1.807   2.532   9.459  0.0673  0.1542 -0.1715
  163SOPE  H11X18338   1.702   2.567   9.466  0.1649  0.6070 -0.8730
  163SOPE  H11Y18339   1.811   2.456   9.541  0.0640 -0.6475 -0.8956
  163SOPE  C31218340   1.829   2.476   9.318  0.6830 -0.0405  0.4455
  163SOPE  H12X18341   1.937   2.450   9.310  0.2210 -1.8113 -0.6921
  163SOPE  H12Y18342   1.807   2.556   9.245 -0.4305 -1.9866 -1.4783
  163SOPE  C31318343   1.734   2.359   9.287  0.5211 -0.0878  0.5532
  163SOPE  H13X18344   1.628   2.390   9.283 -0.0000 -1.6877  1.1619
  163SOPE  H13Y18345   1.738   2.278   9.363  0.6499 -0.5768  0.0350
  163SOPE  C31418346   1.758   2.287   9.147  0.0176  0.1262 -0.4928
  163SOPE  H14X18347   1.703   2.190   9.144  0.4817 -0.2620  1.7501
  163SOPE  H14Y18348   1.864   2.253   9.145 -0.4740 -1.4692 -1.1054
  163SOPE  C31518349   1.741   2.360   9.019 -0.0552  0.2888  0.0468
  163SOPE  H15X18350   1.832   2.419   8.996  0.5775 -0.7793 -0.2601
  163SOPE  H15Y18351   1.642   2.412   9.023 -0.2006  0.1256 -0.9727
  163SOPE  C31618352   1.732   2.268   8.898 -0.6611 -0.1786 -0.2522
  163SOPE  H16X18353   1.641   2.204   8.895  0.3511 -1.6735 -2.9673
  163SOPE  H16Y18354   1.813   2.194   8.912 -0.4775  0.4100  2.2464
  163SOPE  C31718355   1.753   2.340   8.765 -0.2025  0.6977 -0.1673
  163SOPE  H17X18356   1.849   2.396   8.760 -0.1871  0.6127 -0.9879
  163SOPE  H17Y18357   1.673   2.417   8.757 -1.7102 -0.5586  1.8577
  163SOPE  C31818358   1.734   2.248   8.641 -0.1698  0.0642  0.4524
  163SOPE  H18X18359   1.643   2.185   8.652 -0.4501  0.1956 -0.8993
  163SOPE  H18Y18360   1.825   2.185   8.632  0.4599  1.2159 -1.9924
  163SOPE  H18Z18361   1.733   2.310   8.549 -3.2093 -0.3447  0.0862
  164SOPE     N18362   5.240   0.069  11.118  0.4474  0.1066  0.2671
  164SOPE   HN118363   5.222   0.049  11.018  2.1323  2.3009 -0.5432
  164SOPE   HN218364   5.341   0.090  11.133  0.4711  1.7883 -1.8855
  164SOPE   HN318365   5.220  -0.014  11.177  1.1138 -1.2829 -1.3713
  164SOPE   C1218366   5.171   0.196  11.161  0.3076  0.2858 -0.3315
  164SOPE  H12A18367   5.216   0.218  11.259  1.4425  0.8313 -0.9577
  164SOPE  H12B18368   5.061   0.176  11.164  0.3254  0.0414 -0.9777
  164SOPE   C1118369   5.186   0.317  11.062 -0.4138 -0.5001 -0.6553
  164SOPE  H11A18370   5.296   0.335  11.068 -0.2443 -0.8402 -2.2963
  164SOPE  H11B18371   5.138   0.412  11.095  0.6233  0.3250 -1.4357
  164SOPE     P18372   5.211   0.359  10.802 -0.6242  0.1033  0.0813
  164SOPE   O1318373   5.116   0.363  10.693 -0.0092  0.0345 -0.5145
  164SOPE   O1418374   5.338   0.282  10.781  0.2815 -0.7007  0.7006
  164SOPE   O1218375   5.142   0.294  10.932 -0.1291 -0.2349  0.0057
  164SOPE   O1118376   5.237   0.510  10.860  0.0645  0.0326 -0.0487
  164SOPE    C118377   5.138   0.610  10.854  0.1126 -0.2081  0.2686
  164SOPE    HA18378   5.142   0.661  10.953  0.1133  0.5059 -0.0952
  164SOPE    HB18379   5.038   0.563  10.851  0.9065 -1.9254 -0.3275
  164SOPE    C218380   5.164   0.716  10.746 -0.2686  0.2744 -1.0153
  164SOPE    HS18381   5.078   0.785  10.738  1.4756  2.7374  0.3387
  164SOPE   O2118382   5.207   0.661  10.621 -0.2814  0.4638  0.8093
  164SOPE   C2118383   5.105   0.618  10.546 -0.2798 -0.1367 -0.1831
  164SOPE   O2218384   4.992   0.631  10.573  0.4101  0.1351  0.4370
  164SOPE   C2218385   5.165   0.552  10.421  0.7967  0.4815  0.1496
  164SOPE   H2R18386   5.235   0.475  10.459  0.5131  0.1563  0.0189
  164SOPE   H2S18387   5.213   0.626  10.353 -2.5150  1.8518 -0.8986
  164SOPE    C318388   5.283   0.813  10.799 -0.2807 -0.0746 -0.1716
  164SOPE    HX18389   5.361   0.750  10.846  0.1231  0.2238 -0.4412
  164SOPE    HY18390   5.236   0.865  10.885 -2.4263 -1.4491 -0.4329
  164SOPE   O3118391   5.329   0.912  10.697 -0.1455 -0.5786 -0.3738
  164SOPE   C3118392   5.244   1.012  10.671  0.2529  0.0838 -0.2566
  164SOPE   O3218393   5.137   1.028  10.732 -0.2551  0.7989  0.0742
  164SOPE   C3218394   5.302   1.106  10.565  0.0168  0.3236  0.3358
  164SOPE   H2X18395   5.410   1.124  10.588  0.0223  0.2635  0.3582
  164SOPE   H2Y18396   5.260   1.208  10.580  2.6705  2.1867 -3.3771
  164SOPE   C2318397   5.063   0.467  10.346  0.0459  0.7007  0.2559
  164SOPE   H3R18398   5.007   0.397  10.412  0.4166  1.6218  1.5723
  164SOPE   H3S18399   5.101   0.399  10.266 -0.7029  1.8363 -1.1087
  164SOPE   C2418400   4.961   0.557  10.270  0.5529 -0.2885 -0.0904
  164SOPE   H4R18401   4.887   0.605  10.337  0.9783  0.1706  0.0609
  164SOPE   H4S18402   5.012   0.643  10.222 -1.5570  0.7378 -0.6357
  164SOPE   C2518403   4.895   0.472  10.157 -0.4615 -0.4744  0.5367
  164SOPE   H5R18404   4.978   0.442  10.090 -2.0022 -0.4480 -1.4600
  164SOPE   H5S18405   4.857   0.382  10.210  0.5907 -2.3029 -1.6088
  164SOPE   C2618406   4.783   0.526  10.077  0.5083  0.1058  0.0445
  164SOPE   H6R18407   4.808   0.617  10.018  1.1688 -0.0618  0.0563
  164SOPE   H6S18408   4.748   0.456   9.998  1.1904  2.0814 -2.1135
  164SOPE   C2718409   4.657   0.563  10.167 -0.2612 -0.0267  0.2756
  164SOPE   H7R18410   4.684   0.579  10.273  0.7994  2.1702 -0.2530
  164SOPE   H7S18411   4.624   0.662  10.130  1.2996  1.0535  1.6393
  164SOPE   C2818412   4.558   0.441  10.145 -0.4153 -0.0066 -0.2614
  164SOPE   H8R18413   4.568   0.397  10.043 -2.1421  0.6775 -0.7600
  164SOPE   H8S18414   4.595   0.358  10.209 -0.8733 -1.2680 -1.5862
  164SOPE   C2918415   4.419   0.479  10.171  0.5239  0.2813  0.1014
  164SOPE   H9118416   4.400   0.522  10.271 -0.9893  3.2093 -1.3199
  164SOPE  C21018417   4.317   0.477  10.079 -0.0552 -0.7031 -0.0705
  164SOPE  H10118418   4.223   0.532  10.098  0.1814  0.7149 -2.5520
  164SOPE  C21118419   4.331   0.431   9.933  0.5710  0.4698  0.1813
  164SOPE  H11R18420   4.228   0.391   9.927  0.9457 -0.5644  0.2921
  164SOPE  H11S18421   4.405   0.347   9.930  0.7826  0.6154  1.1696
  164SOPE  C21218422   4.351   0.540   9.827 -0.3013 -0.2695  0.4161
  164SOPE  H12R18423   4.304   0.634   9.864 -1.0119 -0.7266  0.6835
  164SOPE  H12S18424   4.301   0.509   9.733  3.2024  1.6668 -2.3537
  164SOPE  C21318425   4.500   0.563   9.798  0.2529  0.1577  0.2268
  164SOPE  H13R18426   4.552   0.471   9.762 -0.3402  0.3937 -1.3055
  164SOPE  H13S18427   4.561   0.588   9.887  0.3215 -1.6391  0.7284
  164SOPE  C21418428   4.532   0.667   9.697 -0.4004  0.0801 -0.7102
  164SOPE  H14R18429   4.637   0.697   9.719 -0.8015  0.5202  0.6830
  164SOPE  H14S18430   4.477   0.762   9.713 -1.5854 -0.3999 -1.7594
  164SOPE  C21518431   4.511   0.619   9.555 -0.0999  0.0009  0.5531
  164SOPE  H15R18432   4.408   0.583   9.537  0.2421  0.2000 -2.1942
  164SOPE  H15S18433   4.576   0.531   9.533 -0.0040  0.1040  0.4207
  164SOPE  C21618434   4.530   0.739   9.449  0.3688  0.4687 -0.0589
  164SOPE  H16R18435   4.639   0.758   9.445  0.5088 -0.5274 -1.8840
  164SOPE  H16S18436   4.481   0.833   9.480 -2.4363 -0.9359  0.1303
  164SOPE  C21718437   4.472   0.718   9.309  0.0127  0.7196 -0.2601
  164SOPE  H17R18438   4.484   0.804   9.240  1.7407  0.7754  0.0742
  164SOPE  H17S18439   4.366   0.685   9.318  0.4922 -1.0119 -0.6427
  164SOPE  C21818440   4.547   0.608   9.237 -0.2483 -0.0595  0.9857
  164SOPE  H18R18441   4.556   0.535   9.319 -1.1488 -1.6878 -0.2984
  164SOPE  H18S18442   4.637   0.652   9.189 -1.4372  0.3775 -0.9637
  164SOPE  H18T18443   4.484   0.556   9.161  0.3775 -0.2470  0.5911
  164SOPE   C3318444   5.263   1.058  10.426  0.4341  0.4182 -0.4141
  164SOPE   H3X18445   5.314   0.961  10.405 -0.5204 -0.4651  1.1561
  164SOPE   H3Y18446   5.293   1.140  10.358 -1.3190  1.5270  0.0791
  164SOPE   C3418447   5.109   1.037  10.406  0.4524  0.8879 -0.1547
  164SOPE   H4X18448   5.053   1.132  10.413 -0.8914  0.0476  1.0837
  164SOPE   H4Y18449   5.075   0.965  10.483 -1.2022  2.8358  1.0291
  164SOPE   C3518450   5.080   0.958  10.271 -0.5283 -0.5494 -0.4339
  164SOPE   H5X18451   5.131   0.861  10.285  1.7441  0.6435  0.0888
  164SOPE   H5Y18452   5.127   1.014  10.187 -1.4526  0.6993 -0.1573
  164SOPE   C3618453   4.929   0.947  10.244 -0.9552  0.8183  0.3243
  164SOPE   H6X18454   4.882   1.046  10.264  0.4111  1.6943 -0.5865
  164SOPE   H6Y18455   4.881   0.869  10.307 -0.2566 -0.6464 -0.8730
  164SOPE   C3718456   4.894   0.924  10.095  0.2486  0.5535  0.4197
  164SOPE   H7X18457   4.784   0.914  10.086  0.1165 -0.1058  2.1669
  164SOPE   H7Y18458   4.917   0.819  10.065 -2.9989 -0.0428 -0.3912
  164SOPE   C3818459   4.932   1.030   9.993 -0.4501  0.1758  0.9474
  164SOPE   H8X18460   5.043   1.033   9.993 -0.1127 -3.3727  4.5580
  164SOPE   H8Y18461   4.895   1.128  10.028 -0.1661  0.2046  1.1694
  164SOPE   C3918462   4.876   1.006   9.852  0.7221  0.0235 -1.1410
  164SOPE   H9X18463   4.765   1.003   9.861  0.6558  0.1416 -1.8695
  164SOPE   H9Y18464   4.914   0.907   9.821  3.0597  0.4145  0.2489
  164SOPE  C31018465   4.919   1.110   9.749 -0.5078 -0.1716 -0.4739
  164SOPE  H10X18466   5.030   1.106   9.736 -0.5688 -1.2052 -0.7929
  164SOPE  H10Y18467   4.905   1.212   9.792  1.2563 -0.4688  0.9584
  164SOPE  C31118468   4.841   1.101   9.613  0.1446 -0.4305  0.4391
  164SOPE  H11X18469   4.863   1.193   9.555 -2.4412  0.6855  1.0951
  164SOPE  H11Y18470   4.732   1.108   9.637 -0.3392  1.4474 -1.8724
  164SOPE  C31218471   4.875   0.974   9.532  0.2406 -0.3996 -0.2653
  164SOPE  H12X18472   4.820   0.884   9.564  1.6143 -1.0805  0.2744
  164SOPE  H12Y18473   4.982   0.965   9.560 -0.1193  0.3586  1.5515
  164SOPE  C31318474   4.852   0.995   9.384  0.3326  0.0700 -0.3996
  164SOPE  H13X18475   4.907   1.090   9.366 -0.3984  1.0626  2.1783
  164SOPE  H13Y18476   4.746   1.007   9.353  0.4637  1.1362 -0.4853
  164SOPE  C31418477   4.909   0.877   9.305 -0.0282 -0.1358  0.1271
  164SOPE  H14X18478   4.830   0.799   9.311 -0.4048  0.3417  2.0700
  164SOPE  H14Y18479   5.000   0.826   9.344 -0.1557 -0.2218  0.3144
  164SOPE  C31518480   4.916   0.922   9.157  0.5800 -0.1901  0.4438
  164SOPE  H15X18481   5.002   0.992   9.152 -0.5855  1.5675  2.7931
  164SOPE  H15Y18482   4.818   0.972   9.145  0.0873 -1.3420 -0.5884
  164SOPE  C31618483   4.909   0.796   9.065  0.2112  0.3008  0.6467
  164SOPE  H16X18484   4.815   0.739   9.079 -1.0617  2.0123 -0.5779
  164SOPE  H16Y18485   4.994   0.727   9.086  0.9710  1.1253  0.3157
  164SOPE  C31718486   4.916   0.822   8.910 -0.1245 -0.1640  0.1178
  164SOPE  H17X18487   4.975   0.913   8.885  2.4752 -2.0578 -0.9919
  164SOPE  H17Y18488   4.811   0.850   8.885 -0.7791 -1.7010  1.0239
  164SOPE  C31818489   4.966   0.703   8.830  0.4727  0.8125  0.2106
  164SOPE  H18X18490   4.950   0.724   8.722  0.1074 -1.4646 -0.2405
  164SOPE  H18Y18491   4.908   0.611   8.855  0.8159  0.9973  1.7539
  164SOPE  H18Z18492   5.072   0.672   8.844 -0.1709 -0.4754  2.7430
  165SOPE     N18493   3.856   1.361  10.887 -0.3744 -0.3148 -0.0584
  165SOPE   HN118494   3.949   1.315  10.879  0.1844  0.6731  0.5487
  165SOPE   HN218495   3.862   1.428  10.966 -0.6209 -1.1363  0.6758
  165SOPE   HN318496   3.784   1.291  10.915  0.0200 -0.3804  0.8010
  165SOPE   C1218497   3.827   1.429  10.755 -0.6642 -0.0407 -0.1687
  165SOPE  H12A18498   3.734   1.489  10.765 -0.4396  0.2481  0.2142
  165SOPE  H12B18499   3.801   1.357  10.674 -1.1312  1.0780 -1.0492
  165SOPE   C1118500   3.936   1.528  10.722 -0.5365 -0.1479  0.0225
  165SOPE  H11A18501   3.914   1.563  10.618 -0.3473  0.8522  0.3074
  165SOPE  H11B18502   4.041   1.490  10.728  0.2261  1.7595 -0.5469
  165SOPE     P18503   4.015   1.658  10.935 -0.3016  0.0359 -0.1186
  165SOPE   O1318504   4.003   1.548  11.034 -0.6010 -0.0677  0.0661
  165SOPE   O1418505   3.985   1.794  10.986 -1.0295 -0.5907 -0.7420
  165SOPE   O1218506   3.918   1.631  10.811 -0.2761  0.1242  0.0932
  165SOPE   O1118507   4.156   1.642  10.880 -0.3877 -0.5406 -0.1090
  165SOPE    C118508   4.225   1.758  10.819  0.4128  0.1729  0.5324
  165SOPE    HA18509   4.328   1.766  10.860  0.0034  1.3773  1.4039
  165SOPE    HB18510   4.189   1.860  10.846  0.9723  0.0351  1.8498
  165SOPE    C218511   4.216   1.759  10.659  0.2188 -0.4767  0.1037
  165SOPE    HS18512   4.114   1.767  10.616  0.8004 -1.2275 -1.4772
  165SOPE   O2118513   4.273   1.626  10.621  0.6772 -0.3713  0.0136
  165SOPE   C2118514   4.242   1.598  10.498 -0.4318  0.7887  0.7610
  165SOPE   O2218515   4.167   1.660  10.430  0.0354 -0.2497 -0.1651
  165SOPE   C2218516   4.332   1.489  10.450 -0.0944  0.7066 -0.0405
  165SOPE   H2R18517   4.330   1.406  10.524  2.5466 -0.6166 -1.3177
  165SOPE   H2S18518   4.437   1.524  10.436 -0.5086  2.1177  0.2481
  165SOPE    C318519   4.316   1.876  10.614  0.7253 -0.2151 -0.0880
  165SOPE    HX18520   4.419   1.842  10.635  0.6873  0.8354  2.1050
  165SOPE    HY18521   4.293   1.959  10.685 -0.4648  1.5570 -2.4186
  165SOPE   O3118522   4.289   1.911  10.475 -0.4569 -0.3254  0.5216
  165SOPE   C3118523   4.368   1.864  10.382  0.1544 -0.3285  0.5035
  165SOPE   O3218524   4.470   1.799  10.396 -0.3897 -0.0261  0.0193
  165SOPE   C3218525   4.313   1.912  10.242  0.6765 -0.1570  0.5753
  165SOPE   H2X18526   4.327   2.022  10.250 -2.6472  0.3158  1.3512
  165SOPE   H2Y18527   4.204   1.895  10.231  1.2398 -3.1557 -1.2349
  165SOPE   C2318528   4.287   1.420  10.318  0.3702  0.0515  0.7292
  165SOPE   H3R18529   4.189   1.369  10.321  1.2230 -1.6171  1.6209
  165SOPE   H3S18530   4.366   1.347  10.291  0.1759  0.5599 -1.3602
  165SOPE   C2418531   4.294   1.519  10.197 -0.2321  0.5854 -0.7040
  165SOPE   H4R18532   4.231   1.608  10.216 -0.5850  0.0231  0.9161
  165SOPE   H4S18533   4.397   1.561  10.191 -0.1457  0.5375  0.3039
  165SOPE   C2518534   4.255   1.462  10.061  0.1245 -0.0593  0.7152
  165SOPE   H5R18535   4.310   1.512   9.979  1.6904  2.5683  3.2266
  165SOPE   H5S18536   4.272   1.352  10.052 -1.0799 -0.2450  0.4440
  165SOPE   C2618537   4.105   1.476  10.017  0.0667  0.4755 -0.2872
  165SOPE   H6R18538   4.040   1.441  10.100  0.6959 -1.1022 -0.4333
  165SOPE   H6S18539   4.080   1.584  10.009  2.5669  1.4015  2.6504
  165SOPE   C2718540   4.062   1.402   9.890  0.3470 -0.6676 -0.0850
  165SOPE   H7R18541   4.047   1.295   9.916  2.5422 -1.0029 -0.0075
  165SOPE   H7S18542   3.966   1.450   9.861 -0.2516 -1.5155  0.4384
  165SOPE   C2818543   4.161   1.414   9.772  0.1822 -0.2782 -0.6292
  165SOPE   H8R18544   4.256   1.370   9.809 -1.0285 -1.4578  1.2578
  165SOPE   H8S18545   4.128   1.341   9.695  1.6067 -0.4391 -1.1151
  165SOPE   C2918546   4.176   1.549   9.710  0.3676 -0.8189  0.1492
  165SOPE   H9118547   4.226   1.625   9.772 -0.0507  2.3235 -3.0630
  165SOPE  C21018548   4.119   1.592   9.595  0.5328  0.0073 -1.1795
  165SOPE  H10118549   4.124   1.702   9.588 -1.9753  0.1943 -1.0598
  165SOPE  C21118550   4.028   1.517   9.500 -0.4621  0.4906  0.5736
  165SOPE  H11R18551   3.935   1.578   9.495 -1.6446 -1.2619  0.1900
  165SOPE  H11S18552   3.991   1.417   9.533 -3.6609  0.8954 -1.3767
  165SOPE  C21218553   4.090   1.511   9.353 -1.2476  0.6188 -0.7100
  165SOPE  H12R18554   4.194   1.472   9.354 -0.7825  1.7405  1.2729
  165SOPE  H12S18555   4.093   1.611   9.305 -0.9340 -0.0240 -2.0745
  165SOPE  C21318556   4.010   1.420   9.257  0.3512 -0.5735  0.1392
  165SOPE  H13R18557   3.910   1.467   9.245 -0.2984 -1.7240  0.8650
  165SOPE  H13S18558   3.997   1.322   9.307 -0.8298 -0.0472  0.8921
  165SOPE  C21418559   4.079   1.399   9.118  0.2071 -0.0916 -0.4891
  165SOPE  H14R18560   4.176   1.347   9.132  1.0363  1.1110 -1.5825
  165SOPE  H14S18561   4.105   1.488   9.057  0.6814 -1.6878 -2.7809
  165SOPE  C21518562   4.000   1.304   9.020  0.5401  0.1372 -0.2597
  165SOPE  H15R18563   3.916   1.364   8.980 -0.8951 -2.5459 -1.5121
  165SOPE  H15S18564   3.943   1.230   9.080 -0.5428  0.4410 -0.9084
  165SOPE  C21618565   4.087   1.238   8.916  0.0020 -1.3862  0.5706
  165SOPE  H16R18566   4.152   1.161   8.963  1.1696 -1.4235 -1.0190
  165SOPE  H16S18567   4.144   1.321   8.869 -1.4178  0.4828  2.0068
  165SOPE  C21718568   4.010   1.165   8.804  0.5257  0.7759  0.0956
  165SOPE  H17R18569   3.938   1.096   8.853  1.6338 -0.4378  0.0526
  165SOPE  H17S18570   4.086   1.105   8.750 -0.5595 -0.8900  0.3593
  165SOPE  C21818571   3.933   1.261   8.717  0.3565 -0.2796 -0.1015
  165SOPE  H18R18572   3.988   1.355   8.694  0.4019  0.0425  1.2585
  165SOPE  H18S18573   3.846   1.285   8.781  0.0259  1.5354 -1.1874
  165SOPE  H18T18574   3.905   1.213   8.621 -1.2802 -0.5063  0.4585
  165SOPE   C3318575   4.390   1.867  10.117  0.1956  0.1841 -0.5529
  165SOPE   H3X18576   4.403   1.757  10.123 -0.1678  0.1924  0.5113
  165SOPE   H3Y18577   4.497   1.893  10.130 -0.0634  0.5742  0.9277
  165SOPE   C3418578   4.313   1.925   9.997  0.3187 -0.3857 -0.8570
  165SOPE   H4X18579   4.298   2.034  10.010  1.3725 -0.4921  2.0945
  165SOPE   H4Y18580   4.212   1.880   9.999  0.8850 -1.7172  1.0407
  165SOPE   C3518581   4.378   1.885   9.867  0.6830 -0.2787  0.1946
  165SOPE   H5X18582   4.346   1.780   9.848  1.5241 -0.6659  0.8237
  165SOPE   H5Y18583   4.489   1.890   9.869  0.6273  1.0758  1.7039
  165SOPE   C3618584   4.326   1.977   9.756  0.0322  0.2555  0.3797
  165SOPE   H6X18585   4.321   2.078   9.803 -2.4914  0.6334 -0.5192
  165SOPE   H6Y18586   4.220   1.942   9.756  0.3651 -0.8105  1.1420
  165SOPE   C3718587   4.392   1.966   9.625 -0.5740 -0.1889  0.4961
  165SOPE   H7X18588   4.367   1.867   9.580 -0.6514  0.6572 -1.4486
  165SOPE   H7Y18589   4.502   1.972   9.637 -0.3623  1.4255 -1.6355
  165SOPE   C3818590   4.357   2.073   9.522 -0.3019 -0.2903 -0.1019
  165SOPE   H8X18591   4.399   2.163   9.573  1.3450 -1.6021  0.9561
  165SOPE   H8Y18592   4.248   2.094   9.523  0.2199  3.5059 -2.2820
  165SOPE   C3918593   4.420   2.059   9.385  0.4036  0.4802  0.0951
  165SOPE   H9X18594   4.395   1.958   9.347  0.9324 -0.3523  1.8772
  165SOPE   H9Y18595   4.530   2.058   9.400  0.2037 -0.2800  1.7562
  165SOPE  C31018596   4.378   2.165   9.280 -0.2896 -0.9439 -0.2354
  165SOPE  H10X18597   4.364   2.256   9.342  0.9489  1.1792 -2.8702
  165SOPE  H10Y18598   4.273   2.144   9.249 -0.5920 -1.3564  1.0200
  165SOPE  C31118599   4.474   2.190   9.168 -0.7271  0.2805  0.8104
  165SOPE  H11X18600   4.498   2.097   9.112 -0.3133  2.7103 -3.4875
  165SOPE  H11Y18601   4.574   2.225   9.202  0.1868 -1.4966  0.0533
  165SOPE  C31218602   4.421   2.287   9.064  0.3054 -0.4011  0.0086
  165SOPE  H12X18603   4.424   2.389   9.107  0.5856 -0.0916 -0.7349
  165SOPE  H12Y18604   4.318   2.256   9.038  0.0870  0.2947  0.0247
  165SOPE  C31318605   4.496   2.261   8.939  0.3375  0.2046  0.6515
  165SOPE  H13X18606   4.469   2.163   8.895  1.4417  0.0192  0.3685
  165SOPE  H13Y18607   4.605   2.259   8.959  0.5147  0.9398 -0.1870
  165SOPE  C31418608   4.469   2.367   8.828  0.2885 -0.4091 -0.2468
  165SOPE  H14X18609   4.499   2.469   8.860  2.6174 -1.1531  0.1855
  165SOPE  H14Y18610   4.361   2.374   8.805  0.3427 -0.6863 -0.5907
  165SOPE  C31518611   4.553   2.333   8.701 -0.1672  0.9188  0.4315
  165SOPE  H15X18612   4.516   2.234   8.666 -1.2679  0.7193  2.0235
  165SOPE  H15Y18613   4.657   2.322   8.738 -0.2862 -2.1080  0.1389
  165SOPE  C31618614   4.540   2.442   8.596  0.0308 -0.1798  0.0083
  165SOPE  H16X18615   4.631   2.432   8.533  0.3171 -0.8068  0.5114
  165SOPE  H16Y18616   4.547   2.538   8.653 -0.4162 -0.0236 -0.2016
  165SOPE  C31718617   4.408   2.438   8.521 -0.6258  0.2015 -0.1385
  165SOPE  H17X18618   4.324   2.443   8.593  0.8408  1.7974  1.5722
  165SOPE  H17Y18619   4.395   2.345   8.460  1.0220 -0.6568  0.7536
  165SOPE  C31818620   4.386   2.565   8.431  0.3797  0.0872 -0.0737
  165SOPE  H18X18621   4.395   2.658   8.492  0.2879 -0.7575  1.2511
  165SOPE  H18Y18622   4.285   2.566   8.386  0.1918 -2.2614  0.1894
  165SOPE  H18Z18623   4.451   2.562   8.341 -0.6112  2.0024 -0.9003
  166SOPE     N18624   0.273   1.339  10.955  0.4577 -0.3834 -0.6970
  166SOPE   HN118625   0.224   1.382  11.036  3.7413 -1.2235  1.9681
  166SOPE   HN218626   0.281   1.424  10.896  1.1982 -1.8475 -2.8212
  166SOPE   HN318627   0.221   1.257  10.918 -0.5663 -0.7932  1.4947
  166SOPE   C1218628   0.408   1.307  11.020  0.1853  0.7730 -0.4128
  166SOPE  H12A18629   0.403   1.315  11.131 -0.7703  1.0902 -0.4729
  166SOPE  H12B18630   0.486   1.380  10.988  2.8668 -2.0330 -0.6792
  166SOPE   C1118631   0.451   1.165  10.987  0.2160  0.3992 -0.6054
  166SOPE  H11A18632   0.382   1.094  11.038  0.5085 -0.5536 -1.5238
  166SOPE  H11B18633   0.553   1.157  11.031 -0.8650 -2.7034  1.6792
  166SOPE     P18634   0.561   1.222  10.758 -0.3619  0.0983  0.1787
  166SOPE   O1318635   0.688   1.189  10.826  0.2028  0.3553 -0.0840
  166SOPE   O1418636   0.509   1.364  10.748 -0.5657  0.1221 -0.7989
  166SOPE   O1218637   0.453   1.142  10.847 -0.1621 -0.5088  0.0018
  166SOPE   O1118638   0.550   1.146  10.613  0.0541 -0.6527 -0.3236
  166SOPE    C118639   0.444   1.142  10.530 -0.1933 -0.3970  0.2556
  166SOPE    HA18640   0.348   1.135  10.586  0.4560  1.2399  1.6736
  166SOPE    HB18641   0.444   1.045  10.476 -0.8107 -0.2871  0.0458
  166SOPE    C218642   0.435   1.257  10.430 -0.7408 -0.1109  1.0277
  166SOPE    HS18643   0.371   1.209  10.353 -0.4788 -2.3426  2.1133
  166SOPE   O2118644   0.562   1.298  10.380 -0.4113  0.2264 -0.2286
  166SOPE   C2118645   0.646   1.207  10.329  0.2841  0.2956 -0.1220
  166SOPE   O2218646   0.625   1.088  10.333 -0.4108 -0.0102 -0.1387
  166SOPE   C2218647   0.779   1.262  10.294 -0.6998  0.3912  0.1909
  166SOPE   H2R18648   0.849   1.177  10.281 -1.7547 -0.5160  0.2862
  166SOPE   H2S18649   0.814   1.328  10.376 -0.7127  1.0009 -0.2925
  166SOPE    C318650   0.359   1.390  10.479 -0.7986  1.2343 -0.5430
  166SOPE    HX18651   0.434   1.450  10.535 -0.2990 -1.2673  1.6823
  166SOPE    HY18652   0.289   1.355  10.558  0.7638 -2.2224 -0.5205
  166SOPE   O3118653   0.291   1.468  10.373 -0.0762 -0.1110  0.0274
  166SOPE   C3118654   0.373   1.540  10.302 -0.1917 -0.3227 -0.5482
  166SOPE   O3218655   0.491   1.571  10.323  0.6332  0.5034  0.2449
  166SOPE   C3218656   0.291   1.601  10.189  0.2177 -0.6512  0.7866
  166SOPE   H2X18657   0.318   1.709  10.185 -0.6368 -0.4805 -1.4211
  166SOPE   H2Y18658   0.183   1.590  10.209  0.2599 -2.7662  0.1009
  166SOPE   C2318659   0.782   1.329  10.157 -0.2135 -0.5673 -0.6995
  166SOPE   H3R18660   0.870   1.398  10.153 -0.2042 -0.4700  0.7672
  166SOPE   H3S18661   0.694   1.393  10.135  1.2901  1.5429 -0.9181
  166SOPE   C2418662   0.786   1.226  10.044  0.9176  0.3699 -0.5250
  166SOPE   H4R18663   0.865   1.150  10.064 -0.7812 -0.7276  2.8022
  166SOPE   H4S18664   0.687   1.176  10.050  0.2947  1.5027 -1.1011
  166SOPE   C2518665   0.791   1.296   9.913 -0.3931 -0.1537 -0.1920
  166SOPE   H5R18666   0.686   1.314   9.883 -1.1653 -1.3436  1.6613
  166SOPE   H5S18667   0.850   1.390   9.920  2.4673 -1.9407  1.4831
  166SOPE   C2618668   0.861   1.208   9.809 -0.4758  0.9767  0.1958
  166SOPE   H6R18669   0.956   1.154   9.829  0.1515  1.4418 -1.3947
  166SOPE   H6S18670   0.785   1.129   9.793  1.0170 -0.6203  0.6902
  166SOPE   C2718671   0.871   1.282   9.671  0.0510  0.9438 -0.2779
  166SOPE   H7R18672   0.799   1.366   9.668 -0.6684  0.3261 -0.6610
  166SOPE   H7S18673   0.975   1.321   9.659  0.1099  1.1771  0.9187
  166SOPE   C2818674   0.841   1.200   9.547 -0.2374 -0.2715  0.1660
  166SOPE   H8R18675   0.880   1.267   9.467 -0.8096  0.6192  0.6042
  166SOPE   H8S18676   0.911   1.117   9.565  0.1248 -0.1360 -0.6048
  166SOPE   C2918677   0.694   1.173   9.522  0.3570  0.8070  0.5121
  166SOPE   H9118678   0.624   1.187   9.606 -0.5594  0.0055 -0.0845
  166SOPE  C21018679   0.638   1.149   9.401  0.3705  0.3662  0.3728
  166SOPE  H10118680   0.540   1.100   9.395 -0.4899  2.0241  0.2718
  166SOPE  C21118681   0.706   1.138   9.270 -0.7617 -0.2485 -0.0443
  166SOPE  H11R18682   0.757   1.040   9.274 -1.2572 -0.4886  1.1585
  166SOPE  H11S18683   0.781   1.218   9.253 -0.8104 -0.6013 -2.0876
  166SOPE  C21218684   0.602   1.142   9.154 -0.3043 -0.7339 -0.9271
  166SOPE  H12R18685   0.557   1.243   9.147 -0.8191 -1.0424 -2.5960
  166SOPE  H12S18686   0.523   1.064   9.164 -1.9375  1.0431  0.7570
  166SOPE  C21318687   0.670   1.116   9.020  0.2258 -0.2533 -0.7761
  166SOPE  H13R18688   0.677   1.005   9.011 -0.1832 -0.5573  1.9506
  166SOPE  H13S18689   0.772   1.160   9.022 -0.5749  1.6944 -0.8371
  166SOPE  C21418690   0.599   1.162   8.891  0.9570  0.5033 -0.6496
  166SOPE  H14R18691   0.665   1.152   8.803  0.4761  0.7610 -1.0412
  166SOPE  H14S18692   0.565   1.267   8.907  2.5026  0.9413 -0.0210
  166SOPE  C21518693   0.477   1.080   8.850 -0.1290  0.6581  0.2925
  166SOPE  H15R18694   0.419   1.070   8.944  1.2842 -0.8632  1.0453
  166SOPE  H15S18695   0.509   0.979   8.816  1.0305  2.0899 -3.3079
  166SOPE  C21618696   0.388   1.150   8.743  0.3038  0.1800 -0.5054
  166SOPE  H16R18697   0.444   1.158   8.648  0.9588 -2.7024 -0.4541
  166SOPE  H16S18698   0.370   1.250   8.790  0.1825 -0.9295  2.0121
  166SOPE  C21718699   0.261   1.074   8.710 -0.5295  0.6898  0.3382
  166SOPE  H17R18700   0.196   1.124   8.636 -0.0656  0.0998 -0.4796
  166SOPE  H17S18701   0.201   1.072   8.804 -0.7406 -0.6262  0.1944
  166SOPE  C21818702   0.281   0.928   8.648 -0.6446 -0.2523  0.4514
  166SOPE  H18R18703   0.335   0.875   8.729 -0.0281 -0.3501 -0.0124
  166SOPE  H18S18704   0.336   0.931   8.552 -1.2441  2.0908  0.1414
  166SOPE  H18T18705   0.183   0.875   8.639 -0.0716 -1.1265 -1.1028
  166SOPE   C3318706   0.340   1.532  10.056 -0.1519 -0.0148 -0.0348
  166SOPE   H3X18707   0.450   1.536  10.046 -0.2802 -0.1143 -1.9199
  166SOPE   H3Y18708   0.295   1.592   9.974 -2.5226  0.5597  1.5933
  166SOPE   C3418709   0.298   1.388  10.029 -0.0138 -0.4574  0.8334
  166SOPE   H4X18710   0.188   1.371  10.032  0.0022 -1.6234 -1.9809
  166SOPE   H4Y18711   0.339   1.321  10.107  0.0648 -0.0871  1.1156
  166SOPE   C3518712   0.353   1.343   9.888  0.1819  0.0593  0.4404
  166SOPE   H5X18713   0.461   1.364   9.871 -0.1342  0.5428 -1.0597
  166SOPE   H5Y18714   0.291   1.387   9.808  1.1977  0.7704  0.0183
  166SOPE   C3618715   0.342   1.191   9.878 -0.0094  0.0682  0.2957
  166SOPE   H6X18716   0.235   1.162   9.874  0.8175 -3.2481 -0.3946
  166SOPE   H6Y18717   0.402   1.145   9.960  1.9333  0.3988 -0.8719
  166SOPE   C3718718   0.401   1.126   9.750 -0.1960  0.2455 -0.0215
  166SOPE   H7X18719   0.509   1.113   9.775 -0.2351  1.3692  0.7690
  166SOPE   H7Y18720   0.387   1.200   9.668 -0.4905  0.7175  0.4566
  166SOPE   C3818721   0.334   0.994   9.707 -0.6985 -0.6945  0.1597
  166SOPE   H8X18722   0.227   1.013   9.688 -1.0161 -0.4024  2.0689
  166SOPE   H8Y18723   0.349   0.927   9.795  3.6836  1.4642  1.3585
  166SOPE   C3918724   0.414   0.934   9.587 -0.0817  0.3213  0.1739
  166SOPE   H9X18725   0.455   0.834   9.613  0.5113  0.6815  0.6583
  166SOPE   H9Y18726   0.505   0.991   9.558 -0.3766  0.2675 -0.8816
  166SOPE  C31018727   0.318   0.923   9.474 -0.0658 -0.1028 -0.1479
  166SOPE  H10X18728   0.248   1.006   9.452  1.0692  0.5351 -1.5238
  166SOPE  H10Y18729   0.247   0.847   9.513  0.5121 -0.6098 -0.0666
  166SOPE  C31118730   0.376   0.882   9.336  0.0546  0.0178  0.6198
  166SOPE  H11X18731   0.457   0.806   9.348 -2.1668 -3.2599 -2.8963
  166SOPE  H11Y18732   0.412   0.978   9.293  1.7613 -0.2137  1.4173
  166SOPE  C31218733   0.274   0.812   9.240  0.2552 -0.5769 -0.2263
  166SOPE  H12X18734   0.309   0.832   9.136  2.4896  0.3718  0.6227
  166SOPE  H12Y18735   0.178   0.867   9.243  0.1285 -0.7587 -0.8948
  166SOPE  C31318736   0.241   0.669   9.262 -0.9618 -0.6797 -0.4596
  166SOPE  H13X18737   0.213   0.651   9.367  0.5866  1.2416  0.3533
  166SOPE  H13Y18738   0.330   0.605   9.245  2.5278  3.7041 -0.5907
  166SOPE  C31418739   0.117   0.629   9.187 -0.0291 -0.0846  0.0973
  166SOPE  H14X18740   0.162   0.605   9.088  0.0735  0.9200 -0.1123
  166SOPE  H14Y18741   0.038   0.706   9.175 -0.6856 -0.7307  0.1927
  166SOPE  C31518742   0.060   0.497   9.230 -0.3728 -0.2422 -0.2756
  166SOPE  H15X18743   0.006   0.521   9.324 -1.1349  0.9649 -0.9961
  166SOPE  H15Y18744   0.144   0.432   9.263 -0.5180 -0.0349  0.5284
  166SOPE  C31618745  -0.039   0.451   9.134  0.5511  0.6704  0.4670
  166SOPE  H16X18746  -0.120   0.526   9.119 -2.6500 -2.1347  2.0997
  166SOPE  H16Y18747  -0.095   0.363   9.172 -0.2480  1.6111  1.5197
  166SOPE  C31718748   0.015   0.423   8.994 -0.7806  1.0208 -0.3965
  166SOPE  H17X18749   0.119   0.386   8.990 -1.8751 -2.5825  0.8456
  166SOPE  H17Y18750   0.018   0.522   8.943  4.5434  1.4439  0.1941
  166SOPE  C31818751  -0.061   0.321   8.897  0.7820  0.4770 -0.2917
  166SOPE  H18X18752  -0.165   0.358   8.900 -0.0818 -1.8290  0.2853
  166SOPE  H18Y18753  -0.056   0.221   8.945 -1.5395  0.7926  0.7619
  166SOPE  H18Z18754  -0.013   0.317   8.797 -0.6653  0.1260 -0.9955
  167SOPE     N18755   1.655   6.270   6.027 -0.1120 -0.0483 -0.4802
  167SOPE   HN118756   1.678   6.356   6.080  0.2055 -1.0710  1.1074
  167SOPE   HN218757   1.749   6.230   6.007  0.4636  0.2935  1.3664
  167SOPE   HN318758   1.599   6.295   5.943  1.1873  0.3979 -1.2506
  167SOPE   C1218759   1.561   6.182   6.107  0.3200  0.0380 -0.0226
  167SOPE  H12A18760   1.618   6.149   6.197 -0.5209 -2.3282 -0.2815
  167SOPE  H12B18761   1.539   6.092   6.045  1.3937 -0.0995 -0.2204
  167SOPE   C1118762   1.427   6.266   6.144 -0.3779  0.1828 -0.4527
  167SOPE  H11A18763   1.386   6.227   6.239 -0.2740  0.4112 -0.3135
  167SOPE  H11B18764   1.354   6.248   6.062 -1.8408  0.3024  0.7747
  167SOPE     P18765   1.418   6.498   6.277  0.1258  0.4263 -0.0276
  167SOPE   O1318766   1.351   6.620   6.233  0.8701 -0.5074 -0.5161
  167SOPE   O1418767   1.547   6.518   6.348  0.2524 -0.2254 -0.2131
  167SOPE   O1218768   1.451   6.411   6.155 -0.3321  0.5078 -0.0930
  167SOPE   O1118769   1.332   6.415   6.373  0.6652  0.5800  0.3049
  167SOPE    C118770   1.261   6.491   6.470  0.1680 -0.3141 -1.0497
  167SOPE    HA18771   1.163   6.440   6.481  1.1514 -2.2184 -0.5964
  167SOPE    HB18772   1.248   6.599   6.451 -1.0796 -0.3253 -0.3097
  167SOPE    C218773   1.324   6.484   6.608 -0.8524 -0.4615 -0.3124
  167SOPE    HS18774   1.425   6.530   6.604 -1.0662  0.3532  1.9236
  167SOPE   O2118775   1.331   6.341   6.633  0.7697  0.0648 -0.3699
  167SOPE   C2118776   1.419   6.310   6.729  0.7395 -0.0663  0.4771
  167SOPE   O2218777   1.503   6.384   6.770  0.3537 -0.1979 -0.3678
  167SOPE   C2218778   1.416   6.162   6.753 -0.0986  0.1128  0.4143
  167SOPE   H2R18779   1.501   6.116   6.698 -0.3411 -0.8759  0.8346
  167SOPE   H2S18780   1.319   6.123   6.715  0.2393 -0.0206 -0.3339
  167SOPE    C318781   1.238   6.557   6.725 -0.0274  0.9806  0.0785
  167SOPE    HX18782   1.142   6.501   6.721  0.5907 -0.1060 -0.0373
  167SOPE    HY18783   1.217   6.659   6.688 -0.4367  0.8653 -0.0139
  167SOPE   O3118784   1.299   6.568   6.857  0.2934 -0.3380  0.3476
  167SOPE   C3118785   1.389   6.658   6.885  0.0947  0.7628  0.5193
  167SOPE   O3218786   1.426   6.744   6.804 -0.0902  0.0951 -0.0249
  167SOPE   C3218787   1.445   6.639   7.025  0.3725 -0.6229  0.1412
  167SOPE   H2X18788   1.392   6.719   7.080  1.9159  2.1684 -2.1905
  167SOPE   H2Y18789   1.551   6.669   7.040  0.4355 -2.0375  3.5567
  167SOPE   C2318790   1.432   6.133   6.901  0.0119 -0.1811 -0.9139
  167SOPE   H3R18791   1.372   6.046   6.935 -1.3798  1.6669  1.7040
  167SOPE   H3S18792   1.396   6.222   6.957  2.1132 -0.6614  1.3878
  167SOPE   C2418793   1.579   6.105   6.940  0.4133 -0.6253 -0.4192
  167SOPE   H4R18794   1.611   6.043   6.854  3.0016 -0.1332  0.0894
  167SOPE   H4S18795   1.638   6.199   6.928 -0.2239 -0.3329 -1.3642
  167SOPE   C2518796   1.595   6.028   7.071 -0.1856  0.2356  0.4071
  167SOPE   H5R18797   1.570   6.094   7.157 -0.6891 -1.7678  1.8645
  167SOPE   H5S18798   1.524   5.942   7.076  1.6099 -1.3146  0.3990
  167SOPE   C2618799   1.743   5.982   7.108 -0.0698 -0.6114  0.2106
  167SOPE   H6R18800   1.729   5.949   7.213 -2.8412  0.1627  0.1671
  167SOPE   H6S18801   1.769   5.907   7.030 -2.7350 -1.8879  0.4361
  167SOPE   C2718802   1.847   6.099   7.116  0.7142  0.2090  0.1738
  167SOPE   H7R18803   1.952   6.061   7.114  1.2058  1.5350  0.1767
  167SOPE   H7S18804   1.854   6.157   7.022 -2.1339  2.0738  1.0012
  167SOPE   C2818805   1.813   6.193   7.229 -0.6590 -0.8718 -0.6448
  167SOPE   H8R18806   1.715   6.242   7.209 -0.4906  1.2045  2.8624
  167SOPE   H8S18807   1.792   6.132   7.319 -0.2797 -0.0560  0.0062
  167SOPE   C2918808   1.925   6.289   7.249 -0.0365  0.6707 -0.1443
  167SOPE   H9118809   1.931   6.365   7.169  0.8361  0.5618 -0.1923
  167SOPE  C21018810   2.016   6.289   7.345  0.0242  0.6491  0.2358
  167SOPE  H10118811   2.089   6.368   7.369  0.5070 -0.4547  2.6791
  167SOPE  C21118812   2.027   6.186   7.457 -0.3178  0.1439 -0.1716
  167SOPE  H11R18813   2.125   6.134   7.451  0.3198  1.4626 -1.9540
  167SOPE  H11S18814   1.950   6.106   7.450  1.1795 -1.9309  3.6898
  167SOPE  C21218815   2.006   6.263   7.594 -0.3339  0.5858  0.8802
  167SOPE  H12R18816   1.914   6.325   7.602 -1.9736 -1.7588  1.0296
  167SOPE  H12S18817   2.095   6.329   7.604 -0.8798  1.9792 -2.2547
  167SOPE  C21318818   1.983   6.164   7.702  0.0626 -0.6986  0.2288
  167SOPE  H13R18819   2.069   6.093   7.700 -0.0058 -0.8088  0.9593
  167SOPE  H13S18820   1.899   6.093   7.689 -0.0754 -0.6119  0.6389
  167SOPE  C21418821   1.977   6.229   7.842 -0.0085  0.1084  0.3714
  167SOPE  H14R18822   1.874   6.258   7.871 -0.0886  0.8044 -0.5931
  167SOPE  H14S18823   2.029   6.328   7.843  1.7054 -0.7485 -0.6494
  167SOPE  C21518824   2.015   6.139   7.961 -0.2493  1.2206  0.1866
  167SOPE  H15R18825   1.936   6.062   7.971  1.6428 -0.7909  0.2302
  167SOPE  H15S18826   2.012   6.195   8.057 -1.0068  0.8039  0.4176
  167SOPE  C21618827   2.147   6.065   7.959 -0.8976  0.4627 -1.3349
  167SOPE  H16R18828   2.214   6.151   7.979  0.3141 -0.5973 -0.6899
  167SOPE  H16S18829   2.173   6.028   7.858  0.3721  0.5768 -1.0678
  167SOPE  C21718830   2.167   5.965   8.078  0.8463 -0.4444  0.2550
  167SOPE  H17R18831   2.092   5.990   8.157  0.7584 -1.2082  0.4242
  167SOPE  H17S18832   2.262   5.982   8.133  1.2147 -1.7195  0.0526
  167SOPE  C21818833   2.140   5.820   8.031 -0.1753 -0.3316 -0.3699
  167SOPE  H18R18834   2.034   5.806   8.000 -0.9159  0.4065  1.6295
  167SOPE  H18S18835   2.157   5.754   8.118  2.9186  2.0985  1.0891
  167SOPE  H18T18836   2.205   5.788   7.947  0.1935 -1.9190  0.4945
  167SOPE   C3318837   1.428   6.502   7.092  0.3318  0.3659 -0.0002
  167SOPE   H3X18838   1.489   6.429   7.034  2.7893  1.7849  0.6575
  167SOPE   H3Y18839   1.322   6.469   7.098 -0.8866  3.5902 -1.2692
  167SOPE   C3418840   1.500   6.519   7.228  0.7439  0.1464 -0.8324
  167SOPE   H4X18841   1.447   6.599   7.283 -1.1395 -1.7371  0.2394
  167SOPE   H4Y18842   1.607   6.538   7.204  1.1758  0.1507  0.9759
  167SOPE   C3518843   1.487   6.392   7.311 -0.3768  0.8290 -0.5075
  167SOPE   H5X18844   1.539   6.311   7.255 -2.8392  0.4147 -2.4141
  167SOPE   H5Y18845   1.388   6.343   7.323  0.0666 -0.0909 -0.4998
  167SOPE   C3618846   1.537   6.417   7.456  0.4187  0.4179 -0.1364
  167SOPE   H6X18847   1.467   6.488   7.506 -0.2521  0.2619 -0.8274
  167SOPE   H6Y18848   1.641   6.454   7.464  0.9019 -0.5081 -1.7074
  167SOPE   C3718849   1.522   6.294   7.541  0.3178 -0.0110 -0.2761
  167SOPE   H7X18850   1.585   6.213   7.499 -2.6828 -1.5611 -2.0936
  167SOPE   H7Y18851   1.414   6.269   7.536  0.3952 -0.3147 -0.5050
  167SOPE   C3818852   1.565   6.322   7.685  0.7903 -0.5633  0.0344
  167SOPE   H8X18853   1.502   6.403   7.726  1.0770 -0.5144  0.3837
  167SOPE   H8Y18854   1.669   6.363   7.681  0.9013 -0.7143  1.0887
  167SOPE   C3918855   1.569   6.196   7.781  0.2342  0.0264  0.2448
  167SOPE   H9X18856   1.651   6.122   7.775 -0.2674 -0.4703 -0.6859
  167SOPE   H9Y18857   1.479   6.135   7.758  0.5439 -0.2017 -0.3742
  167SOPE  C31018858   1.563   6.240   7.922 -0.0639  0.2587 -0.2438
  167SOPE  H10X18859   1.474   6.300   7.950  0.9998  1.3751  0.8802
  167SOPE  H10Y18860   1.647   6.311   7.938 -1.0580  1.2562  0.7675
  167SOPE  C31118861   1.595   6.121   8.025  0.6450 -0.4235  0.3185
  167SOPE  H11X18862   1.672   6.053   7.982  2.1234  1.5503 -0.3250
  167SOPE  H11Y18863   1.502   6.066   8.048  0.5379  0.0939  1.1336
  167SOPE  C31218864   1.654   6.172   8.152 -0.0417  0.2373 -0.2896
  167SOPE  H12X18865   1.572   6.239   8.186 -0.6310 -0.2436 -0.7379
  167SOPE  H12Y18866   1.747   6.230   8.132  0.5987 -0.8370 -0.5462
  167SOPE  C31318867   1.682   6.063   8.259 -0.5024  0.0398 -0.0772
  167SOPE  H13X18868   1.792   6.048   8.267 -0.0592  0.8869 -3.2234
  167SOPE  H13Y18869   1.657   5.957   8.240 -0.0994 -0.3092  1.2063
  167SOPE  C31418870   1.618   6.109   8.392 -0.8435  0.1518  0.0296
  167SOPE  H14X18871   1.508   6.115   8.378 -0.8077  1.3855  0.1245
  167SOPE  H14Y18872   1.642   6.215   8.416 -0.7904 -0.4122  2.7907
  167SOPE  C31518873   1.661   6.030   8.523 -0.4239 -0.0555 -0.2733
  167SOPE  H15X18874   1.617   6.077   8.613  1.6101 -0.8512  1.1974
  167SOPE  H15Y18875   1.771   6.041   8.529 -0.4069 -0.7394  1.1949
  167SOPE  C31618876   1.618   5.885   8.522  0.0522 -0.3549 -0.4935
  167SOPE  H16X18877   1.658   5.824   8.439  0.5208  0.8853 -1.1982
  167SOPE  H16Y18878   1.508   5.891   8.507 -0.1803  1.4453  1.4481
  167SOPE  C31718879   1.644   5.820   8.660  0.0780 -0.4196  0.7499
  167SOPE  H17X18880   1.585   5.871   8.739 -1.4206 -0.2365 -0.4521
  167SOPE  H17Y18881   1.752   5.832   8.686  0.2195  1.4403 -0.5228
  167SOPE  C31818882   1.604   5.672   8.665  0.3172 -0.4390  0.1123
  167SOPE  H18X18883   1.651   5.608   8.587  1.1625 -0.9536  1.0116
  167SOPE  H18Y18884   1.494   5.658   8.672  0.3151 -1.5594 -1.5444
  167SOPE  H18Z18885   1.647   5.625   8.756 -0.6982 -0.1010  0.7847
  168SOPE     N18886   2.130   3.314   6.329 -0.0179 -0.6407 -0.9081
  168SOPE   HN118887   2.168   3.223   6.362 -0.8824 -0.8002 -0.3197
  168SOPE   HN218888   2.068   3.361   6.398  0.5193 -2.6480  1.0562
  168SOPE   HN318889   2.075   3.298   6.242 -0.1375  0.6649 -1.0913
  168SOPE   C1218890   2.253   3.386   6.294  0.7354 -0.6414 -0.1138
  168SOPE  H12A18891   2.311   3.425   6.381 -0.2369  0.3778  0.0995
  168SOPE  H12B18892   2.220   3.480   6.244 -0.1364 -1.0017 -0.2208
  168SOPE   C1118893   2.344   3.301   6.202  0.7228 -0.4680  0.2146
  168SOPE  H11A18894   2.433   3.363   6.179 -0.2817  0.7345 -0.5717
  168SOPE  H11B18895   2.295   3.288   6.104  0.2063 -0.8123  0.5110
  168SOPE     P18896   2.506   3.121   6.282 -0.1509  0.1853  0.1885
  168SOPE   O1318897   2.564   3.084   6.153 -0.3858  0.6625  0.0772
  168SOPE   O1418898   2.500   3.019   6.386 -0.8348 -0.2564 -0.6786
  168SOPE   O1218899   2.357   3.171   6.259 -0.8725  0.4603  0.0531
  168SOPE   O1118900   2.580   3.240   6.333 -0.5353 -0.1611  0.3854
  168SOPE    C118901   2.551   3.309   6.457  0.6600  0.2182 -0.5199
  168SOPE    HA18902   2.444   3.302   6.485  0.7857 -2.2070 -0.4116
  168SOPE    HB18903   2.566   3.418   6.446  3.3123 -0.1276 -0.9026
  168SOPE    C218904   2.613   3.246   6.588 -0.8657 -0.2155  0.2585
  168SOPE    HS18905   2.577   3.142   6.603  1.9738 -1.3785 -0.3850
  168SOPE   O2118906   2.576   3.330   6.696 -0.1012 -0.5762 -0.3678
  168SOPE   C2118907   2.513   3.278   6.794  0.2716  0.2754  0.1781
  168SOPE   O2218908   2.479   3.160   6.797 -0.3071  0.0358 -0.1874
  168SOPE   C2218909   2.486   3.384   6.899 -0.7049  0.0713  0.3749
  168SOPE   H2R18910   2.416   3.457   6.854  2.5159  2.3003 -1.4602
  168SOPE   H2S18911   2.582   3.438   6.917 -0.5577 -0.8110  2.5463
  168SOPE    C318912   2.767   3.237   6.560 -0.8988 -0.4549 -0.2193
  168SOPE    HX18913   2.787   3.341   6.529 -0.0886 -0.2221  1.0445
  168SOPE    HY18914   2.796   3.161   6.484 -1.7930 -0.0428 -1.0046
  168SOPE   O3118915   2.833   3.208   6.687 -0.3538 -0.5147  0.1141
  168SOPE   C3118916   2.956   3.248   6.709  0.0011 -0.3232 -0.0113
  168SOPE   O3218917   3.035   3.299   6.630  0.3897 -0.2328  0.0066
  168SOPE   C3218918   2.993   3.187   6.846  0.1760  0.2906 -0.0434
  168SOPE   H2X18919   3.104   3.195   6.837  0.0369  0.4989 -2.2583
  168SOPE   H2Y18920   2.956   3.083   6.850 -0.3184  0.5008  2.8315
  168SOPE   C2318921   2.429   3.325   7.030  0.3159  0.1207  0.3449
  168SOPE   H3R18922   2.496   3.241   7.059  0.2083 -0.3426 -0.7104
  168SOPE   H3S18923   2.330   3.281   7.005  0.4480  0.0221 -0.0109
  168SOPE   C2418924   2.420   3.425   7.148 -0.3789 -0.4599  0.5057
  168SOPE   H4R18925   2.521   3.470   7.158 -0.8566  0.6445  0.6384
  168SOPE   H4S18926   2.351   3.510   7.127  1.5524  0.8618 -0.7928
  168SOPE   C2518927   2.374   3.363   7.281  0.2582 -0.0182  0.0780
  168SOPE   H5R18928   2.280   3.308   7.259 -0.4434  1.1667  0.0834
  168SOPE   H5S18929   2.431   3.274   7.316 -0.8020 -1.0269 -0.6862
  168SOPE   C2618930   2.357   3.471   7.385  0.2136  0.0563 -0.0520
  168SOPE   H6R18931   2.454   3.516   7.414  0.5789 -0.8522  0.1372
  168SOPE   H6S18932   2.299   3.559   7.349  2.0804  0.2722 -2.7970
  168SOPE   C2718933   2.305   3.420   7.520  0.5358  0.4407  0.1656
  168SOPE   H7R18934   2.284   3.503   7.592 -2.2544 -0.7713  0.8735
  168SOPE   H7S18935   2.212   3.370   7.488  1.4605  1.0335 -4.0709
  168SOPE   C2818936   2.398   3.310   7.581  0.8729  0.5021  0.0140
  168SOPE   H8R18937   2.340   3.238   7.642  2.7304 -1.5552 -0.5474
  168SOPE   H8S18938   2.439   3.244   7.502 -3.2260  1.3201 -3.1256
  168SOPE   C2918939   2.505   3.373   7.662  0.4464  0.2930  0.7231
  168SOPE   H9118940   2.573   3.433   7.601  0.6824 -0.0077  0.6900
  168SOPE  C21018941   2.535   3.353   7.793 -0.5204 -0.9480 -0.1272
  168SOPE  H10118942   2.625   3.402   7.832  0.1689 -0.7419 -1.8798
  168SOPE  C21118943   2.465   3.274   7.902 -0.3141 -0.2192 -0.5168
  168SOPE  H11R18944   2.543   3.209   7.947 -0.3426  0.6571  0.8443
  168SOPE  H11S18945   2.394   3.206   7.851  1.6997 -2.0563 -1.0290
  168SOPE  C21218946   2.393   3.351   8.010 -0.1510 -0.8658  0.0341
  168SOPE  H12R18947   2.355   3.279   8.086 -3.7819  1.3795  0.6040
  168SOPE  H12S18948   2.309   3.409   7.965 -0.4003 -1.5595 -0.4066
  168SOPE  C21318949   2.482   3.460   8.082 -0.5689  0.0858 -0.3667
  168SOPE  H13R18950   2.514   3.541   8.014  1.9532  0.1336  0.7729
  168SOPE  H13S18951   2.578   3.413   8.112 -1.1905 -0.0027  1.6209
  168SOPE  C21418952   2.428   3.514   8.219  0.4374  0.0507 -0.0851
  168SOPE  H14R18953   2.406   3.426   8.283 -0.3865  0.2997 -0.0117
  168SOPE  H14S18954   2.337   3.576   8.209 -0.4609 -1.0561  0.9206
  168SOPE  C21518955   2.523   3.603   8.299 -0.2898 -0.0633  0.1236
  168SOPE  H15R18956   2.613   3.547   8.334  0.1354  1.9370  2.5113
  168SOPE  H15S18957   2.469   3.631   8.392  1.7983 -1.4015  1.8283
  168SOPE  C21618958   2.570   3.734   8.233 -0.1872 -0.2084  0.0730
  168SOPE  H16R18959   2.485   3.781   8.179 -0.3159 -2.7095 -2.1306
  168SOPE  H16S18960   2.646   3.701   8.159 -0.7654  1.2140 -1.2234
  168SOPE  C21718961   2.622   3.832   8.341 -0.5410  0.7746  1.3340
  168SOPE  H17R18962   2.544   3.838   8.420 -2.2183  0.7814 -0.2541
  168SOPE  H17S18963   2.631   3.931   8.292 -0.0203  0.9457  1.7542
  168SOPE  C21818964   2.755   3.785   8.406  0.5695 -0.0289  0.3754
  168SOPE  H18R18965   2.826   3.744   8.330 -0.3762 -1.0610  0.0177
  168SOPE  H18S18966   2.738   3.694   8.467  0.6942 -0.3240 -0.0185
  168SOPE  H18T18967   2.800   3.871   8.460  0.3611 -0.6554  1.5698
  168SOPE   C3318968   2.941   3.261   6.975  0.2858 -0.2019  0.5843
  168SOPE   H3X18969   2.832   3.240   6.988  0.5011 -3.1239 -1.3359
  168SOPE   H3Y18970   2.955   3.371   6.969 -0.3793 -0.1939 -1.4924
  168SOPE   C3418971   3.007   3.215   7.107 -0.3045  0.1161  0.2579
  168SOPE   H4X18972   3.113   3.250   7.111 -0.5492  0.8128  0.7780
  168SOPE   H4Y18973   2.998   3.106   7.125  1.8962  0.0116  1.0392
  168SOPE   C3518974   2.934   3.276   7.228  0.0765  0.5715  0.3403
  168SOPE   H5X18975   2.827   3.251   7.214  0.7556 -1.5045 -1.8036
  168SOPE   H5Y18976   2.937   3.387   7.220  3.0803  0.9415  3.9795
  168SOPE   C3618977   2.986   3.233   7.360 -0.2789 -0.0121  0.0043
  168SOPE   H6X18978   3.096   3.248   7.354 -0.4624  1.0126 -1.1014
  168SOPE   H6Y18979   2.964   3.124   7.360  0.0416 -0.0796  0.3922
  168SOPE   C3718980   2.931   3.301   7.486 -0.2898  0.2929  0.2563
  168SOPE   H7X18981   2.823   3.276   7.488 -0.7233  2.0685  0.5561
  168SOPE   H7Y18982   2.934   3.412   7.472  1.9201  0.7557  3.3477
  168SOPE   C3818983   3.010   3.263   7.606  0.0955 -0.3412  0.2320
  168SOPE   H8X18984   3.117   3.286   7.588 -0.4271  2.2691  0.0083
  168SOPE   H8Y18985   3.004   3.155   7.630  2.6617 -0.6050 -0.0202
  168SOPE   C3918986   2.965   3.338   7.730  0.2906  0.3600  0.0780
  168SOPE   H9X18987   2.855   3.327   7.740  0.3919  1.2666  3.3258
  168SOPE   H9Y18988   2.985   3.447   7.729  2.1752  0.0434 -1.2251
  168SOPE  C31018989   3.019   3.273   7.866 -0.1233  0.4539  0.5959
  168SOPE  H10X18990   3.106   3.335   7.893 -0.9036  1.3988  1.0160
  168SOPE  H10Y18991   3.044   3.168   7.839  0.0336  0.3304  1.1965
  168SOPE  C31118992   2.916   3.289   7.978  0.3180  0.1813  0.0299
  168SOPE  H11X18993   2.849   3.200   7.976  1.2812 -0.5319 -0.9796
  168SOPE  H11Y18994   2.839   3.367   7.957  0.1971  0.6688  2.0377
  168SOPE  C31218995   2.964   3.296   8.119  0.0207  0.0848 -0.4773
  168SOPE  H12X18996   3.045   3.371   8.132  1.8415 -1.6762 -1.0296
  168SOPE  H12Y18997   3.005   3.195   8.143 -1.2906 -0.2129  0.6296
  168SOPE  C31318998   2.848   3.336   8.213  0.2077  0.5640 -0.3887
  168SOPE  H13X18999   2.770   3.262   8.183  1.2550 -1.5583  1.7326
  168SOPE  H13Y19000   2.832   3.443   8.189 -0.4800  0.8887  1.3512
  168SOPE  C31419001   2.872   3.313   8.364  0.0165 -0.6259  0.2184
  168SOPE  H14X19002   2.921   3.213   8.369 -1.7885 -1.5327  0.2719
  168SOPE  H14Y19003   2.778   3.306   8.421  0.3158  0.8391  0.9576
  168SOPE  C31519004   2.964   3.424   8.418 -0.3833 -0.1122 -0.0427
  168SOPE  H15X19005   2.935   3.526   8.384 -0.1107  0.0854  0.3039
  168SOPE  H15Y19006   3.065   3.420   8.373  0.6843  1.0308  2.0932
  168SOPE  C31619007   2.978   3.438   8.575  0.3099 -0.4826 -0.2214
  168SOPE  H16X19008   3.016   3.349   8.630  1.5794  0.3512  0.3211
  168SOPE  H16Y19009   2.875   3.454   8.612  0.3630 -0.8346  0.0767
  168SOPE  C31719010   3.053   3.562   8.630 -0.2462  0.4040  0.6980
  168SOPE  H17X19011   3.003   3.648   8.580  0.9134  0.3143 -0.6773
  168SOPE  H17Y19012   3.159   3.565   8.597 -0.1582  1.9596  1.0356
  168SOPE  C31819013   3.049   3.565   8.784 -0.3976 -0.0806 -0.5404
  168SOPE  H18X19014   3.095   3.468   8.816 -2.0890 -0.2829  1.5277
  168SOPE  H18Y19015   2.944   3.560   8.821  0.5422 -0.2260  2.4267
  168SOPE  H18Z19016   3.089   3.658   8.829 -2.6650  0.8629 -0.3344
  169SOPE     N19017   4.172   5.964   6.138  0.2468  0.1991  0.1623
  169SOPE   HN119018   4.158   5.887   6.207  0.9742 -1.0902 -1.0781
  169SOPE   HN219019   4.085   6.018   6.123  0.2146 -0.4429 -2.3775
  169SOPE   HN319020   4.212   5.926   6.050  0.9874  1.5976 -0.1331
  169SOPE   C1219021   4.274   6.058   6.196 -0.2023  0.6930 -0.1958
  169SOPE  H12A19022   4.263   6.162   6.159  1.0985  0.7729 -0.4059
  169SOPE  H12B19023   4.367   6.010   6.159 -2.1977 -3.3211 -0.5142
  169SOPE   C1119024   4.273   6.072   6.351 -0.1224  0.3373 -0.6513
  169SOPE  H11A19025   4.177   6.112   6.390 -0.1847 -0.2723 -0.1560
  169SOPE  H11B19026   4.349   6.147   6.381 -0.1249  0.5697 -1.2132
  169SOPE     P19027   4.460   5.928   6.480  0.0473 -0.3224  0.4548
  169SOPE   O1319028   4.557   6.004   6.403 -0.3357 -0.4618  0.0038
  169SOPE   O1419029   4.485   5.783   6.492  0.1627 -0.8547  0.1007
  169SOPE   O1219030   4.322   5.948   6.405  0.6209 -0.3022  0.1015
  169SOPE   O1119031   4.433   5.995   6.612  0.0541 -0.5175  0.1838
  169SOPE    C119032   4.324   5.949   6.687 -0.1541  0.0952  0.1157
  169SOPE    HA19033   4.355   5.854   6.735 -1.2466  0.2841  1.2354
  169SOPE    HB19034   4.240   5.917   6.622 -0.8103 -0.4910  1.2386
  169SOPE    C219035   4.269   6.050   6.801 -0.1768 -0.0531  0.1259
  169SOPE    HS19036   4.206   5.991   6.872  1.1790  0.8426  2.1843
  169SOPE   O2119037   4.206   6.175   6.747  0.5983 -0.0424 -0.5059
  169SOPE   C2119038   4.086   6.146   6.706  0.5078 -0.5915  0.7385
  169SOPE   O2219039   4.031   6.036   6.708 -0.9003  0.7935  0.3756
  169SOPE   C2219040   4.013   6.285   6.690  1.1340 -0.3890  0.2455
  169SOPE   H2R19041   4.000   6.287   6.579  0.3847 -0.0068  0.3321
  169SOPE   H2S19042   4.079   6.369   6.720  0.5097 -0.1411  0.9604
  169SOPE    C319043   4.377   6.103   6.893  0.5025 -1.0891 -0.5927
  169SOPE    HX19044   4.429   6.179   6.832  0.8272 -1.9514 -1.4175
  169SOPE    HY19045   4.452   6.024   6.917  0.6651 -0.9519 -0.6502
  169SOPE   O3119046   4.328   6.156   7.010  0.2000 -0.1206 -0.4666
  169SOPE   C3119047   4.299   6.286   7.009 -0.1002 -0.2694  0.0401
  169SOPE   O3219048   4.349   6.375   6.942 -0.3401  0.9142  0.4123
  169SOPE   C3219049   4.197   6.317   7.122  0.2475 -0.3492 -0.3574
  169SOPE   H2X19050   4.118   6.240   7.106  1.8162 -1.6813 -2.3270
  169SOPE   H2Y19051   4.155   6.415   7.093 -0.2517 -0.3461  0.3610
  169SOPE   C2319052   3.884   6.287   6.769 -0.2641  0.4079 -0.6204
  169SOPE   H3R19053   3.808   6.211   6.744 -0.2516 -0.8540  2.7197
  169SOPE   H3S19054   3.839   6.384   6.737  0.6909  1.2776  0.5359
  169SOPE   C2419055   3.910   6.276   6.921 -0.0112 -0.0569  0.8619
  169SOPE   H4R19056   3.957   6.176   6.931  1.6378  0.4490 -1.1510
  169SOPE   H4S19057   3.978   6.358   6.952  0.5703  0.1162 -0.7671
  169SOPE   C2519058   3.777   6.294   6.994 -0.9225 -0.5945 -0.6274
  169SOPE   H5R19059   3.750   6.401   7.003 -1.3851 -0.6567 -1.2715
  169SOPE   H5S19060   3.696   6.237   6.945  0.2286 -3.2190  0.2974
  169SOPE   C2619061   3.791   6.223   7.127  0.2522 -0.4661 -0.6643
  169SOPE   H6R19062   3.795   6.112   7.130  2.1815 -0.4200 -0.4962
  169SOPE   H6S19063   3.886   6.254   7.175 -1.3894  1.8591  1.3089
  169SOPE   C2719064   3.681   6.267   7.218  0.1342 -0.4714  0.3098
  169SOPE   H7R19065   3.658   6.374   7.198  0.5152 -0.1443  1.5261
  169SOPE   H7S19066   3.594   6.202   7.196  1.0779 -2.0824  1.1506
  169SOPE   C2819067   3.708   6.241   7.368  0.0445  0.1516 -0.5267
  169SOPE   H8R19068   3.703   6.133   7.391  2.6489  0.0768 -0.0014
  169SOPE   H8S19069   3.816   6.251   7.390  0.0154 -1.7801  0.7052
  169SOPE   C2919070   3.634   6.325   7.471 -0.2427 -0.0619 -0.1654
  169SOPE   H9119071   3.611   6.427   7.437 -0.9625 -0.7406 -1.8639
  169SOPE  C21019072   3.587   6.280   7.591 -0.1576  0.0646  0.4441
  169SOPE  H10119073   3.520   6.348   7.645  1.9468  0.2459  3.0098
  169SOPE  C21119074   3.596   6.137   7.648 -0.0355  0.1029  0.3975
  169SOPE  H11R19075   3.548   6.072   7.572 -1.7260  3.6152 -1.7891
  169SOPE  H11S19076   3.535   6.130   7.740  0.4717 -0.7060  0.6896
  169SOPE  C21219077   3.729   6.079   7.690  0.6212  0.0550 -0.4739
  169SOPE  H12R19078   3.761   6.148   7.771 -1.0123 -0.9283  1.0543
  169SOPE  H12S19079   3.813   6.088   7.618  1.0780 -0.1968  0.0197
  169SOPE  C21319080   3.716   5.939   7.749 -0.1020 -0.0643 -0.4821
  169SOPE  H13R19081   3.673   5.869   7.675  0.8180 -1.3329  0.1498
  169SOPE  H13S19082   3.635   5.961   7.821 -1.4222  2.4206 -2.5677
  169SOPE  C21419083   3.849   5.888   7.807  0.0735 -0.0470 -0.4117
  169SOPE  H14R19084   3.928   5.898   7.730  1.0270 -0.0894  0.5414
  169SOPE  H14S19085   3.861   5.781   7.835 -2.1454 -0.2325 -0.0262
  169SOPE  C21519086   3.913   5.977   7.917 -0.3369  0.3844 -1.3329
  169SOPE  H15R19087   3.849   6.006   8.003 -0.1317 -2.0740 -0.2850
  169SOPE  H15S19088   3.953   6.075   7.884  0.2888  0.4729 -0.3329
  169SOPE  C21619089   4.022   5.890   7.997 -0.5347  0.6351 -0.2188
  169SOPE  H16R19090   4.097   5.881   7.916 -1.7886 -0.0364 -1.3460
  169SOPE  H16S19091   3.984   5.788   8.018 -0.5023  0.6245 -0.2116
  169SOPE  C21719092   4.072   5.954   8.123  0.6664  0.2732  0.0923
  169SOPE  H17R19093   4.136   6.039   8.093  2.4645  0.2330  3.4138
  169SOPE  H17S19094   4.144   5.884   8.170 -0.6289 -0.1909  1.4986
  169SOPE  C21819095   3.965   5.995   8.225  0.2071 -0.0625 -0.5623
  169SOPE  H18R19096   3.996   5.995   8.332  1.8724  0.2981 -1.0068
  169SOPE  H18S19097   3.877   5.928   8.213 -0.5858  0.7704  0.3887
  169SOPE  H18T19098   3.927   6.096   8.202 -1.4403 -0.0220  1.9212
  169SOPE   C3319099   4.251   6.320   7.270 -0.8284  0.7079 -0.3406
  169SOPE   H3X19100   4.333   6.394   7.260  0.9906 -1.4536 -2.7372
  169SOPE   H3Y19101   4.297   6.224   7.300  1.4437  1.9256  0.2656
  169SOPE   C3419102   4.142   6.362   7.366 -0.4819  0.4589  0.4697
  169SOPE   H4X19103   4.043   6.312   7.352  0.2268 -1.0202  0.5240
  169SOPE   H4Y19104   4.112   6.468   7.354 -0.2342  0.7375  2.1441
  169SOPE   C3519105   4.194   6.342   7.508  0.7335 -0.2211  0.1036
  169SOPE   H5X19106   4.279   6.408   7.533 -0.4103  1.7231 -0.8570
  169SOPE   H5Y19107   4.230   6.237   7.512  1.4337  0.0447  0.8868
  169SOPE   C3619108   4.090   6.373   7.623  0.3814  0.2559 -0.4343
  169SOPE   H6X19109   3.984   6.376   7.591  0.3109  1.5598 -0.1328
  169SOPE   H6Y19110   4.103   6.477   7.658  1.0295  0.6889 -1.8540
  169SOPE   C3719111   4.091   6.274   7.745 -0.1218 -0.5468  0.4188
  169SOPE   H7X19112   4.189   6.223   7.749  0.1358 -0.1924 -0.8528
  169SOPE   H7Y19113   4.014   6.195   7.728 -1.0099  0.2546  0.6038
  169SOPE   C3819114   4.083   6.351   7.874 -0.5755 -0.3226  0.3699
  169SOPE   H8X19115   4.111   6.287   7.960  0.0185 -0.1244  0.3288
  169SOPE   H8Y19116   4.159   6.432   7.864 -0.2567 -0.8697 -2.3802
  169SOPE   C3919117   3.953   6.420   7.902  0.4515 -0.0338  0.3095
  169SOPE   H9X19118   3.911   6.450   7.804 -0.2337  1.0263  0.9095
  169SOPE   H9Y19119   3.967   6.516   7.956 -0.1698  1.3689 -1.8877
  169SOPE  C31019120   3.850   6.340   7.984  0.4004  0.0156  0.2254
  169SOPE  H10X19121   3.894   6.332   8.085  1.5937  0.8092 -0.2083
  169SOPE  H10Y19122   3.832   6.238   7.943  0.1662 -0.4691  1.4939
  169SOPE  C31119123   3.710   6.413   7.981  0.8102 -0.0017 -0.0109
  169SOPE  H11X19124   3.667   6.412   7.878 -1.9496 -2.7753  1.0030
  169SOPE  H11Y19125   3.732   6.515   8.019  1.6805  0.2420 -1.1105
  169SOPE  C31219126   3.593   6.348   8.063 -0.1022  0.7757 -0.6401
  169SOPE  H12X19127   3.519   6.424   8.096 -0.2352  0.4044 -0.0737
  169SOPE  H12Y19128   3.639   6.307   8.156  0.6424  0.7594 -1.0031
  169SOPE  C31319129   3.523   6.237   7.987  0.0612 -0.0783  0.2583
  169SOPE  H13X19130   3.604   6.180   7.936  1.1052  2.7874 -1.5375
  169SOPE  H13Y19131   3.472   6.301   7.913  0.3445  0.9483  0.9244
  169SOPE  C31419132   3.425   6.156   8.067 -0.0340 -0.7509  0.2132
  169SOPE  H14X19133   3.358   6.098   8.000  1.6079 -1.2000 -1.1061
  169SOPE  H14Y19134   3.358   6.225   8.124 -0.9680 -2.6938  1.5860
  169SOPE  C31519135   3.492   6.058   8.161 -0.0756  0.6096  0.1038
  169SOPE  H15X19136   3.580   6.103   8.212  1.1719 -1.5239 -0.0815
  169SOPE  H15Y19137   3.532   5.990   8.083  2.4826  1.2961  0.7359
  169SOPE  C31619138   3.393   6.012   8.266 -0.0865  0.0841 -0.3800
  169SOPE  H16X19139   3.305   5.959   8.224 -0.1301  0.0133 -0.1987
  169SOPE  H16Y19140   3.352   6.100   8.321 -2.2083 -1.2406  0.3009
  169SOPE  C31719141   3.452   5.910   8.357 -0.0451  0.1104 -0.4161
  169SOPE  H17X19142   3.375   5.870   8.427  0.5826 -1.0958 -0.3859
  169SOPE  H17Y19143   3.526   5.958   8.425  1.1583 -1.9766 -0.1938
  169SOPE  C31819144   3.532   5.789   8.303  0.7378  0.1821  0.1368
  169SOPE  H18X19145   3.612   5.825   8.235  0.8044  0.5704  0.4125
  169SOPE  H18Y19146   3.465   5.715   8.254  3.1424 -0.9807 -1.5891
  169SOPE  H18Z19147   3.578   5.733   8.387  1.2152  0.0167 -0.2327
  170SOPE     N19148   5.310   3.321   6.414  0.0362  0.0424  0.4341
  170SOPE   HN119149   5.292   3.405   6.356 -0.5098 -0.1382  0.3346
  170SOPE   HN219150   5.408   3.322   6.448  0.1421  3.5102  0.4096
  170SOPE   HN319151   5.300   3.232   6.361  1.3680 -0.6325  1.2691
  170SOPE   C1219152   5.201   3.323   6.522 -0.1843 -0.3221  0.2705
  170SOPE  H12A19153   5.208   3.423   6.571 -1.8338 -0.3965  0.7118
  170SOPE  H12B19154   5.230   3.244   6.595 -0.1064  1.1795  1.9430
  170SOPE   C1119155   5.065   3.284   6.461 -0.2189  0.0634 -0.1264
  170SOPE  H11A19156   5.047   3.350   6.374  2.2400  0.1162 -0.6554
  170SOPE  H11B19157   4.996   3.311   6.544 -1.4315 -1.5108 -0.5649
  170SOPE     P19158   4.927   3.090   6.350  0.0314 -0.2503 -0.5124
  170SOPE   O1319159   4.962   2.954   6.300  0.0950 -0.0309  0.2995
  170SOPE   O1419160   4.883   3.192   6.251 -0.1026 -0.2291  0.1517
  170SOPE   O1219161   5.059   3.143   6.432  0.1091 -0.4906  0.3157
  170SOPE   O1119162   4.805   3.079   6.452  0.2281 -0.0345 -0.2159
  170SOPE    C119163   4.792   2.979   6.558 -0.2121 -0.4529  0.5505
  170SOPE    HA19164   4.858   2.890   6.548  2.0798  1.0220  1.7173
  170SOPE    HB19165   4.690   2.935   6.559  1.4332 -4.7033  0.5635
  170SOPE    C219166   4.819   3.049   6.697  0.4983 -0.9873  0.3562
  170SOPE    HS19167   4.855   3.150   6.669  1.4261 -1.5595 -0.6491
  170SOPE   O2119168   4.915   2.976   6.770  0.4457 -0.0488  0.4617
  170SOPE   C2119169   5.011   3.050   6.829 -0.2081  0.6621  0.3580
  170SOPE   O2219170   5.042   3.166   6.803  0.4924  0.1268  0.1278
  170SOPE   C2219171   5.073   2.971   6.945  0.6079 -0.1016  0.5472
  170SOPE   H2R19172   5.102   2.870   6.911  1.0358 -0.1127  0.9342
  170SOPE   H2S19173   4.992   2.947   7.018 -0.7427  2.8405  0.1682
  170SOPE    C319174   4.704   3.078   6.794  0.3338  0.4325  0.2693
  170SOPE    HX19175   4.656   2.978   6.810 -2.1744  1.5467  0.1933
  170SOPE    HY19176   4.629   3.138   6.738 -0.6723 -2.8232 -2.1825
  170SOPE   O3119177   4.754   3.136   6.913 -0.2040 -0.5606  0.3519
  170SOPE   C3119178   4.761   3.268   6.920 -0.7485 -0.1277 -0.0741
  170SOPE   O3219179   4.738   3.348   6.827 -0.0838  0.1514 -0.7190
  170SOPE   C3219180   4.788   3.301   7.063 -0.7228 -0.0254  0.4235
  170SOPE   H2X19181   4.692   3.300   7.119 -1.1236  0.4422 -0.2455
  170SOPE   H2Y19182   4.821   3.407   7.060 -3.1460  0.7804 -0.0750
  170SOPE   C2319183   5.185   3.045   7.018  0.2526  0.2131 -0.0969
  170SOPE   H3R19184   5.168   3.155   7.018  0.4030  0.2428 -0.6866
  170SOPE   H3S19185   5.276   3.038   6.954  0.7877  2.2978  0.3386
  170SOPE   C2419186   5.203   2.987   7.161 -0.5613  0.2183  0.2450
  170SOPE   H4R19187   5.110   3.007   7.219 -0.1633  1.7666  0.3976
  170SOPE   H4S19188   5.239   2.882   7.158 -1.0292  0.0691 -0.4743
  170SOPE   C2519189   5.314   3.064   7.239  0.1914 -0.0360 -0.0226
  170SOPE   H5R19190   5.412   3.056   7.187 -1.5213 -0.4794 -3.4570
  170SOPE   H5S19191   5.275   3.167   7.222  0.3366  0.3960  2.0661
  170SOPE   C2619192   5.321   3.016   7.384  0.2129  0.2651 -0.1473
  170SOPE   H6R19193   5.374   3.101   7.433  0.0902  0.2785 -0.0358
  170SOPE   H6S19194   5.223   3.016   7.437  0.1795  1.7438 -0.1514
  170SOPE   C2719195   5.391   2.889   7.415  0.3966 -0.4207  0.5546
  170SOPE   H7R19196   5.324   2.807   7.380 -0.0308  0.4027 -0.6433
  170SOPE   H7S19197   5.478   2.898   7.346 -0.1440  0.0244 -0.0854
  170SOPE   C2819198   5.429   2.882   7.560 -0.0004 -0.0155 -0.3114
  170SOPE   H8R19199   5.466   2.977   7.603 -0.6197  0.1976 -0.2328
  170SOPE   H8S19200   5.340   2.870   7.626 -0.4174 -0.6330 -0.9741
  170SOPE   C2919201   5.512   2.767   7.572  0.3993  0.7658 -0.5436
  170SOPE   H9119202   5.464   2.670   7.554  0.2070  0.7257  0.1647
  170SOPE  C21019203   5.640   2.758   7.610  0.4714  0.3089  0.3009
  170SOPE  H10119204   5.688   2.659   7.618 -0.3245 -0.2173 -1.0718
  170SOPE  C21119205   5.736   2.864   7.650  0.4745  0.5387 -0.1522
  170SOPE  H11R19206   5.721   2.965   7.606  1.6593  0.2143 -1.3516
  170SOPE  H11S19207   5.833   2.826   7.613 -0.0839 -1.8252  0.6370
  170SOPE  C21219208   5.736   2.863   7.806 -0.5887  0.4041 -0.1323
  170SOPE  H12R19209   5.826   2.922   7.835  0.1021 -0.1559 -1.0764
  170SOPE  H12S19210   5.772   2.765   7.843  0.1464  0.6578 -0.1486
  170SOPE  C21319211   5.611   2.905   7.882  0.4375  0.0219 -0.7958
  170SOPE  H13R19212   5.530   2.831   7.865 -0.6007  1.0997 -0.7294
  170SOPE  H13S19213   5.569   2.999   7.838 -0.5240 -0.4385 -0.9026
  170SOPE  C21419214   5.633   2.942   8.031 -0.1269 -0.0985 -0.1977
  170SOPE  H14R19215   5.681   3.042   8.041  0.6707 -0.3722 -1.1287
  170SOPE  H14S19216   5.698   2.870   8.085 -1.7846  0.4859  2.7981
  170SOPE  C21519217   5.497   2.959   8.094 -0.3872  0.9076 -0.2753
  170SOPE  H15R19218   5.454   2.857   8.086  1.3592  0.2502 -2.3811
  170SOPE  H15S19219   5.434   3.016   8.022 -2.9791 -3.0210 -1.4362
  170SOPE  C21619220   5.501   3.015   8.235  0.1463 -0.1794  0.4041
  170SOPE  H16R19221   5.528   3.123   8.226  0.2100 -0.2824 -0.9257
  170SOPE  H16S19222   5.586   2.961   8.283  0.7179  0.6243  0.3196
  170SOPE  C21719223   5.376   3.005   8.325  1.1495  1.0402 -0.5007
  170SOPE  H17R19224   5.366   2.900   8.361  2.0712  1.0199 -0.2730
  170SOPE  H17S19225   5.290   3.036   8.263  0.9475  0.7515 -0.3692
  170SOPE  C21819226   5.385   3.086   8.455 -0.1686  0.9104 -0.4284
  170SOPE  H18R19227   5.420   3.188   8.425  1.4188  0.2301 -0.9799
  170SOPE  H18S19228   5.452   3.041   8.531 -0.5188 -0.2963 -0.8210
  170SOPE  H18T19229   5.285   3.101   8.501 -0.9778 -2.0405 -1.0449
  170SOPE   C3319230   4.898   3.217   7.142  0.0556  0.2795 -0.2228
  170SOPE   H3X19231   4.992   3.262   7.102 -1.4620  1.7739 -2.2882
  170SOPE   H3Y19232   4.893   3.109   7.121  2.1139  0.0261  0.3006
  170SOPE   C3419233   4.879   3.250   7.289 -0.5352 -0.4127  0.1498
  170SOPE   H4X19234   4.890   3.358   7.315  2.4641 -0.9669  1.6367
  170SOPE   H4Y19235   4.969   3.208   7.338  0.7749  3.1300  1.1249
  170SOPE   C3519236   4.753   3.188   7.345 -0.3416  0.3301  0.4269
  170SOPE   H5X19237   4.737   3.088   7.300 -1.7767  0.0621  1.4579
  170SOPE   H5Y19238   4.659   3.246   7.328 -0.9826 -1.0132 -0.8304
  170SOPE   C3619239   4.760   3.160   7.504 -0.7288 -0.6133  0.8880
  170SOPE   H6X19240   4.862   3.116   7.514 -0.9450 -1.3726 -0.1025
  170SOPE   H6Y19241   4.692   3.078   7.536 -0.7722  0.1693  2.9816
  170SOPE   C3719242   4.759   3.295   7.578  0.7023 -0.6515 -0.1692
  170SOPE   H7X19243   4.674   3.363   7.554  0.3839 -1.2269 -0.6915
  170SOPE   H7Y19244   4.850   3.351   7.548 -1.3571  2.4294 -1.2985
  170SOPE   C3819245   4.768   3.263   7.733  0.3592  0.7240  0.0811
  170SOPE   H8X19246   4.856   3.200   7.757 -0.0640 -0.2318 -0.7811
  170SOPE   H8Y19247   4.676   3.204   7.752 -0.5364  2.1657  0.2844
  170SOPE   C3919248   4.754   3.386   7.826 -0.5867 -0.0081  1.4067
  170SOPE   H9X19249   4.677   3.460   7.796  0.8946  1.6498  1.4702
  170SOPE   H9Y19250   4.855   3.432   7.818 -0.6776 -0.1419 -2.3622
  170SOPE  C31019251   4.716   3.351   7.966  0.4921 -0.2925 -0.1821
  170SOPE  H10X19252   4.787   3.285   8.021  0.0249 -0.8010 -0.1856
  170SOPE  H10Y19253   4.632   3.280   7.951  0.6395 -0.5112  0.0109
  170SOPE  C31119254   4.658   3.466   8.041  0.1264 -0.7126  0.0292
  170SOPE  H11X19255   4.580   3.520   7.984  0.1619 -0.1942  0.4615
  170SOPE  H11Y19256   4.738   3.540   8.060 -2.5934  2.2145  0.8843
  170SOPE  C31219257   4.600   3.406   8.171  0.0730  0.3665 -0.0434
  170SOPE  H12X19258   4.674   3.337   8.217 -0.0891 -0.0561 -0.4080
  170SOPE  H12Y19259   4.502   3.358   8.148  1.1815 -0.7405 -2.9644
  170SOPE  C31319260   4.555   3.510   8.273 -0.1406  0.0959 -0.0347
  170SOPE  H13X19261   4.497   3.460   8.353 -0.4022  0.5859  0.0856
  170SOPE  H13Y19262   4.483   3.575   8.219 -0.7826  0.3505  1.1134
  170SOPE  C31419263   4.665   3.594   8.342 -0.5100  0.0116  0.4981
  170SOPE  H14X19264   4.734   3.638   8.267 -0.2731  1.6184  1.6190
  170SOPE  H14Y19265   4.726   3.520   8.398  1.3238  1.3594  0.3634
  170SOPE  C31519266   4.624   3.708   8.429  0.4895 -0.7828 -0.1924
  170SOPE  H15X19267   4.579   3.791   8.372 -0.0645 -1.0672 -0.1803
  170SOPE  H15Y19268   4.715   3.746   8.480 -0.6745  2.0112 -0.0377
  170SOPE  C31619269   4.534   3.659   8.545 -0.4478  0.4855  0.8536
  170SOPE  H16X19270   4.604   3.597   8.606  0.7110  0.0138 -0.9017
  170SOPE  H16Y19271   4.438   3.609   8.521 -0.5188  0.8652  0.3275
  170SOPE  C31719272   4.497   3.782   8.639 -0.9445  0.6292  0.0884
  170SOPE  H17X19273   4.433   3.737   8.718  0.1675  0.1907  0.7674
  170SOPE  H17Y19274   4.451   3.865   8.582  1.6631  3.3601  1.6635
  170SOPE  C31819275   4.623   3.835   8.708  1.1390 -0.7613 -0.0839
  170SOPE  H18X19276   4.662   3.770   8.790  0.2697 -0.1014  0.8807
  170SOPE  H18Y19277   4.593   3.927   8.763  1.4307 -0.6799 -0.0622
  170SOPE  H18Z19278   4.691   3.859   8.624 -2.0595 -1.8885 -3.2535
  171SOPE     N19279   4.715   1.110   6.089 -0.1796 -0.0120  0.3636
  171SOPE   HN119280   4.721   1.145   5.991  0.7674 -0.2865  0.3141
  171SOPE   HN219281   4.684   1.184   6.155  1.6683  1.0252  0.1329
  171SOPE   HN319282   4.811   1.074   6.109 -0.5395 -1.3397 -0.1828
  171SOPE   C1219283   4.619   0.990   6.091  0.1189  0.4669  0.1307
  171SOPE  H12A19284   4.637   0.937   5.995  1.9112  2.3751 -0.6653
  171SOPE  H12B19285   4.517   1.035   6.095  0.1315  0.4934  0.1535
  171SOPE   C1119286   4.633   0.902   6.217 -0.4215  0.5300 -0.2887
  171SOPE  H11A19287   4.562   0.821   6.243 -0.1653  0.6170  0.7083
  171SOPE  H11B19288   4.616   0.972   6.301  1.3566 -1.8188  2.1947
  171SOPE     P19289   4.814   0.760   6.350 -0.4463  0.4621  0.4481
  171SOPE   O1319290   4.959   0.792   6.381 -0.3985  0.2350 -0.0569
  171SOPE   O1419291   4.782   0.626   6.304  0.0927 -0.1662  0.6076
  171SOPE   O1219292   4.775   0.851   6.224 -0.6874  0.4190 -0.2851
  171SOPE   O1119293   4.723   0.813   6.457 -0.1428 -0.1350 -0.4860
  171SOPE    C119294   4.763   0.912   6.549 -0.5821 -0.2217 -0.2253
  171SOPE    HA19295   4.759   1.012   6.500 -1.1023  0.0840  0.4159
  171SOPE    HB19296   4.869   0.898   6.582 -0.9650 -0.0306  1.1697
  171SOPE    C219297   4.679   0.912   6.683 -0.2304 -0.7433 -0.2257
  171SOPE    HS19298   4.571   0.910   6.656 -0.7092  0.1703  1.4775
  171SOPE   O2119299   4.717   1.032   6.759  0.1206 -0.7911  0.4142
  171SOPE   C2119300   4.616   1.107   6.790  0.1396  0.1674 -0.2862
  171SOPE   O2219301   4.506   1.103   6.734 -0.0626  0.0613 -0.2567
  171SOPE   C2219302   4.663   1.224   6.880 -0.2356  0.5908 -0.4809
  171SOPE   H2R19303   4.713   1.295   6.811 -0.5119  1.0229 -0.2376
  171SOPE   H2S19304   4.729   1.175   6.954 -3.8772 -2.4880  1.0716
  171SOPE    C319305   4.718   0.785   6.764  0.1457  0.2104  0.4451
  171SOPE    HX19306   4.828   0.779   6.777  0.0938 -1.0120  0.5104
  171SOPE    HY19307   4.676   0.693   6.717 -1.0432  0.5306  0.8293
  171SOPE   O3119308   4.651   0.804   6.892 -0.5311 -0.3909  0.0255
  171SOPE   C3119309   4.517   0.815   6.901  0.0728  0.6515  0.5569
  171SOPE   O3219310   4.442   0.793   6.812  0.1216 -0.7150 -0.2985
  171SOPE   C3219311   4.484   0.837   7.040 -0.3514 -0.5203 -0.3853
  171SOPE   H2X19312   4.572   0.874   7.097  0.3234 -1.2648 -0.9170
  171SOPE   H2Y19313   4.478   0.733   7.080  1.2285  0.0355  1.4627
  171SOPE   C2319314   4.534   1.269   6.951 -0.2870 -0.1116  0.1724
  171SOPE   H3R19315   4.470   1.188   6.992 -1.6898  0.0195 -1.6693
  171SOPE   H3S19316   4.473   1.323   6.876  1.5694  1.2743 -0.4098
  171SOPE   C2419317   4.569   1.359   7.070 -0.1713 -0.3483  0.2160
  171SOPE   H4R19318   4.629   1.445   7.034 -1.3857 -0.4394 -2.3039
  171SOPE   H4S19319   4.466   1.391   7.099 -1.6408 -2.1342 -2.4866
  171SOPE   C2519320   4.643   1.302   7.189  0.5537 -0.0959 -0.0457
  171SOPE   H5R19321   4.739   1.260   7.151  0.9135  0.0656  0.6727
  171SOPE   H5S19322   4.676   1.383   7.257  0.7772 -0.4367  0.2569
  171SOPE   C2619323   4.573   1.185   7.273  0.1316 -0.1688  0.0018
  171SOPE   H6R19324   4.481   1.235   7.310  0.3243  0.6858 -0.6434
  171SOPE   H6S19325   4.542   1.107   7.201 -1.2995  0.0771  0.3159
  171SOPE   C2719326   4.650   1.137   7.398  0.3743 -0.0020 -0.0405
  171SOPE   H7R19327   4.595   1.049   7.437 -0.1578  0.5154  0.3907
  171SOPE   H7S19328   4.749   1.104   7.361  0.2875 -0.2028 -0.0927
  171SOPE   C2819329   4.665   1.237   7.510 -0.2954  0.1030 -0.3724
  171SOPE   H8R19330   4.741   1.185   7.573  1.0887  1.2910 -1.0017
  171SOPE   H8S19331   4.710   1.330   7.470  0.4649  0.5751  1.4856
  171SOPE   C2919332   4.540   1.277   7.586 -0.1542 -0.1874  0.8709
  171SOPE   H9119333   4.462   1.332   7.532  0.4433  1.3043  1.4655
  171SOPE  C21019334   4.525   1.258   7.720 -0.0918 -0.5099 -0.4870
  171SOPE  H10119335   4.433   1.295   7.770 -0.4716 -2.1896  0.1274
  171SOPE  C21119336   4.615   1.188   7.822 -0.0868 -0.2364  0.5960
  171SOPE  H11R19337   4.676   1.114   7.766 -0.9932 -1.8466  1.6734
  171SOPE  H11S19338   4.566   1.132   7.904 -0.5420 -3.1193 -1.4977
  171SOPE  C21219339   4.699   1.287   7.901  0.1652 -0.0663  0.3224
  171SOPE  H12R19340   4.773   1.337   7.834 -0.4962 -0.6510 -0.8725
  171SOPE  H12S19341   4.766   1.237   7.975 -0.3146  2.4073  2.5576
  171SOPE  C21319342   4.616   1.388   7.984 -0.5452 -0.4831 -0.6667
  171SOPE  H13R19343   4.548   1.329   8.049  0.3470 -0.9215 -0.0939
  171SOPE  H13S19344   4.555   1.458   7.923 -1.4600  0.7522  1.5654
  171SOPE  C21419345   4.717   1.464   8.077  0.5490 -0.2567 -0.2851
  171SOPE  H14R19346   4.807   1.495   8.021  2.4980 -2.3406  1.4806
  171SOPE  H14S19347   4.756   1.385   8.146  2.0514  0.1202 -0.6910
  171SOPE  C21519348   4.655   1.586   8.148  0.4973 -0.1275  0.5522
  171SOPE  H15R19349   4.570   1.549   8.210 -0.6037  0.8266 -0.3689
  171SOPE  H15S19350   4.614   1.649   8.067  1.5819 -0.8216 -0.5604
  171SOPE  C21619351   4.746   1.655   8.249  0.6005 -0.1602 -0.2376
  171SOPE  H16R19352   4.839   1.683   8.195  1.0697 -2.4756 -0.7597
  171SOPE  H16S19353   4.770   1.585   8.332 -0.0362  0.6133  0.6175
  171SOPE  C21719354   4.691   1.792   8.295  0.6031 -0.0014  0.1991
  171SOPE  H17R19355   4.762   1.829   8.373  1.7313  0.7101 -1.1228
  171SOPE  H17S19356   4.590   1.779   8.340  0.9648 -0.5452  0.8796
  171SOPE  C21819357   4.668   1.898   8.186 -0.0789 -0.3680 -0.0782
  171SOPE  H18R19358   4.600   1.848   8.114 -0.6189  1.8517 -1.2028
  171SOPE  H18S19359   4.766   1.919   8.139  1.6707 -0.7612  3.1175
  171SOPE  H18T19360   4.629   1.993   8.230  0.5965  0.3709 -1.0080
  171SOPE   C3319361   4.356   0.919   7.065 -0.6271  0.5478 -0.4851
  171SOPE   H3X19362   4.303   0.943   6.970  0.6861  1.5989 -0.9924
  171SOPE   H3Y19363   4.379   1.025   7.090 -0.7696  1.0955 -2.5055
  171SOPE   C3419364   4.273   0.873   7.189 -0.6509 -0.1712 -0.1761
  171SOPE   H4X19365   4.252   0.764   7.183  0.6987 -0.4380 -0.3441
  171SOPE   H4Y19366   4.179   0.931   7.197 -1.1791 -0.7968 -1.4904
  171SOPE   C3519367   4.356   0.900   7.318 -0.0425  1.1781 -0.0325
  171SOPE   H5X19368   4.376   1.009   7.327 -0.5950  1.2519  0.3343
  171SOPE   H5Y19369   4.446   0.836   7.328 -2.2634 -2.1217  0.4768
  171SOPE   C3619370   4.280   0.859   7.445  0.1308  0.1195  0.5988
  171SOPE   H6X19371   4.264   0.749   7.440  3.9186 -0.5270  0.1082
  171SOPE   H6Y19372   4.191   0.923   7.462  0.6723  0.5756  1.8654
  171SOPE   C3719373   4.367   0.892   7.568 -0.0545  0.4479 -0.2335
  171SOPE   H7X19374   4.403   0.997   7.563 -1.2565  0.8111 -2.4272
  171SOPE   H7Y19375   4.460   0.830   7.570 -1.9046 -2.5048  1.2300
  171SOPE   C3819376   4.294   0.876   7.698  0.3010 -0.0318 -0.1899
  171SOPE   H8X19377   4.212   0.949   7.718 -0.1915 -0.6225  0.0130
  171SOPE   H8Y19378   4.378   0.892   7.769  2.9343  1.3759 -3.3996
  171SOPE   C3919379   4.235   0.733   7.726  0.2420 -1.0193  0.4585
  171SOPE   H9X19380   4.327   0.672   7.711 -0.2971 -1.9913  1.0324
  171SOPE   H9Y19381   4.156   0.709   7.652 -1.5432  2.2568  1.1332
  171SOPE  C31019382   4.179   0.736   7.870  0.1041 -0.1068  0.5262
  171SOPE  H10X19383   4.260   0.773   7.936 -1.1366  1.9362  0.9753
  171SOPE  H10Y19384   4.172   0.626   7.885  0.9541 -0.5411 -1.8209
  171SOPE  C31119385   4.055   0.819   7.898  0.0237  0.0350  0.0487
  171SOPE  H11X19386   3.979   0.784   7.825  0.4433  1.6229 -1.1981
  171SOPE  H11Y19387   4.073   0.928   7.884 -0.9249  0.1894 -0.0563
  171SOPE  C31219388   4.006   0.807   8.041  0.3681  0.3413 -0.3527
  171SOPE  H12X19389   4.074   0.867   8.106 -0.2523  0.7501 -0.0789
  171SOPE  H12Y19390   3.998   0.700   8.072  1.5129 -0.6716 -3.2121
  171SOPE  C31319391   3.863   0.859   8.055 -0.3140  0.0768  0.5748
  171SOPE  H13X19392   3.796   0.786   8.004 -2.7162  0.6177  2.7260
  171SOPE  H13Y19393   3.850   0.955   8.000 -1.0028  0.4379  1.3326
  171SOPE  C31419394   3.825   0.868   8.203 -1.0999  0.4589  0.1071
  171SOPE  H14X19395   3.913   0.903   8.261  0.8379 -1.8708 -1.2573
  171SOPE  H14Y19396   3.793   0.768   8.237 -1.1054  0.4216 -0.0070
  171SOPE  C31519397   3.709   0.954   8.233  1.1495 -0.1210  0.5744
  171SOPE  H15X19398   3.625   0.913   8.173 -0.3172  1.1591  1.7159
  171SOPE  H15Y19399   3.717   1.057   8.193  1.2997  0.7548  2.7189
  171SOPE  C31619400   3.668   0.951   8.379 -0.1861 -0.2101  0.6625
  171SOPE  H16X19401   3.750   1.008   8.427 -1.6489  1.9080  0.7851
  171SOPE  H16Y19402   3.678   0.847   8.415  2.2259  0.9741  3.8500
  171SOPE  C31719403   3.535   1.012   8.405 -0.1648 -0.4960 -0.8922
  171SOPE  H17X19404   3.489   0.969   8.496  1.3733 -0.1875  0.0676
  171SOPE  H17Y19405   3.461   0.992   8.324 -0.2926  1.0662 -1.1925
  171SOPE  C31819406   3.541   1.166   8.409 -0.0913 -0.0889  0.4592
  171SOPE  H18X19407   3.470   1.205   8.485  1.5683  0.5742  1.7317
  171SOPE  H18Y19408   3.525   1.202   8.305  2.3352 -1.2579 -0.3967
  171SOPE  H18Z19409   3.637   1.199   8.452 -0.4334  2.6339 -0.6704
  172SOPE     N19410   5.411   0.998   6.160 -0.4627 -0.2335  0.5854
  172SOPE   HN119411   5.410   1.087   6.213 -0.4984 -0.5977  1.2010
  172SOPE   HN219412   5.498   1.005   6.102 -0.3350  1.7568  0.9659
  172SOPE   HN319413   5.326   0.979   6.103  1.0251  1.0139 -2.2543
  172SOPE   C1219414   5.414   0.896   6.270 -0.8242 -0.4267 -0.2933
  172SOPE  H12A19415   5.514   0.896   6.319 -1.1778 -0.3969  0.4464
  172SOPE  H12B19416   5.390   0.796   6.229  1.3176 -0.5537 -1.3828
  172SOPE   C1119417   5.317   0.939   6.380  0.4281 -0.2916 -0.3753
  172SOPE  H11A19418   5.330   0.893   6.480 -0.0270  0.0246 -0.1708
  172SOPE  H11B19419   5.219   0.903   6.343  0.1960 -1.2645  1.1023
  172SOPE     P19420   5.208   1.165   6.468  0.2589  0.1449 -0.2016
  172SOPE   O1319421   5.071   1.137   6.418  0.5613 -0.3378 -0.0971
  172SOPE   O1419422   5.256   1.305   6.453  0.0792 -0.1133  0.5003
  172SOPE   O1219423   5.313   1.078   6.386  0.1658 -0.9232  0.2134
  172SOPE   O1119424   5.221   1.119   6.614  0.2696  0.6484 -0.1013
  172SOPE    C119425   5.343   1.084   6.679 -0.6389  1.3042  0.2749
  172SOPE    HA19426   5.429   1.123   6.621  1.0637 -2.0191  0.3781
  172SOPE    HB19427   5.351   0.974   6.675 -1.5833  1.1541  1.6794
  172SOPE    C219428   5.350   1.136   6.828 -0.0224  0.5025  0.1094
  172SOPE    HS19429   5.438   1.098   6.883  0.3572  0.2581 -0.6542
  172SOPE   O2119430   5.231   1.106   6.892  0.6349  0.0862 -0.1554
  172SOPE   C2119431   5.204   0.974   6.894  0.0033  0.5762 -0.6506
  172SOPE   O2219432   5.295   0.891   6.892  0.3526 -0.1335  0.1915
  172SOPE   C2219433   5.054   0.937   6.884 -0.2236  0.1915 -0.3057
  172SOPE   H2R19434   5.055   0.842   6.825 -2.0465  0.7008 -1.2213
  172SOPE   H2S19435   5.011   1.016   6.819  1.8984  3.5939  2.0730
  172SOPE    C319436   5.359   1.289   6.831 -0.3897 -0.4450 -0.2313
  172SOPE    HX19437   5.279   1.340   6.773  2.1331  3.3422 -0.8082
  172SOPE    HY19438   5.446   1.322   6.771  0.9682 -1.4115  1.1058
  172SOPE   O3119439   5.373   1.353   6.960 -0.3793 -0.3207 -0.0132
  172SOPE   C3119440   5.270   1.418   7.023  0.3463  0.4862 -0.4578
  172SOPE   O3219441   5.155   1.410   6.975  0.3847 -0.3134 -0.5797
  172SOPE   C3219442   5.314   1.468   7.165 -0.4034 -0.0717  0.2439
  172SOPE   H2X19443   5.286   1.394   7.242  2.4947  1.3917  2.9044
  172SOPE   H2Y19444   5.248   1.556   7.183  0.9464  0.8327  0.9661
  172SOPE   C2319445   4.984   0.922   7.017  0.6216  0.5438  0.3762
  172SOPE   H3R19446   5.031   0.841   7.077 -0.1698 -0.0388  0.2389
  172SOPE   H3S19447   4.886   0.876   6.988  0.9246 -0.5851  1.0826
  172SOPE   C2419448   4.952   1.057   7.084  0.3219  0.2151  0.2083
  172SOPE   H4R19449   4.963   1.140   7.011 -0.9300  2.4822  2.4303
  172SOPE   H4S19450   4.846   1.065   7.116  0.4319 -1.2472  1.0211
  172SOPE   C2519451   5.049   1.078   7.204  0.9993  0.3811  0.0171
  172SOPE   H5R19452   5.029   0.993   7.272  0.0463  0.0330 -0.6760
  172SOPE   H5S19453   5.153   1.068   7.166  0.4457  1.1329 -1.8214
  172SOPE   C2619454   5.025   1.221   7.255 -0.2282 -0.4028  0.0760
  172SOPE   H6R19455   5.033   1.290   7.169 -0.1855  0.3097  0.6378
  172SOPE   H6S19456   4.920   1.239   7.286  0.0941  0.3401  0.7702
  172SOPE   C2719457   5.118   1.252   7.377  0.3436 -0.8378 -0.1734
  172SOPE   H7R19458   5.220   1.216   7.351  1.1574  0.3793  1.2277
  172SOPE   H7S19459   5.115   1.360   7.401  2.0655 -1.0883  1.4586
  172SOPE   C2819460   5.081   1.176   7.502 -0.1087  0.1847  0.0048
  172SOPE   H8R19461   4.987   1.217   7.545  0.7340  0.3094  1.8211
  172SOPE   H8S19462   5.037   1.078   7.473 -1.7234  0.0470  2.5354
  172SOPE   C2919463   5.189   1.166   7.601 -0.7043  0.1400  0.6640
  172SOPE   H9119464   5.247   1.075   7.578 -0.0174  0.4917  0.9738
  172SOPE  C21019465   5.220   1.232   7.715  0.2874 -0.0498  0.3231
  172SOPE  H10119466   5.303   1.197   7.778 -0.5103 -0.1554  1.3343
  172SOPE  C21119467   5.153   1.364   7.743  0.2236  0.0340  0.5504
  172SOPE  H11R19468   5.061   1.374   7.683  0.1895 -1.2098  0.3721
  172SOPE  H11S19469   5.220   1.451   7.727  0.0878 -0.0149 -0.2997
  172SOPE  C21219470   5.110   1.348   7.889  0.4136  0.9893 -0.2651
  172SOPE  H12R19471   5.052   1.255   7.904  2.1397  0.1940  2.1655
  172SOPE  H12S19472   5.041   1.433   7.910 -0.8010 -0.5330  2.4206
  172SOPE  C21319473   5.223   1.350   7.987 -1.0285 -0.5008  0.2765
  172SOPE  H13R19474   5.278   1.446   7.982  0.5764 -1.3736  0.5092
  172SOPE  H13S19475   5.301   1.273   7.970  0.8113  1.6901 -2.0859
  172SOPE  C21419476   5.179   1.332   8.129 -0.5641 -0.0078  0.4644
  172SOPE  H14R19477   5.116   1.407   8.180 -0.8279 -1.1705  1.9291
  172SOPE  H14S19478   5.270   1.347   8.190  0.6112  0.6296 -1.3420
  172SOPE  C21519479   5.119   1.194   8.163 -0.0095 -0.0702  1.0042
  172SOPE  H15R19480   5.190   1.110   8.145  2.0656  1.2962  2.3106
  172SOPE  H15S19481   5.027   1.189   8.101 -0.1131 -0.8527  1.2162
  172SOPE  C21619482   5.076   1.189   8.307  0.1551 -0.4720 -0.3843
  172SOPE  H16R19483   5.054   1.293   8.338 -0.2650 -0.7711  0.3658
  172SOPE  H16S19484   5.163   1.156   8.367 -0.0949  3.1726  2.3107
  172SOPE  C21719485   4.956   1.106   8.326 -0.1406  0.4346  0.1515
  172SOPE  H17R19486   4.964   1.015   8.261  0.6000  2.4906 -2.8538
  172SOPE  H17S19487   4.866   1.160   8.290 -1.4438 -3.5041 -3.4085
  172SOPE  C21819488   4.929   1.078   8.468  0.6993 -0.3734  0.4059
  172SOPE  H18R19489   4.984   0.985   8.496 -0.0120 -1.0845 -0.4980
  172SOPE  H18S19490   4.821   1.062   8.489  0.3001  2.2309  0.6269
  172SOPE  H18T19491   4.955   1.165   8.531 -0.0133  0.3875 -0.3328
  172SOPE   C3319492   5.467   1.497   7.170 -0.3163  0.2008 -0.0827
  172SOPE   H3X19493   5.487   1.581   7.100 -1.4845  1.9968  1.6340
  172SOPE   H3Y19494   5.527   1.407   7.145 -0.3513 -0.5248  2.1780
  172SOPE   C3419495   5.505   1.545   7.311 -0.5626 -0.3202 -0.5291
  172SOPE   H4X19496   5.454   1.632   7.357 -0.7930 -1.6895  2.0484
  172SOPE   H4Y19497   5.607   1.583   7.292 -0.1324 -1.7394 -1.2072
  172SOPE   C3519498   5.496   1.446   7.427  0.3523 -0.2679 -0.1487
  172SOPE   H5X19499   5.557   1.354   7.412 -1.1954 -1.8415  2.4216
  172SOPE   H5Y19500   5.398   1.394   7.422  2.0058 -3.6827 -0.1175
  172SOPE   C3619501   5.522   1.512   7.562 -0.1980  0.5837  0.7733
  172SOPE   H6X19502   5.435   1.571   7.598 -1.9585 -1.1230 -0.4748
  172SOPE   H6Y19503   5.607   1.581   7.543 -0.1689  0.7563  1.4878
  172SOPE   C3719504   5.563   1.413   7.668  0.1334 -0.0784 -0.3540
  172SOPE   H7X19505   5.664   1.368   7.653  1.1091  0.9503  2.4828
  172SOPE   H7Y19506   5.494   1.326   7.670  2.8650 -2.3976 -0.4364
  172SOPE   C3819507   5.562   1.488   7.800 -0.4111  0.5750 -0.2447
  172SOPE   H8X19508   5.460   1.531   7.813 -0.9459 -0.5974 -0.3946
  172SOPE   H8Y19509   5.642   1.564   7.811  0.2138 -0.2833  1.5089
  172SOPE   C3919510   5.593   1.396   7.920  0.1470 -0.0498  0.4655
  172SOPE   H9X19511   5.688   1.345   7.893  0.3567  0.2428  0.6409
  172SOPE   H9Y19512   5.509   1.324   7.923 -3.0979  3.2887 -1.6356
  172SOPE  C31019513   5.613   1.468   8.051 -0.4726  0.3782  0.1291
  172SOPE  H10X19514   5.527   1.522   8.095 -0.2719  0.5273  0.3422
  172SOPE  H10Y19515   5.690   1.547   8.038 -0.6507  0.3805 -0.9961
  172SOPE  C31119516   5.662   1.380   8.167  0.1025  0.6418  0.5146
  172SOPE  H11X19517   5.715   1.451   8.234 -0.5766  1.1166  0.5587
  172SOPE  H11Y19518   5.725   1.291   8.144  0.1763  0.8909 -0.2969
  172SOPE  C31219519   5.549   1.337   8.262  0.2202 -0.1130  0.2743
  172SOPE  H12X19520   5.480   1.276   8.201  0.6610  0.3853 -0.7370
  172SOPE  H12Y19521   5.491   1.429   8.286  0.2477 -0.6825  2.7810
  172SOPE  C31319522   5.586   1.272   8.395  0.0051  0.1336 -0.0147
  172SOPE  H13X19523   5.617   1.349   8.469 -1.0534  0.5006  0.0624
  172SOPE  H13Y19524   5.663   1.195   8.376 -0.4773  0.0970 -2.0482
  172SOPE  C31419525   5.469   1.205   8.462 -0.1715  0.0667  0.4274
  172SOPE  H14X19526   5.432   1.117   8.407  1.4585 -0.3402 -0.0607
  172SOPE  H14Y19527   5.394   1.287   8.459 -1.2567 -0.8737  0.9802
  172SOPE  C31519528   5.490   1.170   8.615 -0.0331 -0.5267 -0.6493
  172SOPE  H15X19529   5.395   1.156   8.672  0.3452  2.8779  1.0753
  172SOPE  H15Y19530   5.540   1.265   8.641 -1.9711 -0.0471  1.5683
  172SOPE  C31619531   5.581   1.046   8.620  0.0921 -0.7367 -0.0524
  172SOPE  H16X19532   5.672   1.075   8.677 -0.2735 -4.3576  2.7505
  172SOPE  H16Y19533   5.613   1.011   8.519 -2.9622 -0.6064 -1.1550
  172SOPE  C31719534   5.518   0.923   8.697 -0.2997  0.5779 -0.3271
  172SOPE  H17X19535   5.508   0.845   8.619 -0.3720  0.0475  0.2068
  172SOPE  H17Y19536   5.416   0.943   8.738 -1.5357 -1.2363 -2.3207
  172SOPE  C31819537   5.594   0.871   8.819 -0.3272  0.3867 -1.1116
  172SOPE  H18X19538   5.623   0.958   8.881 -0.5910 -0.1110 -0.2770
  172SOPE  H18Y19539   5.688   0.824   8.783 -0.6689 -0.4135 -0.9777
  172SOPE  H18Z19540   5.529   0.803   8.879  1.0056 -0.2822 -0.3757
  173SAPI   C1219541   0.355   5.932  11.097  0.1972  0.4801 -0.3461
  173SAPI    H219542   0.280   5.850  11.107 -0.4720  0.9788 -1.1458
  173SAPI    O219543   0.317   6.034  11.186  0.0988 -0.8216 -0.3509
  173SAPI   HO219544   0.246   5.999  11.240 -1.9308 -0.1977 -2.4259
  173SAPI   C1319545   0.490   5.878  11.138 -0.4232  0.4312 -0.0398
  173SAPI    H319546   0.507   5.794  11.068 -1.3417  0.5316 -0.4052
  173SAPI    O319547   0.492   5.826  11.271 -0.1659  0.8750  0.1141
  173SAPI   HO319548   0.565   5.867  11.317  0.0931  1.5699 -0.8751
  173SAPI   C1419549   0.592   5.982  11.118 -0.0108 -0.1949  0.3149
  173SAPI    H419550   0.576   6.073  11.179  1.9477  1.8298 -1.9366
  173SAPI    O419551   0.725   5.934  11.155  0.2111 -0.0610 -0.0179
  173SAPI   HO419552   0.759   5.966  11.240  1.8822  0.5177 -0.8474
  173SAPI   C1519553   0.604   6.026  10.972  0.3578 -0.2515  0.1128
  173SAPI    H519554   0.625   5.937  10.910  0.3152 -0.2120  0.0411
  173SAPI    O519555   0.703   6.130  10.958 -0.1619 -0.3306 -0.1433
  173SAPI   HO519556   0.760   6.112  10.883  0.2458  1.5227 -0.3293
  173SAPI   C1619557   0.465   6.085  10.935 -0.5273 -0.6622 -0.2198
  173SAPI    H619558   0.441   6.163  11.010 -0.4953 -1.6147  0.8172
  173SAPI    O619559   0.462   6.127  10.798  0.3520 -0.5833  0.0991
  173SAPI   HO619560   0.388   6.188  10.788  1.2683  0.3305 -1.5661
  173SAPI   C1119561   0.362   5.971  10.957 -0.0342 -0.3774  0.0140
  173SAPI    H119562   0.401   5.886  10.897  0.1306  0.3325 -0.9025
  173SAPI     P19563   0.126   5.897  10.834  0.1631 -0.4681  0.0592
  173SAPI   O1319564   0.001   5.980  10.831 -0.7837 -0.3556 -0.0969
  173SAPI   O1419565   0.137   5.766  10.902 -0.1225  0.1543 -0.3656
  173SAPI   O1219566   0.231   5.998  10.908  0.8994  0.1991  0.0637
  173SAPI   O1119567   0.190   5.884  10.687  0.5957 -0.2993  0.1199
  173SAPI    C119568   0.189   5.992  10.598  0.1522 -0.9419 -0.1913
  173SAPI    HA19569   0.091   6.040  10.580  1.3873  1.3661 -1.2179
  173SAPI    HB19570   0.258   6.071  10.634 -0.7602 -0.6283  0.8855
  173SAPI    C219571   0.247   5.956  10.459  0.4908 -0.9408  0.3826
  173SAPI    HS19572   0.240   6.037  10.382 -0.8321  0.5319  1.9849
  173SAPI   O2119573   0.181   5.836  10.412  0.7263 -0.0367 -0.2023
  173SAPI   C2119574   0.054   5.857  10.385  0.7315 -0.7757  0.0428
  173SAPI   O2219575   0.001   5.967  10.376  0.6769  0.6181 -0.3330
  173SAPI   C2219576  -0.031   5.733  10.339 -0.0520 -0.3321  0.2522
  173SAPI   H2R19577   0.020   5.639  10.366  0.0470 -1.2819 -2.8308
  173SAPI   H2S19578  -0.123   5.741  10.401 -0.0633 -1.1004  0.3433
  173SAPI    C319579   0.399   5.924  10.482 -0.4254 -0.0528 -0.2112
  173SAPI    HX19580   0.401   5.854  10.568  0.7248 -0.3286 -0.4469
  173SAPI    HY19581   0.453   6.014  10.517 -3.0473  2.5733 -2.4372
  173SAPI   O3119582   0.461   5.854  10.374  0.2448  1.2289 -0.1883
  173SAPI   C3119583   0.474   5.918  10.262 -0.4098 -0.1343  0.2948
  173SAPI   O3219584   0.455   6.038  10.246  0.1195 -0.4892 -0.4977
  173SAPI   C3219585   0.530   5.821  10.164 -0.2925  0.2126 -0.4931
  173SAPI   H2X19586   0.442   5.776  10.113  1.5896 -1.7927 -2.1812
  173SAPI   H2Y19587   0.593   5.746  10.217 -1.2685  0.5526  1.2186
  173SAPI   C2319588  -0.074   5.742  10.187 -0.5385 -0.0027  0.3249
  173SAPI   H3R19589   0.014   5.732  10.120 -0.7724 -0.1313  0.0346
  173SAPI   H3S19590  -0.117   5.842  10.164 -3.3094 -1.3898 -0.9806
  173SAPI   C2419591  -0.166   5.627  10.145 -0.2673 -0.1054  0.3681
  173SAPI   H4R19592  -0.107   5.535  10.165  1.5213  1.0187  0.5162
  173SAPI   H4S19593  -0.189   5.632  10.037  0.2053  1.8056  0.3191
  173SAPI   C2519594  -0.295   5.615  10.226  0.1702 -0.4013 -0.2091
  173SAPI   H5R19595  -0.282   5.601  10.335 -0.4657  1.4933  0.1502
  173SAPI   C2619596  -0.418   5.603  10.173  0.2474  0.7586  0.2290
  173SAPI   H6R19597  -0.507   5.588  10.235 -0.3930  1.3875 -0.5106
  173SAPI   C2719598  -0.448   5.597  10.022 -1.1471  0.1499 -0.3081
  173SAPI   H7R19599  -0.366   5.579   9.950  1.2166  1.9522  1.7666
  173SAPI   H7S19600  -0.486   5.694   9.984  1.4798  0.8332 -1.4295
  173SAPI   C2819601  -0.560   5.501  10.005  0.3860  0.4467  0.0750
  173SAPI   H8R19602  -0.628   5.494  10.091 -0.2714 -1.5148 -0.5589
  173SAPI   C2919603  -0.575   5.415   9.899  0.6297  0.5278 -0.1347
  173SAPI   H9R19604  -0.663   5.349   9.891  0.8827 -0.1319  1.9749
  173SAPI  C21019605  -0.485   5.391   9.781 -0.4149  0.2162  0.1301
  173SAPI  H10R19606  -0.500   5.291   9.736  2.5103  0.1905 -1.0496
  173SAPI  H10S19607  -0.378   5.393   9.812 -0.4843 -0.0421  0.3869
  173SAPI  C21119608  -0.521   5.505   9.685 -0.2181 -0.5347 -0.5724
  173SAPI  H11R19609  -0.551   5.596   9.740  0.5711 -0.9042  0.5041
  173SAPI  C21219610  -0.516   5.507   9.553 -0.2681  0.2614 -0.1798
  173SAPI  H12R19611  -0.550   5.601   9.508 -0.2902  1.8107  2.7988
  173SAPI  C21319612  -0.465   5.395   9.465 -1.3010  0.0685  0.5017
  173SAPI  H13R19613  -0.394   5.331   9.521  0.2257  1.3617  0.1206
  173SAPI  H13S19614  -0.401   5.418   9.378  0.8053 -2.4171  1.2720
  173SAPI  C21419615  -0.577   5.307   9.415 -0.0408  0.7167 -0.5287
  173SAPI  H14R19616  -0.579   5.211   9.468 -1.0248  1.6755  1.2456
  173SAPI  C21519617  -0.657   5.343   9.316  0.9254 -0.2461  1.1312
  173SAPI  H15R19618  -0.735   5.272   9.284  1.7337  0.2323 -2.2383
  173SAPI  C21619619  -0.648   5.472   9.238  0.7225 -0.4995 -0.6950
  173SAPI  H16R19620  -0.561   5.537   9.264 -0.1148  0.3336  0.1219
  173SAPI  H16S19621  -0.739   5.527   9.270  0.1683 -1.5102 -0.5158
  173SAPI  C21719622  -0.664   5.444   9.090 -0.9435 -0.6156 -0.1908
  173SAPI  H17R19623  -0.758   5.390   9.066 -1.2887 -0.0634 -0.0860
  173SAPI  H17S19624  -0.570   5.390   9.065 -0.8191 -1.1650  1.3262
  173SAPI  C21819625  -0.673   5.576   9.000 -0.3655  1.0523  0.7563
  173SAPI  H18R19626  -0.587   5.646   9.010  0.2448  0.4061  0.1516
  173SAPI  H18S19627  -0.763   5.633   9.031  0.2019  0.9348  2.8121
  173SAPI  C21919628  -0.655   5.541   8.846  0.4303 -0.4371 -0.8101
  173SAPI  H19R19629  -0.745   5.486   8.812 -0.2512 -0.2247  0.5803
  173SAPI  H19S19630  -0.559   5.490   8.822 -0.3590 -1.7589 -1.2339
  173SAPI  C22019631  -0.642   5.672   8.761  0.5813  0.3159  0.6279
  173SAPI  H20R19632  -0.543   5.722   8.767  0.4545  1.7093 -4.1290
  173SAPI  H20S19633  -0.725   5.742   8.782 -1.4415 -1.9531  0.6512
  173SAPI  H20T19634  -0.660   5.647   8.654  0.2654  0.3907  0.6623
  173SAPI   C3319635   0.613   5.891  10.049 -0.0276 -0.1389  0.0718
  173SAPI   H3X19636   0.688   5.968  10.076  0.6732 -0.7716 -0.0312
  173SAPI   H3Y19637   0.544   5.941   9.978  1.1537 -0.3760 -1.2905
  173SAPI   C3419638   0.701   5.799   9.966 -0.5662  0.4904 -0.3394
  173SAPI   H4X19639   0.762   5.741  10.039 -1.8704  1.2942  1.4724
  173SAPI   H4Y19640   0.766   5.855   9.896  1.3308 -0.9096  0.2159
  173SAPI   C3519641   0.630   5.700   9.876  0.1694  0.3934 -0.1488
  173SAPI   H5X19642   0.581   5.633   9.949  4.7387 -2.2408  0.9167
  173SAPI   H5Y19643   0.702   5.642   9.815  0.5316  0.3227  0.3394
  173SAPI   C3619644   0.534   5.770   9.780 -0.7448 -0.3849  0.1649
  173SAPI   H6X19645   0.596   5.840   9.719  2.2443 -2.4432  0.6535
  173SAPI   H6Y19646   0.452   5.821   9.835 -0.8902  0.9831 -1.2250
  173SAPI   C3719647   0.464   5.674   9.687  0.0394 -0.2316 -0.2431
  173SAPI   H7X19648   0.386   5.735   9.638 -0.2860  0.4757  1.1092
  173SAPI   H7Y19649   0.407   5.598   9.744  1.7898 -2.1056 -0.8341
  173SAPI   C3819650   0.554   5.609   9.583 -0.9117 -0.2162  0.8379
  173SAPI   H8X19651   0.612   5.528   9.631 -2.8130 -0.4758  2.8950
  173SAPI   H8Y19652   0.627   5.684   9.546  0.2908 -1.5922  0.3638
  173SAPI   C3919653   0.464   5.536   9.476 -0.6806  0.1841 -0.0956
  173SAPI   H9X19654   0.381   5.473   9.513 -0.4179 -1.4402 -2.1245
  173SAPI   H9Y19655   0.541   5.469   9.432 -0.8996 -1.1297  1.4579
  173SAPI  C31019656   0.421   5.629   9.363 -0.6848  0.0341  0.0264
  173SAPI  H10X19657   0.499   5.703   9.337 -0.6306  0.2050  0.6512
  173SAPI  H10Y19658   0.331   5.674   9.409 -0.3707  1.3276 -0.5936
  173SAPI  C31119659   0.372   5.553   9.240  0.2698  0.0623  0.5507
  173SAPI  H11X19660   0.297   5.480   9.275  1.5038 -0.6711  1.7845
  173SAPI  H11Y19661   0.459   5.494   9.202  1.1142  1.7149 -0.2141
  173SAPI  C31219662   0.326   5.633   9.121  0.0562 -0.5154 -0.1974
  173SAPI  H12X19663   0.406   5.702   9.086  0.0003 -0.4176 -0.1343
  173SAPI  H12Y19664   0.241   5.699   9.152  0.0986 -0.1402 -0.8460
  173SAPI  C31319665   0.304   5.542   8.997  0.4609 -0.3840  0.9504
  173SAPI  H13X19666   0.254   5.601   8.917 -1.4388 -2.5469  0.4529
  173SAPI  H13Y19667   0.230   5.463   9.020  0.1156 -0.3592 -0.0504
  173SAPI  C31419668   0.430   5.487   8.934 -0.5003  0.0007 -0.1409
  173SAPI  H14X19669   0.476   5.415   9.006 -0.3165  0.4671  0.2125
  173SAPI  H14Y19670   0.508   5.563   8.914  1.5592 -2.1549 -0.7630
  173SAPI  C31519671   0.393   5.404   8.808 -0.3798  0.2662 -0.1957
  173SAPI  H15X19672   0.337   5.471   8.740 -1.0313 -0.2249 -0.1447
  173SAPI  H15Y19673   0.336   5.316   8.842  0.3175  0.6815  2.2294
  173SAPI  C31619674   0.516   5.356   8.729 -0.6173  0.1723  0.0707
  173SAPI  H16X19675   0.572   5.440   8.682 -1.3673  1.0661  0.7405
  173SAPI  H16Y19676   0.470   5.300   8.645  0.7383  1.2122 -1.4363
  173SAPI  C31719677   0.609   5.263   8.810 -0.6500  0.0391  0.1599
  173SAPI  H17X19678   0.560   5.169   8.845  1.0311 -1.1361 -0.4779
  173SAPI  H17Y19679   0.649   5.317   8.898 -1.5536  0.5137  0.2893
  173SAPI  C31819680   0.731   5.220   8.735  0.1810 -0.1223 -0.1632
  173SAPI  H18X19681   0.815   5.189   8.801 -0.1875 -3.9311 -1.2207
  173SAPI  H18Y19682   0.759   5.289   8.653  1.6635  1.6452  1.7381
  173SAPI  H18Z19683   0.708   5.121   8.688 -3.0343 -0.2506  1.4024
  174SAPI   C1219684   4.190   0.280  11.087  0.3088 -0.0764  0.1213
  174SAPI    H219685   4.158   0.251  10.985  0.7086  1.9329 -0.6182
  174SAPI    O219686   4.084   0.253  11.178  0.2691  0.6592  0.1936
  174SAPI   HO219687   4.004   0.251  11.125 -0.4285 -2.5378  1.1545
  174SAPI   C1319688   4.312   0.185  11.111 -0.2392  0.9324  0.3430
  174SAPI    H319689   4.382   0.199  11.026  0.6218  1.0122  1.0511
  174SAPI    O319690   4.280   0.047  11.107  0.3986  0.0620 -0.3910
  174SAPI   HO319691   4.186   0.032  11.115  0.5751 -0.6295  0.6900
  174SAPI   C1419692   4.374   0.233  11.245  0.2125  0.5462 -0.5840
  174SAPI    H419693   4.292   0.222  11.320  0.6338  1.5786  0.0524
  174SAPI    O419694   4.491   0.153  11.272  0.0764  0.0391 -0.4013
  174SAPI   HO419695   4.548   0.171  11.198  0.8782 -1.1965 -0.1267
  174SAPI   C1519696   4.414   0.381  11.242 -0.0966  0.4408  0.0316
  174SAPI    H519697   4.490   0.382  11.160 -0.8709 -0.1700 -0.7129
  174SAPI    O519698   4.473   0.432  11.364  0.6860  0.6014 -0.3298
  174SAPI   HO519699   4.418   0.403  11.436  0.3036 -0.8703 -1.1776
  174SAPI   C1619700   4.296   0.470  11.199  0.3272  0.3646  0.0411
  174SAPI    H619701   4.216   0.469  11.277 -2.2621 -0.3896 -2.4510
  174SAPI    O619702   4.329   0.605  11.197 -0.1844 -0.6705  0.0382
  174SAPI   HO619703   4.409   0.614  11.143  0.7976 -1.8796  1.2311
  174SAPI   C1119704   4.229   0.428  11.078  0.4093 -0.4446  1.0563
  174SAPI    H119705   4.289   0.449  10.987 -1.6649  0.8731 -0.0826
  174SAPI     P19706   4.010   0.490  10.928  0.1459  0.1409 -0.0061
  174SAPI   O1319707   3.909   0.598  10.940  0.2355  0.3105  0.2577
  174SAPI   O1419708   3.950   0.357  10.916 -0.3895 -0.2726 -0.2006
  174SAPI   O1219709   4.105   0.498  11.058 -0.0335 -0.3808 -0.2715
  174SAPI   O1119710   4.106   0.511  10.806 -0.3947  0.2648  0.2303
  174SAPI    C119711   4.203   0.616  10.788  0.1438  0.2279  1.1506
  174SAPI    HA19712   4.225   0.674  10.880 -1.3634  0.9877  1.0730
  174SAPI    HB19713   4.302   0.573  10.763  0.8143  1.5448  1.4496
  174SAPI    C219714   4.169   0.710  10.674 -0.0654  0.3625  0.0187
  174SAPI    HS19715   4.066   0.746  10.698 -1.0053 -1.4681 -1.0257
  174SAPI   O2119716   4.168   0.638  10.548 -0.1579  0.0980 -0.2061
  174SAPI   C2119717   4.057   0.584  10.506 -0.0054 -0.3406 -0.3860
  174SAPI   O2219718   3.945   0.609  10.553  0.5566 -0.4944 -0.2862
  174SAPI   C2219719   4.081   0.488  10.396  0.1919 -0.0856 -0.4803
  174SAPI   H2R19720   3.978   0.459  10.364 -0.2517  2.3808 -1.5308
  174SAPI   H2S19721   4.141   0.530  10.313 -0.6672 -2.6007 -2.5046
  174SAPI    C319722   4.265   0.835  10.671 -0.5462  0.0549 -0.1119
  174SAPI    HX19723   4.361   0.790  10.638 -0.8250 -0.0272 -0.8455
  174SAPI    HY19724   4.291   0.874  10.771  3.0380 -1.5742 -0.2273
  174SAPI   O3119725   4.227   0.932  10.577  0.4176 -0.2323 -0.1421
  174SAPI   C3119726   4.127   1.011  10.617 -0.6467 -0.3175 -0.6689
  174SAPI   O3219727   4.066   0.994  10.718 -0.5635  0.1009 -0.9238
  174SAPI   C3219728   4.092   1.114  10.512  0.6828 -0.7156  0.0870
  174SAPI   H2X19729   4.118   1.072  10.412  0.7304 -1.5979  0.4594
  174SAPI   H2Y19730   4.157   1.202  10.528  0.7633 -0.7630  0.0244
  174SAPI   C2319731   4.152   0.371  10.466 -0.3364 -0.1990  0.1820
  174SAPI   H3R19732   4.105   0.350  10.564 -1.1874  0.0735 -0.1573
  174SAPI   H3S19733   4.254   0.414  10.481  0.0597 -0.9822 -0.1797
  174SAPI   C2419734   4.180   0.251  10.373  0.4213 -0.0847 -0.3013
  174SAPI   H4R19735   4.263   0.195  10.422  1.7192  0.0053 -2.2790
  174SAPI   H4S19736   4.227   0.301  10.286  0.5424  1.5682  0.6768
  174SAPI   C2519737   4.061   0.163  10.350  0.0610  0.4932  0.5442
  174SAPI   H5R19738   4.001   0.126  10.434 -1.5292  1.4982 -0.1064
  174SAPI   C2619739   4.014   0.146  10.224  0.0880  0.7793 -0.5541
  174SAPI   H6R19740   3.928   0.081  10.202  2.5538 -1.8884 -3.1457
  174SAPI   C2719741   4.067   0.219  10.097  0.6176 -0.4893 -0.4646
  174SAPI   H7R19742   4.078   0.145  10.015 -0.0876  1.8090 -2.7700
  174SAPI   H7S19743   4.171   0.258  10.100 -0.8152  3.8034  1.2396
  174SAPI   C2819744   3.968   0.320  10.044 -0.2116 -0.3032 -0.7050
  174SAPI   H8R19745   3.948   0.403  10.115  1.1481  0.4522 -1.1725
  174SAPI   C2919746   3.909   0.331   9.922  0.6787 -0.0660  0.0682
  174SAPI   H9R19747   3.825   0.400   9.909  0.7106  0.6388  2.9811
  174SAPI  C21019748   3.929   0.238   9.808  0.0586 -0.2241 -0.5581
  174SAPI  H10R19749   3.854   0.155   9.807  0.5405 -0.6644 -0.7058
  174SAPI  H10S19750   4.019   0.173   9.813 -0.3468 -0.8092 -0.7039
  174SAPI  C21119751   3.919   0.313   9.676 -0.6919  0.6583  0.1536
  174SAPI  H11R19752   3.842   0.391   9.683  0.7629  1.9687  2.5675
  174SAPI  C21219753   3.974   0.285   9.554  0.9052 -0.3046  0.4130
  174SAPI  H12R19754   3.934   0.342   9.469  1.2701 -0.5211  0.0937
  174SAPI  C21319755   4.071   0.171   9.533 -0.2776 -0.3716  0.3244
  174SAPI  H13R19756   4.058   0.131   9.431  1.1943  2.5104 -1.1158
  174SAPI  H13S19757   4.062   0.081   9.597  0.6060 -1.2157 -0.7200
  174SAPI  C21419758   4.209   0.223   9.563 -0.8148 -0.4871 -0.0840
  174SAPI  H14R19759   4.233   0.219   9.670 -1.6179  1.1439  0.1733
  174SAPI  C21519760   4.294   0.286   9.475  0.2716  0.3667  0.0911
  174SAPI  H15R19761   4.398   0.309   9.503  0.4705  0.9555 -1.1044
  174SAPI  C21619762   4.266   0.298   9.327  0.1341 -0.0780  0.4325
  174SAPI  H16R19763   4.286   0.397   9.281 -0.4630 -1.2310 -2.5377
  174SAPI  H16S19764   4.162   0.268   9.302  0.2224  0.5988 -0.7981
  174SAPI  C21719765   4.346   0.196   9.251  0.3960 -0.2863 -0.7254
  174SAPI  H17R19766   4.331   0.095   9.294 -1.6893  1.2211  2.4893
  174SAPI  H17S19767   4.453   0.221   9.261  0.4007  0.2222 -1.9323
  174SAPI  C21819768   4.313   0.194   9.100  0.7314  0.6111 -0.2479
  174SAPI  H18R19769   4.393   0.134   9.052  0.1321 -0.7430  0.3953
  174SAPI  H18S19770   4.312   0.299   9.062  0.9254  0.6037 -0.2751
  174SAPI  C21919771   4.178   0.134   9.069  0.2041 -0.0493  0.6468
  174SAPI  H19R19772   4.091   0.190   9.110 -0.5822  0.0068 -1.0298
  174SAPI  H19S19773   4.161   0.038   9.121 -2.4211 -0.0531 -0.1024
  174SAPI  C22019774   4.153   0.117   8.920  0.4493 -0.4420 -0.6005
  174SAPI  H20R19775   4.199   0.024   8.880  0.2185 -0.2365 -1.3617
  174SAPI  H20S19776   4.179   0.213   8.871 -3.0567  1.1459  0.3909
  174SAPI  H20T19777   4.043   0.110   8.907  0.3818  1.0950 -1.0645
  174SAPI   C3319778   3.941   1.145  10.496 -0.5327  0.1867 -0.6883
  174SAPI   H3X19779   3.902   1.195  10.587 -0.8082  2.8037 -2.1502
  174SAPI   H3Y19780   3.881   1.053  10.480 -0.8258  0.7996 -3.8842
  174SAPI   C3419781   3.913   1.232  10.372 -0.1972  0.0485  0.0203
  174SAPI   H4X19782   3.958   1.189  10.280  1.3973  0.4219  0.6040
  174SAPI   H4Y19783   3.955   1.332  10.395 -0.6328  0.2730 -0.1508
  174SAPI   C3519784   3.758   1.248  10.363  0.3702 -0.2853  0.0734
  174SAPI   H5X19785   3.715   1.312  10.443 -0.1048  0.5414 -0.8185
  174SAPI   H5Y19786   3.713   1.147  10.372 -2.0011  0.8376  2.2362
  174SAPI   C3619787   3.727   1.317  10.230 -0.3696 -0.3114 -0.8450
  174SAPI   H6X19788   3.788   1.270  10.151  1.2017  1.9587 -1.0552
  174SAPI   H6Y19789   3.755   1.424  10.241  2.1188 -1.0381  0.9505
  174SAPI   C3719790   3.576   1.307  10.201  0.5829 -0.6302 -1.0100
  174SAPI   H7X19791   3.530   1.370  10.279  0.6418  0.7749 -2.0609
  174SAPI   H7Y19792   3.545   1.203  10.221  2.1843 -1.1776 -1.1861
  174SAPI   C3819793   3.546   1.361  10.062  0.0213 -0.1329 -0.0323
  174SAPI   H8X19794   3.579   1.467  10.050  0.7189 -0.2013  1.0994
  174SAPI   H8Y19795   3.437   1.354  10.045  0.3076 -1.9527 -1.4415
  174SAPI   C3919796   3.612   1.266   9.952  0.3171  0.1279  0.6662
  174SAPI   H9X19797   3.607   1.161   9.987 -1.6690 -0.3950 -1.0352
  174SAPI   H9Y19798   3.717   1.298   9.930  0.7020 -1.9999 -0.8754
  174SAPI  C31019799   3.517   1.277   9.827 -0.1855  0.5534 -0.0840
  174SAPI  H10X19800   3.492   1.385   9.814 -0.7108  0.2907 -1.4212
  174SAPI  H10Y19801   3.415   1.233   9.832 -1.1919  2.3994 -2.1997
  174SAPI  C31119802   3.595   1.247   9.695  0.0276 -0.0780  0.0015
  174SAPI  H11X19803   3.582   1.138   9.677  0.0186 -0.0108 -0.4325
  174SAPI  H11Y19804   3.701   1.271   9.713  0.0960 -1.1646  1.1582
  174SAPI  C31219805   3.528   1.326   9.574 -0.3666 -0.3607  0.2456
  174SAPI  H12X19806   3.566   1.430   9.577  0.2262 -0.5812  1.1483
  174SAPI  H12Y19807   3.418   1.329   9.583 -0.1934  0.8688  2.8705
  174SAPI  C31319808   3.572   1.259   9.446 -0.2760 -0.1002  0.5747
  174SAPI  H13X19809   3.547   1.151   9.461 -0.2127 -0.5544 -2.1785
  174SAPI  H13Y19810   3.682   1.267   9.440 -0.3519  0.7704  0.2695
  174SAPI  C31419811   3.509   1.304   9.315 -0.3740 -0.3809  0.7606
  174SAPI  H14X19812   3.408   1.333   9.352  0.3848 -1.2591  3.7198
  174SAPI  H14Y19813   3.501   1.220   9.242 -1.1677  0.1607  0.1996
  174SAPI  C31519814   3.582   1.428   9.251  0.0926  0.3689  0.3336
  174SAPI  H15X19815   3.688   1.394   9.256  0.3346  1.2146  1.2377
  174SAPI  H15Y19816   3.562   1.511   9.322 -3.7919  1.0306 -1.2724
  174SAPI  C31619817   3.539   1.472   9.109 -0.6241  0.1503  0.6258
  174SAPI  H16X19818   3.554   1.582   9.105 -3.6480  0.5922 -0.8444
  174SAPI  H16Y19819   3.434   1.440   9.095  0.0707 -1.0616 -2.5490
  174SAPI  C31719820   3.620   1.401   9.000 -0.5056  0.4927  0.0751
  174SAPI  H17X19821   3.610   1.292   9.015  0.4422  0.3089 -0.5576
  174SAPI  H17Y19822   3.728   1.419   9.019 -0.3198  0.7165 -1.0939
  174SAPI  C31819823   3.579   1.437   8.855  0.1399  0.0013  0.3171
  174SAPI  H18X19824   3.590   1.545   8.832 -0.8338 -0.0086 -0.2259
  174SAPI  H18Y19825   3.475   1.399   8.849 -0.0700  0.6396 -0.1624
  174SAPI  H18Z19826   3.643   1.372   8.791 -1.5829  0.5779 -2.0972
  175SAPI   C1219827   5.277   4.803   6.489  0.1029 -0.0686 -0.2617
  175SAPI    H219828   5.343   4.838   6.572 -0.1036 -2.3308  0.9411
  175SAPI    O219829   5.221   4.672   6.520 -0.6787  0.1158  0.5165
  175SAPI   HO219830   5.295   4.622   6.557  1.2934  1.7693 -0.9422
  175SAPI   C1319831   5.156   4.897   6.470  0.2211  0.2081  0.2456
  175SAPI    H319832   5.201   4.997   6.456 -1.3402  1.0226  0.7989
  175SAPI    O319833   5.084   4.908   6.599 -0.3193 -0.1308 -0.4421
  175SAPI   HO319834   5.040   4.825   6.620  1.2970 -1.4514 -1.9554
  175SAPI   C1419835   5.070   4.862   6.351  0.3195 -0.2222  0.0332
  175SAPI    H419836   5.032   4.758   6.358 -0.7842  0.1386 -0.4868
  175SAPI    O419837   4.956   4.951   6.338  0.1871  0.5643  0.0669
  175SAPI   HO419838   4.872   4.906   6.330 -0.2577  1.3861  0.0073
  175SAPI   C1519839   5.166   4.859   6.234 -0.1844 -0.5170 -0.4308
  175SAPI    H519840   5.216   4.958   6.239 -0.8155 -0.2455  2.1750
  175SAPI    O519841   5.092   4.862   6.110  0.0002 -0.1349  0.0413
  175SAPI   HO519842   5.166   4.877   6.051  1.4886 -0.4775  1.7293
  175SAPI   C1619843   5.277   4.755   6.243  0.2346 -0.2871 -0.2556
  175SAPI    H619844   5.234   4.654   6.263  1.7721 -0.7053  1.1971
  175SAPI    O619845   5.349   4.742   6.128  0.9246 -0.0957 -0.6977
  175SAPI   HO619846   5.397   4.659   6.139  1.5229  0.4889  1.5105
  175SAPI   C1119847   5.363   4.796   6.362 -0.0190 -0.2621 -0.5140
  175SAPI    H119848   5.401   4.898   6.342  0.8519 -0.4982 -0.1020
  175SAPI     P19849   5.629   4.746   6.375  0.0386 -0.4137  0.0030
  175SAPI   O1319850   5.661   4.884   6.433 -0.2838 -0.1233  0.2174
  175SAPI   O1419851   5.658   4.727   6.229  0.2935  0.2679 -0.3017
  175SAPI   O1219852   5.470   4.704   6.391  0.6700  0.0470  0.0884
  175SAPI   O1119853   5.715   4.645   6.466 -0.1767 -0.2052  0.5375
  175SAPI    C119854   5.675   4.515   6.494  0.1560  0.8846 -0.5709
  175SAPI    HA19855   5.570   4.493   6.467 -0.6131  0.6506  2.2276
  175SAPI    HB19856   5.731   4.444   6.431  0.5826  1.0992 -0.4390
  175SAPI    C219857   5.683   4.461   6.640 -0.6177  0.1261  0.0642
  175SAPI    HS19858   5.622   4.371   6.663 -0.1767  0.6677  4.2565
  175SAPI   O2119859   5.647   4.566   6.729  0.3117  0.0499 -0.1413
  175SAPI   C2119860   5.517   4.600   6.725  0.1265 -0.2147 -0.3244
  175SAPI   O2219861   5.432   4.541   6.665 -0.3364  0.5213  0.0043
  175SAPI   C2219862   5.494   4.718   6.834 -0.4312  0.7739  0.2302
  175SAPI   H2R19863   5.546   4.683   6.926 -2.9452 -1.2248  0.9917
  175SAPI   H2S19864   5.546   4.808   6.794  1.9582 -0.9240 -0.7815
  175SAPI    C319865   5.834   4.412   6.667  0.2147  0.2521 -0.3497
  175SAPI    HX19866   5.913   4.477   6.623  2.1782 -2.0831 -0.4784
  175SAPI    HY19867   5.857   4.319   6.610 -0.0952 -2.1808  3.2067
  175SAPI   O3119868   5.858   4.388   6.807 -0.5768 -0.6319  0.2120
  175SAPI   C3119869   5.906   4.493   6.867  0.1124 -0.6220 -0.2756
  175SAPI   O3219870   5.943   4.603   6.823  0.7646  0.2914 -0.3777
  175SAPI   C3219871   5.889   4.472   7.016  0.4899 -0.5148 -0.5576
  175SAPI   H2X19872   5.972   4.533   7.057  2.1919 -2.9276 -0.2138
  175SAPI   H2Y19873   5.903   4.367   7.048  0.2868 -0.5350 -0.5310
  175SAPI   C2319874   5.350   4.729   6.878  0.3511 -0.2061 -0.5461
  175SAPI   H3R19875   5.319   4.632   6.922  0.3712  0.2949  0.6090
  175SAPI   H3S19876   5.271   4.747   6.802  1.1178  4.7862 -0.4751
  175SAPI   C2419877   5.333   4.846   6.976  1.2928 -0.7760 -0.1316
  175SAPI   H4R19878   5.404   4.812   7.055  1.0095 -3.3821 -0.8793
  175SAPI   H4S19879   5.233   4.844   7.024  0.9866  0.2537 -0.6964
  175SAPI   C2519880   5.367   4.981   6.917 -0.2405  0.1473  0.8384
  175SAPI   H5R19881   5.329   4.996   6.815  1.4184  0.9352  0.2950
  175SAPI   C2619882   5.449   5.078   6.963 -0.2749 -0.2563 -0.2400
  175SAPI   H6R19883   5.456   5.169   6.901  2.3102 -1.0967 -1.3011
  175SAPI   C2719884   5.526   5.086   7.092 -0.7201 -0.0925 -0.4118
  175SAPI   H7R19885   5.490   5.030   7.181  1.3478  3.0052  2.6237
  175SAPI   H7S19886   5.507   5.190   7.124  0.4026 -0.8795  3.2365
  175SAPI   C2819887   5.673   5.064   7.060 -0.2442  0.0398  0.0750
  175SAPI   H8R19888   5.700   5.012   6.967 -2.7694 -0.2782 -0.5452
  175SAPI   C2919889   5.772   5.105   7.143 -0.9032  0.3656 -0.3202
  175SAPI   H9R19890   5.871   5.076   7.107 -0.9601  1.1444 -1.1492
  175SAPI  C21019891   5.760   5.173   7.273 -0.4658  0.3057 -0.3684
  175SAPI  H10R19892   5.654   5.203   7.294 -0.6506  0.6460 -1.7402
  175SAPI  H10S19893   5.815   5.269   7.270 -1.1040  0.7068  0.1982
  175SAPI  C21119894   5.816   5.082   7.381  0.0550 -0.2524 -0.3301
  175SAPI  H11R19895   5.899   5.012   7.363 -0.9313 -2.6969  3.5396
  175SAPI  C21219896   5.766   5.071   7.512  0.3420 -0.8004  0.1213
  175SAPI  H12R19897   5.816   5.002   7.582  1.1825  0.1093  0.4532
  175SAPI  C21319898   5.649   5.160   7.557 -0.3859 -0.5446 -0.0985
  175SAPI  H13R19899   5.556   5.121   7.510 -0.8231  1.1475 -0.7150
  175SAPI  H13S19900   5.662   5.265   7.523 -0.9214  0.3325  2.2429
  175SAPI  C21419901   5.644   5.164   7.707  0.6068  0.4734  0.6413
  175SAPI  H14R19902   5.711   5.089   7.752 -1.5444 -3.2148 -1.8104
  175SAPI  C21519903   5.581   5.250   7.782 -0.2284  0.5683  0.2632
  175SAPI  H15R19904   5.586   5.233   7.891  0.2331 -1.3674 -0.0126
  175SAPI  C21619905   5.480   5.355   7.748 -0.9531  0.2132  0.3286
  175SAPI  H16R19906   5.496   5.376   7.640  0.7711  3.5864  1.1000
  175SAPI  H16S19907   5.499   5.459   7.782 -2.1819  1.4301 -2.3388
  175SAPI  C21719908   5.332   5.314   7.762  1.0033 -0.4821 -0.2599
  175SAPI  H17R19909   5.312   5.213   7.721 -0.9642 -0.0687 -0.4295
  175SAPI  H17S19910   5.271   5.376   7.692  1.0410  0.3329  0.4192
  175SAPI  C21819911   5.281   5.310   7.910  0.0949  0.1130 -0.0459
  175SAPI  H18R19912   5.365   5.264   7.966 -0.3761 -1.6869 -0.7416
  175SAPI  H18S19913   5.192   5.243   7.910  1.5086 -1.8950 -1.4888
  175SAPI  C21919914   5.240   5.447   7.957  0.0518  0.1182 -0.5674
  175SAPI  H19R19915   5.173   5.494   7.881 -0.4419  1.3886  0.6144
  175SAPI  H19S19916   5.337   5.499   7.944  0.5473 -1.1749 -2.6074
  175SAPI  C22019917   5.174   5.452   8.098  0.4491  0.2208  0.8004
  175SAPI  H20R19918   5.143   5.554   8.130  0.7180  0.0339  1.6830
  175SAPI  H20S19919   5.241   5.403   8.171  1.1247 -0.5054 -0.2734
  175SAPI  H20T19920   5.081   5.392   8.099  1.4906 -1.5379  3.3191
  175SAPI   C3319921   5.762   4.559   7.065 -0.0335  0.0630 -0.5590
  175SAPI   H3X19922   5.662   4.518   7.040 -0.0652  0.1168 -0.5226
  175SAPI   H3Y19923   5.769   4.656   7.011 -2.0047 -0.0654 -1.1165
  175SAPI   C3419924   5.759   4.588   7.220  0.5192  0.9315  0.2856
  175SAPI   H4X19925   5.862   4.620   7.247 -0.1729  1.7527  2.1163
  175SAPI   H4Y19926   5.727   4.497   7.275  0.1283  0.6876 -0.3319
  175SAPI   C3519927   5.664   4.699   7.252 -0.8702  0.3255 -0.6022
  175SAPI   H5X19928   5.569   4.700   7.195 -1.2341  0.5118 -0.0003
  175SAPI   H5Y19929   5.714   4.796   7.231  1.5207 -0.2242  1.8664
  175SAPI   C3619930   5.631   4.712   7.398  0.2959  0.5259  0.0711
  175SAPI   H6X19931   5.565   4.635   7.443  2.5010  0.0091  2.6377
  175SAPI   H6Y19932   5.570   4.805   7.407 -1.3964 -0.4084 -1.1322
  175SAPI   C3719933   5.751   4.708   7.491  0.3237 -0.1875 -0.1795
  175SAPI   H7X19934   5.826   4.785   7.463  1.5877 -1.1647  0.3780
  175SAPI   H7Y19935   5.804   4.611   7.480 -1.1056 -0.7844 -2.3718
  175SAPI   C3819936   5.711   4.717   7.642 -0.1261  0.0268  0.0083
  175SAPI   H8X19937   5.652   4.623   7.650  0.9113 -0.6898 -0.5293
  175SAPI   H8Y19938   5.645   4.806   7.646  0.1590  0.4777 -3.0526
  175SAPI   C3919939   5.831   4.698   7.739 -0.2206 -0.6709 -0.1690
  175SAPI   H9X19940   5.887   4.793   7.729 -2.9811  1.0344 -0.5000
  175SAPI   H9Y19941   5.899   4.616   7.708  2.6732  2.2682 -2.2608
  175SAPI  C31019942   5.783   4.687   7.880  0.6575 -0.2342 -0.4119
  175SAPI  H10X19943   5.702   4.612   7.893  0.4200  0.2141  0.9268
  175SAPI  H10Y19944   5.735   4.778   7.921  0.0733 -0.9387  0.5400
  175SAPI  C31119945   5.888   4.652   7.988 -0.3186 -0.0036  0.1468
  175SAPI  H11X19946   5.952   4.741   8.005  1.8538 -1.6158  0.8766
  175SAPI  H11Y19947   5.954   4.575   7.942 -0.1572  0.6354 -0.7227
  175SAPI  C31219948   5.829   4.601   8.115 -0.0338 -0.1855  0.9857
  175SAPI  H12X19949   5.760   4.521   8.082  0.1342 -0.0053  0.1973
  175SAPI  H12Y19950   5.774   4.690   8.154 -1.3217  0.6527 -2.3792
  175SAPI  C31319951   5.917   4.541   8.224 -0.3849  0.3209 -0.4474
  175SAPI  H13X19952   5.981   4.468   8.170 -0.5100 -0.9080  0.9836
  175SAPI  H13Y19953   5.842   4.494   8.292 -0.9757  2.2444  0.3026
  175SAPI  C31419954   6.003   4.644   8.299  0.2380  0.3025 -0.2520
  175SAPI  H14X19955   5.919   4.706   8.337  1.3361  2.1503 -0.7297
  175SAPI  H14Y19956   6.070   4.695   8.227  1.4928 -0.5124  0.2951
  175SAPI  C31519957   6.083   4.573   8.409 -0.5699 -0.4098 -0.3237
  175SAPI  H15X19958   6.193   4.564   8.392 -0.5245  0.1886 -0.3786
  175SAPI  H15Y19959   6.051   4.467   8.403 -2.1265 -0.0156  0.5819
  175SAPI  C31619960   6.059   4.620   8.549 -0.1049 -0.2460 -0.5499
  175SAPI  H16X19961   5.960   4.597   8.595 -0.4238  2.4458  0.2899
  175SAPI  H16Y19962   6.060   4.731   8.552 -1.3016 -0.2294  1.0921
  175SAPI  C31719963   6.151   4.562   8.658  0.1151  0.0651  0.4717
  175SAPI  H17X19964   6.145   4.618   8.754  1.4647  0.4440  0.3491
  175SAPI  H17Y19965   6.258   4.570   8.630  0.3194 -1.4564  0.7541
  175SAPI  C31819966   6.141   4.418   8.685 -0.3691 -0.1486 -0.3620
  175SAPI  H18X19967   6.203   4.399   8.775  0.4617 -0.8313 -1.0682
  175SAPI  H18Y19968   6.186   4.354   8.607  0.7340 -0.9212  0.8644
  175SAPI  H18Z19969   6.036   4.387   8.705  0.0641 -0.6237  1.3990
  176SAPI   C1219970   4.431   3.732   6.123 -0.2073 -0.2278  0.3787
  176SAPI    H219971   4.370   3.666   6.188  0.8568 -1.2330  0.3976
  176SAPI    O219972   4.533   3.652   6.069 -0.5793  0.0776 -0.1567
  176SAPI   HO219973   4.492   3.600   5.999 -0.0262 -1.0624  0.3234
  176SAPI   C1319974   4.353   3.783   6.006  0.2332  0.0364  0.3687
  176SAPI    H319975   4.278   3.856   6.041 -0.4822 -0.2805 -0.4668
  176SAPI    O319976   4.287   3.685   5.931 -0.6138 -0.7531 -0.0873
  176SAPI   HO319977   4.223   3.731   5.877  0.8870 -1.3299 -2.4745
  176SAPI   C1419978   4.448   3.875   5.917  0.1861  0.2827 -0.1895
  176SAPI    H419979   4.529   3.813   5.873  1.7601  3.3517 -1.9411
  176SAPI    O419980   4.387   3.927   5.802 -0.0395  0.1320 -0.1329
  176SAPI   HO419981   4.414   3.869   5.731  1.5085 -0.6908  1.0646
  176SAPI   C1519982   4.511   3.989   5.995 -0.1616 -0.6052  0.2522
  176SAPI    H519983   4.428   4.057   6.024 -1.7515 -1.5631 -1.8048
  176SAPI    O519984   4.610   4.064   5.923 -0.2595  0.1423 -0.0500
  176SAPI   HO519985   4.652   4.119   5.990 -1.1656  2.7366 -1.4805
  176SAPI   C1619986   4.580   3.933   6.124  0.4225 -0.0204 -0.8401
  176SAPI    H619987   4.668   3.875   6.089 -0.1020 -0.6322 -1.1746
  176SAPI    O619988   4.628   4.047   6.198 -0.3913 -0.3371  0.1090
  176SAPI   HO619989   4.552   4.096   6.230 -0.4480  1.4623 -2.4789
  176SAPI   C1119990   4.489   3.847   6.204 -0.2808  0.5337 -0.1983
  176SAPI    H119991   4.403   3.908   6.239 -1.0628 -1.2006  1.0464
  176SAPI     P19992   4.502   3.750   6.462  0.0212 -0.3243 -0.3646
  176SAPI   O1319993   4.597   3.653   6.521 -0.2161 -0.1067 -0.2132
  176SAPI   O1419994   4.361   3.707   6.458  0.2606  0.3850 -0.4023
  176SAPI   O1219995   4.557   3.793   6.318  0.3689  0.3382 -0.7125
  176SAPI   O1119996   4.525   3.895   6.527  0.2510  0.6081  0.1672
  176SAPI    C119997   4.411   3.972   6.553  0.2276 -0.0916 -0.3641
  176SAPI    HA19998   4.356   4.000   6.461  1.2725  1.3164 -0.6012
  176SAPI    HB19999   4.342   3.913   6.617  0.9857  1.6807  2.2414
  176SAPI    C220000   4.446   4.103   6.625  0.3402  0.0448  0.2938
  176SAPI    HS20001   4.499   4.157   6.544  0.3319 -1.1299 -0.5310
  176SAPI   O2120002   4.536   4.075   6.737 -0.0324  0.5445 -0.4308
  176SAPI   C2120003   4.604   4.182   6.775 -0.2464 -0.2905 -1.1624
  176SAPI   O2220004   4.603   4.287   6.714  0.2202 -0.3983 -0.4801
  176SAPI   C2220005   4.686   4.164   6.904 -0.5284  0.9185  0.0811
  176SAPI   H2R20006   4.747   4.071   6.901 -1.9889 -0.0736  0.2395
  176SAPI   H2S20007   4.735   4.263   6.915 -0.1159  0.6187  1.0902
  176SAPI    C320008   4.323   4.172   6.673  0.2324  1.0153  0.9471
  176SAPI    HX20009   4.243   4.184   6.597  0.6179  0.8145  0.5068
  176SAPI    HY20010   4.356   4.274   6.704  1.3340  1.1124 -0.4612
  176SAPI   O3120011   4.260   4.099   6.783 -0.3953 -0.0072  0.4054
  176SAPI   C3120012   4.175   4.168   6.846 -1.0495  0.1362  0.1895
  176SAPI   O3220013   4.126   4.270   6.805 -0.0521  0.2657 -0.2502
  176SAPI   C3220014   4.130   4.093   6.969 -0.0878 -0.2962  0.4156
  176SAPI   H2X20015   4.182   3.995   6.975  1.5099  0.4896  0.0297
  176SAPI   H2Y20016   4.022   4.084   6.948 -0.3629  1.3533  1.0121
  176SAPI   C2320017   4.597   4.160   7.025 -0.1378  0.1540 -0.2710
  176SAPI   H3R20018   4.534   4.068   7.018 -0.4414  0.4366 -1.2703
  176SAPI   H3S20019   4.527   4.246   7.026 -1.3123 -0.6341 -3.3693
  176SAPI   C2420020   4.676   4.160   7.164 -0.2760  0.0864 -0.1524
  176SAPI   H4R20021   4.680   4.261   7.211  1.8065  0.9340 -1.9535
  176SAPI   H4S20022   4.781   4.127   7.147 -0.3074 -1.1015  1.6751
  176SAPI   C2520023   4.623   4.055   7.257  0.1141 -0.4523  0.9050
  176SAPI   H5R20024   4.583   3.964   7.208 -2.6216 -0.2606  2.5582
  176SAPI   C2620025   4.579   4.080   7.380  0.0625 -0.5796  0.3442
  176SAPI   H6R20026   4.549   3.992   7.438 -0.7986  0.0395  0.8645
  176SAPI   C2720027   4.585   4.208   7.456  0.2145 -0.1746 -0.1854
  176SAPI   H7R20028   4.483   4.248   7.475 -0.3518 -1.8261  0.4055
  176SAPI   H7S20029   4.639   4.280   7.391  2.3045 -2.1689 -0.7967
  176SAPI   C2820030   4.667   4.193   7.585  0.6271 -0.6242 -0.1663
  176SAPI   H8R20031   4.772   4.161   7.577  0.6572 -0.0974 -2.2826
  176SAPI   C2920032   4.632   4.232   7.707  0.0414  0.2506  0.1697
  176SAPI   H9R20033   4.706   4.243   7.788 -0.7467 -1.1216  1.1361
  176SAPI  C21020034   4.500   4.301   7.747 -0.5397 -0.0074 -0.3413
  176SAPI  H10R20035   4.436   4.221   7.790 -0.3691 -0.4252 -0.8574
  176SAPI  H10S20036   4.439   4.319   7.656  0.3699 -0.7270 -1.1210
  176SAPI  C21120037   4.513   4.420   7.842  0.6722  0.2418  0.0761
  176SAPI  H11R20038   4.496   4.515   7.788  2.6310  1.1029  0.8607
  176SAPI  C21220039   4.524   4.412   7.979  0.3855  0.2517  0.0711
  176SAPI  H12R20040   4.540   4.504   8.038 -0.6354  1.3001 -1.2201
  176SAPI  C21320041   4.534   4.284   8.062 -0.6552  0.9574 -0.1199
  176SAPI  H13R20042   4.627   4.276   8.121 -0.1145 -0.0163 -1.0612
  176SAPI  H13S20043   4.537   4.193   7.998  0.5348  1.4748 -0.8349
  176SAPI  C21420044   4.413   4.291   8.151  0.0829  0.7005 -0.1095
  176SAPI  H14R20045   4.316   4.304   8.101 -1.0308  1.0009  2.0162
  176SAPI  C21520046   4.417   4.267   8.284  0.0722  0.1974 -0.0409
  176SAPI  H15R20047   4.318   4.278   8.331  0.1733 -0.7219  0.3979
  176SAPI  C21620048   4.535   4.232   8.368  0.1958  1.0416  0.1811
  176SAPI  H16R20049   4.609   4.173   8.310  0.4502  0.8155  0.7321
  176SAPI  H16S20050   4.491   4.174   8.452 -0.4764  0.7587 -0.3569
  176SAPI  C21720051   4.592   4.359   8.443  0.2209 -0.2617 -0.2777
  176SAPI  H17R20052   4.651   4.425   8.376 -0.2925  0.4590 -0.0404
  176SAPI  H17S20053   4.672   4.334   8.515 -0.1441 -1.3744 -0.2454
  176SAPI  C21820054   4.483   4.451   8.506 -1.2141  0.0666 -0.3329
  176SAPI  H18R20055   4.421   4.385   8.571  1.2005  0.0444  2.1254
  176SAPI  H18S20056   4.420   4.497   8.428 -2.3087 -1.4067 -0.3647
  176SAPI  C21920057   4.547   4.552   8.603  0.4579  0.8151 -0.5073
  176SAPI  H19R20058   4.595   4.490   8.682  0.3352 -1.4378 -2.0994
  176SAPI  H19S20059   4.467   4.614   8.648  0.3024 -1.3967  2.6534
  176SAPI  C22020060   4.649   4.646   8.537  0.5544  0.8575 -0.1855
  176SAPI  H20R20061   4.604   4.692   8.445 -0.9367  0.4918  0.3232
  176SAPI  H20S20062   4.746   4.605   8.502  1.1011  1.2594  0.8383
  176SAPI  H20T20063   4.677   4.726   8.609  1.0568  0.5662 -0.0557
  176SAPI   C3320064   4.157   4.174   7.100 -0.2394  0.3238  0.4335
  176SAPI   H3X20065   4.102   4.270   7.104 -1.9460 -0.5825 -0.0518
  176SAPI   H3Y20066   4.265   4.195   7.116 -0.2784 -0.2301  1.5248
  176SAPI   C3420067   4.103   4.099   7.223  0.0335  0.5974  0.6658
  176SAPI   H4X20068   4.016   4.035   7.197  1.1967 -0.4135 -0.9052
  176SAPI   H4Y20069   4.071   4.174   7.298  1.7459  0.6040  1.4293
  176SAPI   C3520070   4.218   4.007   7.274  0.5425 -0.3125  0.1951
  176SAPI   H5X20071   4.304   4.078   7.268 -0.0081  0.2630 -2.0364
  176SAPI   H5Y20072   4.232   3.923   7.203  0.7006  0.7632 -1.1042
  176SAPI   C3620073   4.201   3.953   7.417 -0.2903  0.2654 -0.5936
  176SAPI   H6X20074   4.098   3.923   7.446  0.1091 -0.0984  0.5010
  176SAPI   H6Y20075   4.241   4.034   7.481  0.3649 -1.0868  0.7713
  176SAPI   C3720076   4.284   3.831   7.442  0.0175  0.1198 -0.3275
  176SAPI   H7X20077   4.313   3.834   7.550  1.6735  1.8324 -0.7766
  176SAPI   H7Y20078   4.374   3.821   7.377  0.6793  0.7259  0.4648
  176SAPI   C3820079   4.191   3.713   7.403  0.1758  0.3937  0.9664
  176SAPI   H8X20080   4.135   3.731   7.309  0.4024 -0.9153  0.5654
  176SAPI   H8Y20081   4.115   3.706   7.484 -1.1862  1.4627 -0.1634
  176SAPI   C3920082   4.266   3.576   7.382  0.2447 -0.1986  0.2856
  176SAPI   H9X20083   4.350   3.587   7.310 -0.5984 -0.5668 -0.7752
  176SAPI   H9Y20084   4.191   3.507   7.337  0.5155  0.2207 -0.8504
  176SAPI  C31020085   4.306   3.521   7.517  0.5743 -0.0210  0.3584
  176SAPI  H10X20086   4.217   3.531   7.584  1.6092  0.9855  1.6502
  176SAPI  H10Y20087   4.386   3.590   7.552  1.7462 -0.3430 -1.5440
  176SAPI  C31120088   4.359   3.372   7.505  0.7155 -0.3445  0.6116
  176SAPI  H11X20089   4.430   3.370   7.421 -2.0630  1.6543 -1.9994
  176SAPI  H11Y20090   4.275   3.304   7.480  0.9401 -0.1718 -0.6294
  176SAPI  C31220091   4.420   3.324   7.635 -0.5998  0.5417  0.6240
  176SAPI  H12X20092   4.491   3.406   7.660 -0.6589  0.9407 -0.4318
  176SAPI  H12Y20093   4.478   3.230   7.619 -0.3261  0.2750  2.8862
  176SAPI  C31320094   4.317   3.295   7.739  0.1265  0.1309 -0.9469
  176SAPI  H13X20095   4.283   3.191   7.720  0.3504 -0.0699 -0.2587
  176SAPI  H13Y20096   4.234   3.369   7.734  1.8910  2.1924 -1.0992
  176SAPI  C31420097   4.369   3.300   7.881  0.4518 -0.5955  0.1279
  176SAPI  H14X20098   4.409   3.403   7.898 -0.0290 -0.2668 -0.6953
  176SAPI  H14Y20099   4.445   3.223   7.906  1.7139  0.5761  0.0441
  176SAPI  C31520100   4.252   3.278   7.981 -0.4087 -0.8421 -0.4104
  176SAPI  H15X20101   4.285   3.221   8.071 -2.5412  0.2235  1.1400
  176SAPI  H15Y20102   4.169   3.233   7.921 -1.0213  1.4740 -1.3937
  176SAPI  C31620103   4.189   3.417   8.034  0.1398  0.6177  0.4114
  176SAPI  H16X20104   4.173   3.488   7.950 -1.3891  1.9196  1.7346
  176SAPI  H16Y20105   4.253   3.464   8.111  1.4004  0.7412 -0.6703
  176SAPI  C31720106   4.049   3.395   8.096 -0.2576 -0.4932 -0.7617
  176SAPI  H17X20107   4.057   3.308   8.164  0.7756  0.0879 -0.1049
  176SAPI  H17Y20108   3.973   3.380   8.017 -1.3052 -1.9652  0.4613
  176SAPI  C31820109   3.999   3.511   8.179 -0.3747  0.4289 -0.3523
  176SAPI  H18X20110   3.914   3.468   8.235  0.1171 -1.3128 -0.8913
  176SAPI  H18Y20111   3.961   3.597   8.119 -0.0371 -0.0014 -1.2073
  176SAPI  H18Z20112   4.068   3.542   8.260  2.4534  1.2272 -2.8791
  177SLPC     N20113   6.005   1.389  11.346 -0.0025 -0.2430  0.1266
  177SLPC   C1320114   6.117   1.358  11.439 -0.5851 -0.7662 -0.0033
  177SLPC  H13A20115   6.204   1.315  11.391 -0.3899 -0.3054 -0.0665
  177SLPC  H13B20116   6.151   1.449  11.488  1.9559 -0.7366 -1.6230
  177SLPC  H13C20117   6.072   1.289  11.508 -3.5607  0.3365 -0.7192
  177SLPC   C1420118   6.052   1.503  11.254  0.1901 -0.1583 -0.2517
  177SLPC  H14A20119   6.120   1.464  11.180 -0.3669 -0.6077 -0.5280
  177SLPC  H14B20120   5.970   1.526  11.189 -1.2686 -2.9015  0.4851
  177SLPC  H14C20121   6.098   1.586  11.307 -1.6988  2.6850 -2.7130
  177SLPC   C1520122   5.888   1.445  11.424 -0.1246  0.1320 -0.1446
  177SLPC  H15A20123   5.855   1.374  11.498 -1.3222 -0.1862 -0.9467
  177SLPC  H15B20124   5.916   1.530  11.484  1.4677 -0.6962  0.3424
  177SLPC  H15C20125   5.805   1.473  11.361 -0.1761  0.0769 -0.1005
  177SLPC   C1220126   5.957   1.264  11.276 -0.0539 -0.0854  0.1478
  177SLPC  H12A20127   5.892   1.285  11.193  0.3515 -2.8470 -0.9749
  177SLPC  H12B20128   5.902   1.197  11.340 -1.2999 -0.2522 -1.0529
  177SLPC   C1120129   6.063   1.172  11.217  0.1773  0.6792  0.3516
  177SLPC  H11A20130   6.109   1.121  11.304  0.0291 -0.6456 -0.3328
  177SLPC  H11B20131   6.140   1.239  11.171  1.0139  0.2215  1.0595
  177SLPC     P20132   6.056   1.071  10.976  0.0670  0.1157 -0.5390
  177SLPC   O1320133   6.196   1.050  10.965  0.0733 -0.1807 -0.1145
  177SLPC   O1420134   5.964   0.979  10.906 -0.4610  0.9406 -0.4907
  177SLPC   O1220135   6.004   1.073  11.127 -0.5514  0.1937 -0.4111
  177SLPC   O1120136   6.026   1.211  10.923 -0.1951 -0.4696  0.3128
  177SLPC    C120137   5.898   1.247  10.870  0.5126 -0.1894 -0.1871
  177SLPC    HA20138   5.816   1.192  10.921  0.1198 -0.4032 -1.0218
  177SLPC    HB20139   5.877   1.355  10.878  0.0818 -0.0232 -2.6292
  177SLPC    C220140   5.898   1.216  10.718  0.0085 -0.7691 -0.8151
  177SLPC    HS20141   5.909   1.106  10.713 -1.9984 -1.0460  0.0209
  177SLPC   O2120142   5.997   1.293  10.651  0.5167 -0.6418  0.3743
  177SLPC   C2120143   6.033   1.239  10.531  0.3377 -0.2262 -1.1783
  177SLPC   O2220144   5.994   1.133  10.484  0.5426  0.2516  0.0609
  177SLPC   C2220145   6.117   1.341  10.447  0.2398 -0.3531  0.9555
  177SLPC   H2R20146   6.157   1.422  10.512  0.0747  0.0635  0.5436
  177SLPC   H2S20147   6.200   1.279  10.408  1.9886  1.3527  1.7536
  177SLPC    C320148   5.753   1.254  10.666 -0.0010  0.3125  0.5353
  177SLPC    HX20149   5.766   1.365  10.671  2.2684  0.3897 -3.3200
  177SLPC    HY20150   5.670   1.223  10.732  0.3423 -2.7296 -0.3366
  177SLPC   O3120151   5.727   1.211  10.528 -0.1289 -0.3586 -0.3810
  177SLPC   C3120152   5.682   1.088  10.514  0.9368 -0.3689  0.5017
  177SLPC   O3220153   5.635   1.018  10.601  0.3583 -0.3054  0.0332
  177SLPC   C3220154   5.710   1.045  10.369 -0.2484  0.1822 -0.1065
  177SLPC   H2X20155   5.713   0.934  10.369  0.0119  0.1879 -0.2777
  177SLPC   H2Y20156   5.808   1.083  10.332 -0.3738  0.4768 -0.1357
  177SLPC   C2320157   6.043   1.404  10.322 -0.3054  0.0796 -0.0875
  177SLPC   H3R20158   6.079   1.507  10.299  0.9996 -0.0153  1.4008
  177SLPC   H3S20159   5.934   1.408  10.341 -0.5847 -1.2666 -1.2525
  177SLPC   C2420160   6.069   1.328  10.196  0.2254 -0.3771 -0.0477
  177SLPC   H4R20161   6.046   1.220  10.206  0.1264 -0.5104 -1.5642
  177SLPC   H4S20162   6.175   1.342  10.167 -0.2418  1.4644 -1.0048
  177SLPC   C2520163   5.972   1.391  10.091  0.4223  0.4668  0.4407
  177SLPC   H5R20164   6.001   1.495  10.068  0.1211  0.0236 -2.2641
  177SLPC   H5S20165   5.862   1.391  10.109  0.1056  1.0166 -1.2817
  177SLPC   C2620166   5.996   1.310   9.957 -0.5246  0.8618 -0.2308
  177SLPC   H6R20167   6.004   1.208  10.000  2.6595  1.0006 -0.2084
  177SLPC   H6S20168   6.092   1.342   9.912 -0.2300  2.4274  1.3772
  177SLPC   C2720169   5.891   1.314   9.850  0.2826 -0.4580 -0.0044
  177SLPC   H7R20170   5.788   1.330   9.890 -1.4570 -1.1832 -3.8192
  177SLPC   H7S20171   5.884   1.223   9.787  0.7007 -1.9458  2.0040
  177SLPC   C2820172   5.894   1.434   9.758  0.2577  0.7847  0.0696
  177SLPC   H8R20173   5.889   1.521   9.826 -0.3466 -0.4631  1.7016
  177SLPC   H8S20174   5.796   1.432   9.705  0.9680  0.5484 -1.2884
  177SLPC   C2920175   6.012   1.446   9.659 -0.8113  0.2723  0.9310
  177SLPC   H9R20176   6.107   1.482   9.700 -0.0746  3.1392 -2.7388
  177SLPC  C21020177   6.005   1.447   9.526 -0.5129 -0.6096  0.3390
  177SLPC  H10R20178   6.102   1.458   9.477  0.2881 -1.7919  1.5901
  177SLPC  C21120179   5.881   1.416   9.440  0.0734 -0.4139 -0.7983
  177SLPC  H11R20180   5.785   1.422   9.495  0.2816 -2.0212 -0.1920
  177SLPC  H11S20181   5.869   1.494   9.362 -0.2441  1.5236  1.1186
  177SLPC  C21220182   5.900   1.280   9.366  0.5298  0.2780  0.1130
  177SLPC  H12R20183   6.001   1.236   9.368  0.6535  0.5131 -0.6656
  177SLPC  C21320184   5.799   1.208   9.308 -0.5202  0.2933 -0.1797
  177SLPC  H13R20185   5.819   1.108   9.264 -0.2348 -0.3559  1.3766
  177SLPC  C21420186   5.650   1.243   9.296 -0.8207 -0.5543 -0.2976
  177SLPC  H14R20187   5.629   1.344   9.339 -3.0496 -1.2658  0.4098
  177SLPC  H14S20188   5.598   1.162   9.351 -0.1519 -0.5359  0.3832
  177SLPC  C21520189   5.595   1.264   9.151 -0.2794  0.6564  0.0783
  177SLPC  H15R20190   5.580   1.162   9.111 -1.4894  1.1771 -0.8417
  177SLPC  H15S20191   5.674   1.307   9.085  2.2181 -0.0789  2.3800
  177SLPC  C21620192   5.458   1.333   9.146 -0.1934 -0.1096 -0.1015
  177SLPC  H16R20193   5.461   1.438   9.184 -3.0702  0.7657 -1.9679
  177SLPC  H16S20194   5.385   1.276   9.207 -0.1572 -2.0147 -1.7456
  177SLPC  C21720195   5.405   1.328   9.003 -0.0623  0.4542  0.8498
  177SLPC  H17R20196   5.475   1.367   8.926  0.7260  1.2211  1.9247
  177SLPC  H17S20197   5.317   1.396   9.006 -0.6453 -0.2240 -0.1091
  177SLPC  C21820198   5.350   1.189   8.966 -0.7558 -1.1637 -0.2235
  177SLPC  H18R20199   5.433   1.120   8.993  2.2388  1.2717 -2.5537
  177SLPC  H18S20200   5.318   1.168   8.862  0.3047 -3.7189 -0.1161
  177SLPC  H18T20201   5.264   1.171   9.035 -0.0062 -0.7996  0.8303
  177SLPC   C3320202   5.601   1.088  10.266  0.1515 -1.2018 -0.0033
  177SLPC   H3X20203   5.588   1.195  10.293  3.9613 -1.2904  2.9447
  177SLPC   H3Y20204   5.501   1.044  10.285 -1.0509  1.4619  0.2114
  177SLPC   C3420205   5.640   1.061  10.115  0.5240  0.2998 -0.0582
  177SLPC   H4X20206   5.664   0.955  10.096  0.9239  0.6080 -1.4353
  177SLPC   H4Y20207   5.734   1.116  10.092  0.8558  0.2407  1.0986
  177SLPC   C3520208   5.525   1.099  10.025  0.5158  0.4196 -0.1113
  177SLPC   H5X20209   5.508   1.207  10.047  1.1420  0.6167 -0.5561
  177SLPC   H5Y20210   5.435   1.045  10.059  0.8245  1.2663  2.2541
  177SLPC   C3620211   5.540   1.082   9.872 -1.2602 -0.4257  0.8275
  177SLPC   H6X20212   5.570   0.975   9.865 -1.1007 -0.3112 -0.3362
  177SLPC   H6Y20213   5.612   1.152   9.826  0.8672 -2.0534  1.5423
  177SLPC   C3720214   5.405   1.092   9.795  0.4340  0.1507  0.3433
  177SLPC   H7X20215   5.354   1.187   9.822 -0.4998  0.1838 -1.4011
  177SLPC   H7Y20216   5.341   1.004   9.818 -0.4593  0.4280 -0.9818
  177SLPC   C3820217   5.418   1.099   9.644 -0.0181  0.2029  0.0057
  177SLPC   H8X20218   5.464   1.198   9.625  3.1770 -0.6271  2.4819
  177SLPC   H8Y20219   5.324   1.076   9.589 -0.3847 -0.9145  1.0486
  177SLPC   C3920220   5.523   1.003   9.590 -0.3964  0.5053  0.4592
  177SLPC   H9X20221   5.622   1.015   9.639  1.0939  1.3018 -2.5309
  177SLPC   H9Y20222   5.542   1.025   9.483 -0.6250  0.4730  0.4123
  177SLPC  C31020223   5.475   0.856   9.605  0.5595 -0.6172 -0.2678
  177SLPC  H10X20224   5.424   0.844   9.704 -0.9010 -0.4750 -0.9807
  177SLPC  H10Y20225   5.561   0.786   9.610 -0.0989 -1.3973  2.9431
  177SLPC  C31120226   5.375   0.801   9.496 -0.3925 -0.2989  0.3596
  177SLPC  H11X20227   5.294   0.875   9.512  0.3525  0.6408 -0.1142
  177SLPC  H11Y20228   5.336   0.702   9.527 -2.2681  0.1118 -0.5539
  177SLPC  C31220229   5.425   0.796   9.349 -0.1512 -0.1032 -0.1423
  177SLPC  H12X20230   5.529   0.759   9.356 -0.3143 -0.2853  2.0300
  177SLPC  H12Y20231   5.439   0.901   9.317 -1.7625  0.5286  1.0735
  177SLPC  C31320232   5.338   0.714   9.259 -0.0722 -0.1792  0.1261
  177SLPC  H13X20233   5.238   0.759   9.239 -0.1152  2.0240  4.1078
  177SLPC  H13Y20234   5.326   0.611   9.298  0.4559 -1.0585 -1.9100
  177SLPC  C31420235   5.417   0.702   9.123  1.1233  0.0351 -0.3210
  177SLPC  H14X20236   5.510   0.642   9.133  0.8161 -0.9895 -2.9079
  177SLPC  H14Y20237   5.414   0.805   9.080 -1.8029 -0.4014 -1.3251
  177SLPC  C31520238   5.335   0.613   9.016 -0.4268 -0.7710  0.0142
  177SLPC  H15X20239   5.379   0.632   8.916  2.0635 -2.3019  0.7049
  177SLPC  H15Y20240   5.231   0.651   9.025 -0.2102 -0.3077  0.6012
  177SLPC  C31620241   5.349   0.466   9.032  0.0634  1.3977 -0.0930
  177SLPC  H16X20242   5.342   0.434   9.138  0.3376 -0.8564 -0.7070
  177SLPC  H16Y20243   5.451   0.441   8.996  0.1469  0.7556  0.5811
  177SLPC  C31720244   5.244   0.389   8.946 -0.2308  0.1655  0.3829
  177SLPC  H17X20245   5.142   0.432   8.945  0.0219  0.7700  0.2163
  177SLPC  H17Y20246   5.228   0.289   8.991  0.7811 -0.7410 -1.1689
  177SLPC  C31820247   5.294   0.352   8.804 -0.0689 -0.7702 -0.0494
  177SLPC  H18X20248   5.365   0.423   8.757 -0.9939 -0.7643 -1.4967
  177SLPC  H18Y20249   5.211   0.336   8.732 -0.4778  0.2579  0.1726
  177SLPC  H18Z20250   5.363   0.265   8.808  1.0854  0.1711  2.0006
  178SLPC     N20251   0.744   3.648  10.828 -0.5067  0.2457  0.9672
  178SLPC   C1320252   0.853   3.720  10.762 -0.0158 -0.0080 -1.2419
  178SLPC  H13A20253   0.916   3.650  10.710  1.2903 -1.1944  1.7058
  178SLPC  H13B20254   0.816   3.799  10.698  0.8663  1.9949  0.6140
  178SLPC  H13C20255   0.910   3.779  10.832 -0.7270  2.6825 -2.8000
  178SLPC   C1420256   0.655   3.748  10.893  0.1655  0.1564 -0.0881
  178SLPC  H14A20257   0.711   3.807  10.964  1.1385 -0.9858  0.1095
  178SLPC  H14B20258   0.604   3.814  10.824 -0.9012  0.5897  1.0869
  178SLPC  H14C20259   0.575   3.708  10.953  0.7938 -0.6469  0.2209
  178SLPC   C1520260   0.807   3.562  10.932 -0.1316 -0.2173  0.5326
  178SLPC  H15A20261   0.868   3.489  10.880 -1.0599 -0.9559  0.4571
  178SLPC  H15B20262   0.862   3.627  10.998  1.9082 -2.3666  1.1017
  178SLPC  H15C20263   0.728   3.530  10.999 -0.0638  1.6957  1.6050
  178SLPC   C1220264   0.670   3.562  10.726  0.4414  0.1166  0.3254
  178SLPC  H12A20265   0.630   3.631  10.653 -0.4481  0.5470  1.2044
  178SLPC  H12B20266   0.583   3.519  10.772  0.2936  1.0731  0.9621
  178SLPC   C1120267   0.745   3.443  10.650 -0.9654 -0.1314 -0.1800
  178SLPC  H11A20268   0.840   3.486  10.611 -1.3368  0.5778 -0.3216
  178SLPC  H11B20269   0.687   3.411  10.560  1.2110 -1.2581 -1.2494
  178SLPC     P20270   0.646   3.268  10.812  0.0322  1.0486 -0.0097
  178SLPC   O1320271   0.700   3.203  10.937  0.5767 -0.2708  0.1583
  178SLPC   O1420272   0.521   3.341  10.827 -0.3127  0.0043 -0.3156
  178SLPC   O1220273   0.770   3.340  10.738  0.0544  0.6429 -0.4490
  178SLPC   O1120274   0.610   3.142  10.721  0.4579  0.1297 -0.1087
  178SLPC    C120275   0.500   3.144  10.623 -0.3558  0.2625 -1.0015
  178SLPC    HA20276   0.409   3.152  10.686  0.2394 -0.1999 -0.0627
  178SLPC    HB20277   0.507   3.224  10.546 -0.6020  0.0853 -1.2127
  178SLPC    C220278   0.489   3.002  10.558  0.0039 -0.2553 -0.0849
  178SLPC    HS20279   0.582   2.973  10.503 -0.9402 -0.6803 -1.5321
  178SLPC   O2120280   0.379   2.982  10.471 -0.2344  0.6725  0.8584
  178SLPC   C2120281   0.396   3.040  10.350  0.5350 -0.2639 -0.3228
  178SLPC   O2220282   0.493   3.103  10.314 -0.8989  0.3620  0.0593
  178SLPC   C2220283   0.268   3.027  10.273  1.3601  0.3903  0.3760
  178SLPC   H2R20284   0.237   2.921  10.286 -0.0150  0.9302  1.7559
  178SLPC   H2S20285   0.196   3.098  10.319 -0.6046  1.9643 -4.4388
  178SLPC    C320286   0.469   2.890  10.666 -0.3430 -1.2584  0.2514
  178SLPC    HX20287   0.392   2.926  10.737  1.1012  1.7596  0.4466
  178SLPC    HY20288   0.562   2.874  10.724  0.6589  1.1784 -0.5389
  178SLPC   O3120289   0.424   2.764  10.604 -1.0120 -0.1957 -0.2134
  178SLPC   C3120290   0.514   2.686  10.548  0.1716  0.5284 -0.3087
  178SLPC   O3220291   0.635   2.695  10.552 -1.1042 -0.3469  0.5218
  178SLPC   C3220292   0.432   2.569  10.493 -0.4619  0.8754  0.6581
  178SLPC   H2X20293   0.335   2.609  10.456 -0.6883 -1.2781 -1.3180
  178SLPC   H2Y20294   0.391   2.502  10.571  1.9575 -1.2859  0.2248
  178SLPC   C2320295   0.286   3.068  10.129  0.4213 -0.0469  0.2567
  178SLPC   H3R20296   0.314   3.176  10.131 -0.1304  0.1397 -0.9892
  178SLPC   H3S20297   0.188   3.052  10.078  0.6794  0.3922 -0.3996
  178SLPC   C2420298   0.381   2.988  10.040 -0.4023 -0.7901 -0.4132
  178SLPC   H4R20299   0.349   2.885  10.068  1.1292 -1.4261 -0.9023
  178SLPC   H4S20300   0.484   3.008  10.078 -1.0975  1.5963  0.3494
  178SLPC   C2520301   0.378   3.015   9.890 -0.4371 -0.6038  0.2544
  178SLPC   H5R20302   0.401   3.122   9.868  0.9821 -0.5979  1.5881
  178SLPC   H5S20303   0.274   3.007   9.852 -0.6425  0.1048  0.6507
  178SLPC   C2620304   0.474   2.930   9.805 -0.3984 -0.0218  0.0016
  178SLPC   H6R20305   0.461   2.820   9.792 -0.2135 -0.1516  0.8334
  178SLPC   H6S20306   0.564   2.930   9.870  1.0238 -0.9352 -1.8695
  178SLPC   C2720307   0.505   2.997   9.673 -0.3864  0.0535  0.9484
  178SLPC   H7R20308   0.610   3.013   9.639 -1.0267  3.1420  0.1156
  178SLPC   H7S20309   0.461   3.097   9.654 -0.8110 -0.5321 -1.6005
  178SLPC   C2820310   0.452   2.903   9.559 -0.2753  0.5990  0.0287
  178SLPC   H8R20311   0.365   2.845   9.599 -0.1307  1.1431  1.1775
  178SLPC   H8S20312   0.518   2.816   9.541 -1.1859 -0.2645  0.7403
  178SLPC   C2920313   0.421   2.962   9.422  0.4865  1.1438 -0.0667
  178SLPC   H9R20314   0.318   2.999   9.426  0.4879  1.0418  2.1116
  178SLPC  C21020315   0.502   2.974   9.314  0.3357 -0.7752 -0.3860
  178SLPC  H10R20316   0.460   3.008   9.219 -0.8615 -1.8685 -0.2773
  178SLPC  C21120317   0.649   2.933   9.316  0.3445 -0.2885  0.4112
  178SLPC  H11R20318   0.652   2.827   9.283 -1.3629 -0.9291  2.1368
  178SLPC  H11S20319   0.689   2.944   9.419  0.5750 -0.0498  0.2977
  178SLPC  C21220320   0.727   3.012   9.218 -1.0075  0.1871  0.2340
  178SLPC  H12R20321   0.761   3.112   9.249  0.8078  0.5054 -2.4822
  178SLPC  C21320322   0.752   2.976   9.091 -0.0951  0.0837  0.4832
  178SLPC  H13R20323   0.803   3.037   9.016 -0.3335 -2.3178 -1.7617
  178SLPC  C21420324   0.723   2.847   9.026  0.1908 -0.1149 -0.1565
  178SLPC  H14R20325   0.675   2.773   9.094 -2.3980  2.5941  1.2136
  178SLPC  H14S20326   0.819   2.804   8.992 -1.8278 -2.4601 -3.4841
  178SLPC  C21520327   0.654   2.851   8.895  0.2117 -0.6089  0.2224
  178SLPC  H15R20328   0.653   2.745   8.859  3.0150 -0.5247 -0.3681
  178SLPC  H15S20329   0.706   2.907   8.815 -1.4519 -0.1145 -0.5434
  178SLPC  C21620330   0.518   2.914   8.917  1.2292 -0.3138 -0.0191
  178SLPC  H16R20331   0.511   3.023   8.938 -0.0376 -0.3380 -0.1942
  178SLPC  H16S20332   0.489   2.882   9.019  1.7759 -2.2528 -0.4404
  178SLPC  C21720333   0.412   2.865   8.816  0.0880  0.5236 -0.7129
  178SLPC  H17R20334   0.329   2.938   8.806 -0.0372  0.8750  2.1282
  178SLPC  H17S20335   0.363   2.767   8.830 -1.6336  1.3644 -0.6521
  178SLPC  C21820336   0.463   2.865   8.666  0.2550  0.4360 -0.5799
  178SLPC  H18R20337   0.377   2.844   8.598 -1.0110  0.6119  0.9069
  178SLPC  H18S20338   0.535   2.781   8.661 -2.1279 -1.9547  1.5585
  178SLPC  H18T20339   0.508   2.963   8.639 -1.5639  1.5664  0.2981
  178SLPC   C3320340   0.500   2.491  10.371 -0.2907 -0.0439 -0.4440
  178SLPC   H3X20341   0.438   2.401  10.353  2.1304 -1.9750  0.2613
  178SLPC   H3Y20342   0.599   2.452  10.403 -0.7458 -0.6835  0.2213
  178SLPC   C3420343   0.514   2.584  10.243 -0.1959 -0.3344 -0.1203
  178SLPC   H4X20344   0.601   2.648  10.269  0.0341  1.1453 -3.8834
  178SLPC   H4Y20345   0.425   2.646  10.221 -1.1064 -1.9222 -1.1107
  178SLPC   C3520346   0.560   2.490  10.128  1.3058 -0.3088  0.3192
  178SLPC   H5X20347   0.485   2.408  10.126 -0.6085  1.3752 -0.9349
  178SLPC   H5Y20348   0.658   2.440  10.138  0.0567 -2.8194  0.7244
  178SLPC   C3620349   0.556   2.566   9.995  0.1206  0.1706  0.4989
  178SLPC   H6X20350   0.646   2.631   9.994 -0.6142  1.4402 -3.8929
  178SLPC   H6Y20351   0.476   2.644   9.998 -0.3419 -0.3181  2.0436
  178SLPC   C3720352   0.564   2.474   9.875  0.2447 -0.0789  0.3275
  178SLPC   H7X20353   0.498   2.385   9.880  0.6839 -0.3754  0.9227
  178SLPC   H7Y20354   0.667   2.433   9.877 -0.2488 -1.3324  1.9599
  178SLPC   C3820355   0.551   2.547   9.741  0.0287 -0.2688  0.2010
  178SLPC   H8X20356   0.612   2.640   9.739  0.1139 -0.3337 -0.8182
  178SLPC   H8Y20357   0.446   2.575   9.715  0.2281  0.5766  0.2683
  178SLPC   C3920358   0.609   2.464   9.622  0.4348 -0.5347 -0.4732
  178SLPC   H9X20359   0.551   2.369   9.617 -1.8418  0.6336  1.7616
  178SLPC   H9Y20360   0.709   2.438   9.662  0.4876  1.1515  0.5298
  178SLPC  C31020361   0.612   2.544   9.487  0.5291 -0.2995  1.1680
  178SLPC  H10X20362   0.663   2.641   9.499  1.0571 -0.3796 -0.3530
  178SLPC  H10Y20363   0.509   2.559   9.447  0.8435 -1.8981 -0.3894
  178SLPC  C31120364   0.675   2.459   9.377 -0.0534  0.0863 -0.4856
  178SLPC  H11X20365   0.607   2.375   9.351  1.0043 -0.1842 -2.5925
  178SLPC  H11Y20366   0.772   2.417   9.409 -0.2839 -1.0515 -1.2126
  178SLPC  C31220367   0.712   2.528   9.245 -0.0803  0.9473  0.8755
  178SLPC  H12X20368   0.801   2.595   9.245  1.4407 -0.9424 -0.8494
  178SLPC  H12Y20369   0.632   2.590   9.199 -1.7950 -0.2578  2.0890
  178SLPC  C31320370   0.747   2.424   9.145 -0.0859  0.2091 -0.0048
  178SLPC  H13X20371   0.655   2.371   9.113 -0.3393 -0.9672  2.4532
  178SLPC  H13Y20372   0.805   2.344   9.195  0.0511 -0.1132 -0.6688
  178SLPC  C31420373   0.818   2.485   9.025 -0.6031 -0.4203  0.7790
  178SLPC  H14X20374   0.904   2.539   9.071 -0.2272 -0.5771  0.2656
  178SLPC  H14Y20375   0.756   2.543   8.953  0.2724 -0.3373  0.0708
  178SLPC  C31520376   0.886   2.377   8.937  0.9325 -0.4079 -0.2916
  178SLPC  H15X20377   0.951   2.320   9.007  0.5615  2.1321  2.3130
  178SLPC  H15Y20378   0.804   2.313   8.898 -1.1845  2.6942 -1.2920
  178SLPC  C31620379   0.955   2.435   8.822 -0.5427  0.7835  0.1003
  178SLPC  H16X20380   1.049   2.484   8.853  0.5066  0.0760 -1.7924
  178SLPC  H16Y20381   0.886   2.511   8.779  2.1462  2.4954 -1.5189
  178SLPC  C31720382   0.992   2.322   8.720  0.1850 -0.2726 -0.4654
  178SLPC  H17X20383   1.041   2.368   8.631  0.7662  1.9903  0.9337
  178SLPC  H17Y20384   0.900   2.284   8.670  1.3127 -1.6647 -1.6066
  178SLPC  C31820385   1.076   2.205   8.775  0.3391  0.2416 -0.3078
  178SLPC  H18X20386   1.027   2.156   8.863  0.9213  1.7355  0.8968
  178SLPC  H18Y20387   1.172   2.248   8.809  0.0822  1.6923 -1.3246
  178SLPC  H18Z20388   1.090   2.125   8.699  1.7891 -0.2102  0.3957
  179SLPC     N20389   0.576   0.768  10.697  0.5330  0.0078 -0.5651
  179SLPC   C1320390   0.632   0.636  10.727  0.2959 -0.1052  0.0168
  179SLPC  H13A20391   0.705   0.654  10.804 -0.0973  3.3031 -0.2409
  179SLPC  H13B20392   0.560   0.561  10.757 -0.2976 -0.1847 -1.5019
  179SLPC  H13C20393   0.694   0.610  10.643 -0.5148 -0.6602 -0.4284
  179SLPC   C1420394   0.512   0.818  10.827  0.1333 -0.2250 -0.4937
  179SLPC  H14A20395   0.452   0.748  10.882 -1.0042  1.9942  1.2372
  179SLPC  H14B20396   0.589   0.853  10.894 -0.9682  1.6698 -0.1363
  179SLPC  H14C20397   0.451   0.904  10.807  0.5351 -0.4075 -2.8406
  179SLPC   C1520398   0.468   0.749  10.604  0.0180 -0.0325  0.7161
  179SLPC  H15A20399   0.393   0.827  10.607 -1.9779 -1.8042 -0.3614
  179SLPC  H15B20400   0.510   0.750  10.504  0.4960  2.7331  0.8460
  179SLPC  H15C20401   0.413   0.657  10.615 -0.9816  0.3489 -0.7952
  179SLPC   C1220402   0.677   0.869  10.638 -0.7461  0.4538  0.7851
  179SLPC  H12A20403   0.755   0.891  10.709  0.8479 -0.8786 -0.4721
  179SLPC  H12B20404   0.619   0.957  10.615 -0.8834  0.2384  0.2898
  179SLPC   C1120405   0.738   0.835  10.498 -0.3965 -0.4811 -0.6636
  179SLPC  H11A20406   0.806   0.917  10.465  0.7821 -0.3665  1.8416
  179SLPC  H11B20407   0.652   0.835  10.428 -0.0792  1.2132 -1.1105
  179SLPC     P20408   0.956   0.702  10.537 -0.1479 -0.3201 -0.0065
  179SLPC   O1320409   1.006   0.828  10.591  0.0767 -0.0321  0.1230
  179SLPC   O1420410   0.982   0.578  10.621  0.5077 -0.5761 -0.4803
  179SLPC   O1220411   0.807   0.713  10.509 -0.2486 -0.2019  0.3250
  179SLPC   O1120412   1.028   0.680  10.393  0.9592  0.5357  0.0043
  179SLPC    C120413   0.965   0.582  10.315 -0.0603  0.0620  0.4481
  179SLPC    HA20414   0.976   0.482  10.361  2.3644 -0.1035 -0.3450
  179SLPC    HB20415   0.858   0.611  10.304 -0.2498 -0.6142  0.4856
  179SLPC    C220416   1.026   0.570  10.171 -0.3869 -0.1648  0.4607
  179SLPC    HS20417   1.134   0.543  10.171  0.4248  2.7716  1.2967
  179SLPC   O2120418   1.023   0.690  10.089 -0.0551 -0.5962 -0.1244
  179SLPC   C2120419   1.124   0.772  10.111  0.4879  0.2168  0.1711
  179SLPC   O2220420   1.207   0.766  10.195 -0.1478  0.0580 -0.6147
  179SLPC   C2220421   1.101   0.892  10.024 -0.2667  0.1505  0.7335
  179SLPC   H2R20422   1.072   0.853   9.924  2.1969  0.0002  0.0049
  179SLPC   H2S20423   1.022   0.943  10.082  0.8090  1.6350  0.9365
  179SLPC    C320424   0.952   0.455  10.091  0.4717  0.0169 -0.6515
  179SLPC    HX20425   0.844   0.479  10.078  0.3338 -0.3937 -0.3042
  179SLPC    HY20426   0.952   0.368  10.161  0.7927  1.8953  1.8167
  179SLPC   O3120427   1.021   0.422   9.962 -0.3661 -0.1204 -0.1736
  179SLPC   C3120428   0.948   0.435   9.847  0.0916  0.2331  0.3706
  179SLPC   O3220429   0.829   0.469   9.842 -0.3971 -0.3658  0.1232
  179SLPC   C3220430   1.028   0.401   9.723 -0.5553 -0.4434  0.2174
  179SLPC   H2X20431   1.115   0.470   9.722 -1.2570  0.4582 -0.2501
  179SLPC   H2Y20432   0.981   0.432   9.628  1.5915  2.1438 -0.1199
  179SLPC   C2320433   1.230   0.976  10.007  1.2877  0.0417  0.3775
  179SLPC   H3R20434   1.321   0.913   9.997  0.4617 -1.1830  0.3994
  179SLPC   H3S20435   1.235   1.046  10.094 -0.5089 -0.5219  0.9828
  179SLPC   C2420436   1.237   1.068   9.885  0.0712  1.2494 -0.3690
  179SLPC   H4R20437   1.337   1.116   9.892  0.7478 -0.3168  1.5292
  179SLPC   H4S20438   1.165   1.151   9.899 -0.3825  0.5488  1.7201
  179SLPC   C2520439   1.219   1.003   9.749 -0.1126 -0.1729 -0.0274
  179SLPC   H5R20440   1.111   0.977   9.743 -0.4802  1.2508 -0.0877
  179SLPC   H5S20441   1.290   0.919   9.734  0.4228  0.5157 -1.6097
  179SLPC   C2620442   1.260   1.097   9.635 -0.3737  0.7809  0.0428
  179SLPC   H6R20443   1.370   1.107   9.645 -0.4349 -0.3795  2.5442
  179SLPC   H6S20444   1.220   1.199   9.649 -1.4263  0.5395 -1.0188
  179SLPC   C2720445   1.227   1.029   9.499 -0.3282 -0.6067  0.1707
  179SLPC   H7R20446   1.117   1.017   9.495 -0.3000 -0.6795 -1.5611
  179SLPC   H7S20447   1.259   0.922   9.494 -1.7166 -1.0491  0.4052
  179SLPC   C2820448   1.291   1.091   9.370 -0.1163 -0.3424 -0.0655
  179SLPC   H8R20449   1.279   1.015   9.290 -3.1501 -0.8119  0.7041
  179SLPC   H8S20450   1.399   1.109   9.386 -0.3047  0.5244  0.2833
  179SLPC   C2920451   1.210   1.214   9.333 -0.0297 -0.2006 -0.1989
  179SLPC   H9R20452   1.100   1.207   9.333 -0.1702  0.1300 -3.7232
  179SLPC  C21020453   1.276   1.330   9.293 -0.0701  0.0946  0.5243
  179SLPC  H10R20454   1.218   1.400   9.231  0.1692 -2.1314 -2.3951
  179SLPC  C21120455   1.426   1.347   9.283 -0.3166 -0.4592 -0.0259
  179SLPC  H11R20456   1.475   1.251   9.255 -0.3004 -0.5761  0.3959
  179SLPC  H11S20457   1.469   1.363   9.384  3.5752 -1.2177 -1.3978
  179SLPC  C21220458   1.465   1.459   9.187  0.3303  0.2387 -0.7021
  179SLPC  H12R20459   1.480   1.558   9.233  1.5144  0.6122 -1.8191
  179SLPC  C21320460   1.518   1.441   9.059 -0.1019  0.1778  0.2097
  179SLPC  H13R20461   1.546   1.525   8.994  0.0050 -0.4674 -0.5810
  179SLPC  C21420462   1.531   1.299   8.997 -0.2525  0.0201 -0.7339
  179SLPC  H14R20463   1.440   1.248   9.035 -1.8353  2.2889 -1.2949
  179SLPC  H14S20464   1.623   1.262   9.047 -0.8259 -2.3426 -1.3176
  179SLPC  C21520465   1.537   1.304   8.838  0.0064  0.0642  0.0095
  179SLPC  H15R20466   1.609   1.382   8.806  0.2189 -0.1853 -0.1236
  179SLPC  H15S20467   1.434   1.334   8.806 -0.9442 -1.0495  1.8373
  179SLPC  C21620468   1.552   1.161   8.782 -0.5703  0.7285 -0.1782
  179SLPC  H16R20469   1.474   1.092   8.819  0.3543  0.0051  0.4794
  179SLPC  H16S20470   1.647   1.113   8.814 -1.4302 -2.8871 -2.5287
  179SLPC  C21720471   1.549   1.158   8.626  0.8920  0.1155 -0.6209
  179SLPC  H17R20472   1.458   1.203   8.581 -0.0190 -0.4997  0.5527
  179SLPC  H17S20473   1.541   1.047   8.623  0.5596 -0.3474  5.1648
  179SLPC  C21820474   1.676   1.215   8.571  0.0154 -0.4874  0.3854
  179SLPC  H18R20475   1.765   1.165   8.615 -0.5412 -2.3035 -0.4554
  179SLPC  H18S20476   1.679   1.325   8.584 -1.1875 -0.4943  0.8021
  179SLPC  H18T20477   1.684   1.191   8.463 -1.5611 -1.0194  0.3598
  179SLPC   C3320478   1.077   0.256   9.702  1.2421 -0.6133  0.4849
  179SLPC   H3X20479   1.134   0.241   9.608  1.6598 -3.0675  1.0611
  179SLPC   H3Y20480   0.985   0.194   9.690  0.9293  0.2221 -1.8459
  179SLPC   C3420481   1.165   0.210   9.815 -0.7682 -0.3125  0.0086
  179SLPC   H4X20482   1.103   0.198   9.906 -1.6976 -1.2912 -0.7319
  179SLPC   H4Y20483   1.226   0.303   9.828  0.3116 -1.0587  0.4854
  179SLPC   C3520484   1.256   0.085   9.781 -0.1693 -0.3833 -0.3121
  179SLPC   H5X20485   1.192  -0.005   9.769  0.5914 -0.6831 -2.5699
  179SLPC   H5Y20486   1.330   0.070   9.862 -1.3663 -2.6757  0.4124
  179SLPC   C3620487   1.338   0.106   9.652 -1.0198 -0.2387  0.1967
  179SLPC   H6X20488   1.374   0.211   9.661 -0.1663 -0.4002 -1.0355
  179SLPC   H6Y20489   1.273   0.097   9.562 -0.7670 -0.1689  0.0042
  179SLPC   C3720490   1.457   0.013   9.635  0.2121 -0.3912  0.1223
  179SLPC   H7X20491   1.529   0.045   9.713 -1.3164 -0.6889  1.7230
  179SLPC   H7Y20492   1.507   0.040   9.539  0.1995 -2.4444 -0.5131
  179SLPC   C3820493   1.413  -0.133   9.640 -0.1293  0.3312  0.1107
  179SLPC   H8X20494   1.374  -0.159   9.740 -2.7301 -0.9513 -1.1344
  179SLPC   H8Y20495   1.499  -0.201   9.623 -1.5358 -1.2805 -0.7954
  179SLPC   C3920496   1.315  -0.176   9.528  0.6651  0.4419  0.4686
  179SLPC   H9X20497   1.222  -0.115   9.530  0.2886 -0.0509 -0.9293
  179SLPC   H9Y20498   1.291  -0.283   9.542  1.9027  0.1822  0.7811
  179SLPC  C31020499   1.364  -0.154   9.385  0.6160 -0.5361  0.3388
  179SLPC  H10X20500   1.461  -0.207   9.371  0.9647  0.5176 -1.5987
  179SLPC  H10Y20501   1.384  -0.046   9.367  0.3530 -0.9521 -3.0075
  179SLPC  C31120502   1.276  -0.202   9.267 -0.4885  0.3878  0.0667
  179SLPC  H11X20503   1.174  -0.158   9.265 -1.5763 -1.7070 -4.3564
  179SLPC  H11Y20504   1.250  -0.309   9.282  0.2247  0.2768  0.5093
  179SLPC  C31220505   1.352  -0.189   9.140  0.4953  0.0735  0.6243
  179SLPC  H12X20506   1.307  -0.261   9.069  1.0918 -0.6463  0.9629
  179SLPC  H12Y20507   1.454  -0.233   9.141 -0.7608 -3.1082 -0.4967
  179SLPC  C31320508   1.348  -0.045   9.074  0.7441  0.4101  0.1732
  179SLPC  H13X20509   1.387   0.034   9.142 -0.0296 -0.0018  1.1192
  179SLPC  H13Y20510   1.241  -0.035   9.048  0.8274 -1.4955 -1.0573
  179SLPC  C31420511   1.437  -0.056   8.953  0.1895 -0.2656 -0.0270
  179SLPC  H14X20512   1.424  -0.142   8.885 -1.3437 -0.0877 -0.0003
  179SLPC  H14Y20513   1.538  -0.060   9.001  0.0796  0.3698  0.2778
  179SLPC  C31520514   1.422   0.077   8.875  1.0852  0.8726 -0.0798
  179SLPC  H15X20515   1.455   0.164   8.935  1.4795  1.9676 -1.7988
  179SLPC  H15Y20516   1.314   0.087   8.850  0.9391 -1.2589 -0.5011
  179SLPC  C31620517   1.495   0.055   8.740 -0.2357 -0.0507  0.0805
  179SLPC  H16X20518   1.474  -0.043   8.691  2.6850 -0.7432  0.0164
  179SLPC  H16Y20519   1.601   0.058   8.773 -0.5602  0.2773  1.1189
  179SLPC  C31720520   1.474   0.181   8.641 -0.5374  0.4312  0.8540
  179SLPC  H17X20521   1.485   0.273   8.702 -0.5293 -0.9607  3.0629
  179SLPC  H17Y20522   1.380   0.161   8.586 -0.7063  3.9712 -0.3885
  179SLPC  C31820523   1.577   0.175   8.527  0.0277 -0.3774 -0.0495
  179SLPC  H18X20524   1.530   0.224   8.440  0.7076  0.3954  0.0051
  179SLPC  H18Y20525   1.608   0.073   8.495 -0.0555 -0.8872  1.4195
  179SLPC  H18Z20526   1.674   0.227   8.544  0.1065 -0.6329  0.2930
  180SLPC     N20527   2.864   4.817  10.796 -0.1655 -0.3440  0.0138
  180SLPC   C1320528   2.738   4.769  10.863 -0.1812 -0.6941  0.2335
  180SLPC  H13A20529   2.667   4.745  10.785 -1.4036  1.2390  0.6919
  180SLPC  H13B20530   2.746   4.681  10.924 -1.4987  0.1808  1.7482
  180SLPC  H13C20531   2.694   4.844  10.926  0.0018 -0.3324 -0.0657
  180SLPC   C1420532   2.977   4.816  10.898 -0.1887 -0.0801  0.1607
  180SLPC  H14A20533   2.980   4.718  10.945 -0.8498  0.1585  0.7221
  180SLPC  H14B20534   3.070   4.839  10.848 -1.0274 -1.4026 -2.1738
  180SLPC  H14C20535   2.963   4.886  10.979  1.9695 -0.7608  1.2164
  180SLPC   C1520536   2.843   4.956  10.748 -0.1665 -0.3492 -0.8330
  180SLPC  H15A20537   2.821   5.012  10.838 -0.3565 -3.8315  1.5035
  180SLPC  H15B20538   2.927   5.000  10.697  0.8674  0.7579  1.6495
  180SLPC  H15C20539   2.752   4.947  10.691 -0.4343 -1.7503 -0.2324
  180SLPC   C1220540   2.895   4.721  10.683 -0.4805  0.0929  0.2685
  180SLPC  H12A20541   2.808   4.717  10.619 -1.8548 -1.0902  2.1009
  180SLPC  H12B20542   2.904   4.621  10.723 -0.6223  0.7748  2.0972
  180SLPC   C1120543   3.018   4.762  10.598 -0.1328  0.2723 -0.3599
  180SLPC  H11A20544   3.000   4.865  10.560 -0.7188  0.2579 -0.1304
  180SLPC  H11B20545   3.033   4.704  10.504 -2.3707  0.0774 -0.6415
  180SLPC     P20546   3.206   4.613  10.693  0.4984 -0.0449  0.2002
  180SLPC   O1320547   3.259   4.611  10.830 -0.8292  0.4959 -0.0971
  180SLPC   O1420548   3.116   4.504  10.647  0.0085 -0.2714  0.6692
  180SLPC   O1220549   3.136   4.758  10.670  0.7769  0.1868  0.2570
  180SLPC   O1120550   3.334   4.617  10.595  0.3151  0.7512 -0.3188
  180SLPC    C120551   3.421   4.726  10.570  0.8239  0.0784 -0.7968
  180SLPC    HA20552   3.382   4.823  10.608  2.1145 -0.2201  1.5329
  180SLPC    HB20553   3.511   4.707  10.633  0.9459  1.9476 -0.3461
  180SLPC    C220554   3.468   4.729  10.424 -0.3553  0.9158  0.1639
  180SLPC    HS20555   3.543   4.806  10.397  1.1128 -1.3928 -2.9476
  180SLPC   O2120556   3.354   4.731  10.337 -0.6342 -0.4873  0.0717
  180SLPC   C2120557   3.301   4.850  10.326 -0.5324  0.5615 -1.0578
  180SLPC   O2220558   3.354   4.947  10.362 -0.3858 -0.3817  0.5824
  180SLPC   C2220559   3.167   4.831  10.257 -0.3826 -0.0585 -0.3263
  180SLPC   H2R20560   3.132   4.726  10.247 -1.2961  0.1546  0.4728
  180SLPC   H2S20561   3.100   4.894  10.318 -1.3820 -1.8915  0.5456
  180SLPC    C320562   3.545   4.594  10.383 -0.8097  0.1608  0.1210
  180SLPC    HX20563   3.486   4.503  10.405  1.0740 -1.3719 -0.8098
  180SLPC    HY20564   3.635   4.593  10.448 -1.2174 -3.3221  0.8240
  180SLPC   O3120565   3.580   4.602  10.241  0.2398 -0.0612 -0.1390
  180SLPC   C3120566   3.576   4.482  10.178 -0.2739 -0.0429 -0.0635
  180SLPC   O3220567   3.554   4.378  10.236 -0.0657  0.2601  0.3566
  180SLPC   C3220568   3.586   4.490  10.017 -0.7829 -0.0591 -0.5992
  180SLPC   H2X20569   3.519   4.409   9.982 -0.4294 -0.1277 -1.1213
  180SLPC   H2Y20570   3.695   4.471  10.005 -0.4767  0.8665  0.4920
  180SLPC   C2320571   3.167   4.895  10.118 -0.2203 -0.1265  0.7903
  180SLPC   H3R20572   3.249   4.864  10.050 -0.1102  1.4897  0.1575
  180SLPC   H3S20573   3.176   5.005  10.132 -0.9818 -0.1226  1.2822
  180SLPC   C2420574   3.039   4.866  10.042  0.3013  0.7234  0.3134
  180SLPC   H4R20575   2.956   4.912  10.100 -2.0254 -0.4435 -1.9000
  180SLPC   H4S20576   3.010   4.759  10.040  2.3761  0.1060  0.1964
  180SLPC   C2520577   3.029   4.931   9.902 -0.1706  0.5451 -0.2866
  180SLPC   H5R20578   3.126   4.934   9.849 -0.7188  0.8267 -1.2909
  180SLPC   H5S20579   3.004   5.038   9.920 -1.1348  0.5991 -1.7811
  180SLPC   C2620580   2.923   4.869   9.817 -0.2285 -0.1964  0.3646
  180SLPC   H6R20581   2.828   4.893   9.869  0.1447 -0.6711  1.2910
  180SLPC   H6S20582   2.934   4.759   9.808  1.5158  0.1010 -2.6926
  180SLPC   C2720583   2.922   4.938   9.679  0.8307  0.8147  0.3891
  180SLPC   H7R20584   2.995   4.889   9.610 -1.3268  1.9079 -2.8763
  180SLPC   H7S20585   2.956   5.044   9.683  0.9514  0.9904 -2.8884
  180SLPC   C2820586   2.782   4.929   9.599 -0.4122  0.1238  0.1823
  180SLPC   H8R20587   2.780   4.996   9.511 -0.7793 -0.4278 -0.2339
  180SLPC   H8S20588   2.702   4.977   9.658 -1.4570  0.9138 -1.7947
  180SLPC   C2920589   2.766   4.782   9.569  0.2629 -0.5842  0.6846
  180SLPC   H9R20590   2.760   4.710   9.651  1.6478 -0.4865  0.9073
  180SLPC  C21020591   2.754   4.726   9.448  0.2699 -0.0165 -0.6990
  180SLPC  H10R20592   2.751   4.616   9.434  2.8691 -0.6117  2.2627
  180SLPC  C21120593   2.766   4.798   9.315 -0.1406 -0.2696 -0.4484
  180SLPC  H11R20594   2.803   4.726   9.239 -0.8523 -0.5450 -0.5380
  180SLPC  H11S20595   2.837   4.883   9.325 -1.3898  0.7914 -0.4336
  180SLPC  C21220596   2.631   4.861   9.274 -0.9299  0.3260 -0.2593
  180SLPC  H12R20597   2.543   4.796   9.283 -0.3802 -0.4194 -0.2091
  180SLPC  C21320598   2.631   4.986   9.230  0.9440  0.4464 -0.2262
  180SLPC  H13R20599   2.536   5.016   9.183  1.3446 -0.0441 -1.3807
  180SLPC  C21420600   2.746   5.078   9.206 -0.6120 -0.0061 -0.5500
  180SLPC  H14R20601   2.818   5.070   9.290  0.0212  0.4869 -1.0240
  180SLPC  H14S20602   2.714   5.184   9.200 -0.3418  0.1759  0.8970
  180SLPC  C21520603   2.838   5.064   9.083  0.3951  0.2691  0.4445
  180SLPC  H15R20604   2.828   4.957   9.055 -0.1429 -0.2238  2.3836
  180SLPC  H15S20605   2.939   5.093   9.118  0.4469  0.2621  0.3051
  180SLPC  C21620606   2.803   5.153   8.957 -0.9842  0.1024 -0.0274
  180SLPC  H16R20607   2.838   5.258   8.962 -0.7002 -0.0528  2.6064
  180SLPC  H16S20608   2.692   5.164   8.951 -1.0109 -0.4409 -0.6124
  180SLPC  C21720609   2.871   5.089   8.833  0.5422 -0.4036  0.6499
  180SLPC  H17R20610   2.975   5.068   8.868  0.1425  0.3364  2.3808
  180SLPC  H17S20611   2.879   5.157   8.746  1.6605 -0.2539  0.8546
  180SLPC  C21820612   2.796   4.964   8.782 -0.8188 -0.3661 -0.3862
  180SLPC  H18R20613   2.824   4.870   8.834 -0.9441  0.1045  0.5773
  180SLPC  H18S20614   2.811   4.948   8.674  0.8950 -0.2291 -0.2008
  180SLPC  H18T20615   2.685   4.973   8.782 -0.7899  0.5982  1.6843
  180SLPC   C3320616   3.558   4.625   9.941 -0.7496  0.9935 -0.2349
  180SLPC   H3X20617   3.594   4.717   9.991 -0.0232  0.9613 -0.6824
  180SLPC   H3Y20618   3.448   4.636   9.933 -0.9283 -0.0627  0.6524
  180SLPC   C3420619   3.617   4.616   9.799 -0.2344 -0.1849 -0.4674
  180SLPC   H4X20620   3.578   4.523   9.753  0.0103  0.0908 -1.2523
  180SLPC   H4Y20621   3.725   4.592   9.789 -0.1184  0.9330 -2.4855
  180SLPC   C3520622   3.575   4.735   9.699 -0.4083  0.2696 -0.1451
  180SLPC   H5X20623   3.648   4.818   9.711 -0.9796  0.7117  0.3170
  180SLPC   H5Y20624   3.473   4.771   9.724 -0.9292 -1.3750  0.1843
  180SLPC   C3620625   3.572   4.673   9.560  0.5592 -0.0213  0.0909
  180SLPC   H6X20626   3.492   4.597   9.552  0.2595  0.2666  0.3363
  180SLPC   H6Y20627   3.672   4.627   9.545  1.0203  0.3505  1.8015
  180SLPC   C3720628   3.561   4.780   9.455 -0.5462  1.0734  0.8873
  180SLPC   H7X20629   3.631   4.864   9.471  1.1382 -0.4863  2.1946
  180SLPC   H7Y20630   3.459   4.824   9.465 -0.6333  1.1412 -0.2315
  180SLPC   C3820631   3.584   4.728   9.313 -0.0592 -0.2987  0.3031
  180SLPC   H8X20632   3.507   4.651   9.295 -2.4370  2.1570 -0.6750
  180SLPC   H8Y20633   3.685   4.684   9.297  0.1492  0.8128 -1.8292
  180SLPC   C3920634   3.567   4.842   9.214  0.0529  0.5497  0.1027
  180SLPC   H9X20635   3.622   4.934   9.244  1.0355 -0.1175  0.4037
  180SLPC   H9Y20636   3.458   4.862   9.206 -0.0787  0.1854  0.8791
  180SLPC  C31020637   3.610   4.810   9.069 -1.0722 -0.2112  0.0552
  180SLPC  H10X20638   3.580   4.894   9.003  2.6474  0.4161 -1.0917
  180SLPC  H10Y20639   3.559   4.722   9.025 -2.2525  0.5472 -0.1245
  180SLPC  C31120640   3.770   4.799   9.056  0.4830 -0.0146 -0.1581
  180SLPC  H11X20641   3.804   4.707   9.109 -0.3045 -1.9532 -2.8249
  180SLPC  H11Y20642   3.825   4.884   9.102 -0.0421 -0.6630  1.7656
  180SLPC  C31220643   3.824   4.778   8.912 -0.6410  0.2538 -0.4880
  180SLPC  H12X20644   3.800   4.867   8.849  0.9570  0.6193 -0.6266
  180SLPC  H12Y20645   3.778   4.690   8.862 -0.1895  0.7394 -1.8066
  180SLPC  C31320646   3.975   4.762   8.906 -0.3243 -0.0128  0.0136
  180SLPC  H13X20647   4.005   4.668   8.957  0.1856  0.1050 -0.0625
  180SLPC  H13Y20648   4.023   4.847   8.960 -0.6439  0.0035  0.2727
  180SLPC  C31420649   4.033   4.771   8.760 -0.0761  0.2933 -0.2373
  180SLPC  H14X20650   4.143   4.761   8.769 -0.1273 -2.7950 -1.6122
  180SLPC  H14Y20651   4.014   4.871   8.715 -1.9218 -0.5123 -1.3833
  180SLPC  C31520652   3.988   4.666   8.660  0.5900  0.3581 -0.0527
  180SLPC  H15X20653   3.880   4.683   8.640  0.7442 -0.2522 -1.5316
  180SLPC  H15Y20654   3.998   4.569   8.714  0.6705 -0.5872 -1.6900
  180SLPC  C31620655   4.066   4.645   8.531 -0.4179  0.4464 -0.1361
  180SLPC  H16X20656   4.019   4.568   8.466  0.1757  1.5971 -2.0094
  180SLPC  H16Y20657   4.167   4.608   8.561 -0.1705 -0.7944 -2.2750
  180SLPC  C31720658   4.080   4.776   8.451  0.1321  0.7682 -0.0962
  180SLPC  H17X20659   4.089   4.867   8.514 -0.3308 -0.7515  2.3231
  180SLPC  H17Y20660   3.986   4.796   8.395  0.5286 -1.0746 -1.5155
  180SLPC  C31820661   4.205   4.775   8.363  0.0464 -0.1811 -0.3536
  180SLPC  H18X20662   4.302   4.762   8.417 -0.2090 -0.1582  0.1154
  180SLPC  H18Y20663   4.214   4.857   8.289  1.9315  0.4319  0.4831
  180SLPC  H18Z20664   4.191   4.678   8.311 -1.8494 -0.9417  1.4491
  181SLPC     N20665   4.721   1.594  10.949  0.7423  0.0252 -0.0879
  181SLPC   C1320666   4.754   1.443  10.929  0.2567 -1.3014  0.2283
  181SLPC  H13A20667   4.730   1.408  10.830  0.0800 -1.6868  0.4057
  181SLPC  H13B20668   4.859   1.424  10.944  0.9146  1.1569 -0.8011
  181SLPC  H13C20669   4.703   1.385  11.005 -0.2590  1.4032  2.0886
  181SLPC   C1420670   4.716   1.616  11.094  0.1392 -0.1739 -0.6999
  181SLPC  H14A20671   4.626   1.573  11.137 -1.0073 -0.7662 -3.5088
  181SLPC  H14B20672   4.800   1.572  11.146  0.5716  0.2511 -1.0388
  181SLPC  H14C20673   4.722   1.721  11.121 -0.4372  0.1260 -1.7015
  181SLPC   C1520674   4.589   1.623  10.891 -0.5139 -0.4401 -0.0306
  181SLPC  H15A20675   4.594   1.602  10.785 -1.4765  0.0770 -0.1976
  181SLPC  H15B20676   4.513   1.565  10.941 -1.7920  1.7962  0.7614
  181SLPC  H15C20677   4.566   1.728  10.901  1.2514  0.0872 -1.0700
  181SLPC   C1220678   4.826   1.684  10.887  0.3291  0.8646 -0.2177
  181SLPC  H12A20679   4.839   1.652  10.785 -0.3393  2.6473 -0.9136
  181SLPC  H12B20680   4.922   1.671  10.934  0.1226 -1.5587 -0.3638
  181SLPC   C1120681   4.804   1.838  10.888 -0.3544  0.2131  0.0980
  181SLPC  H11A20682   4.699   1.850  10.853  0.0868 -0.0488 -1.3606
  181SLPC  H11B20683   4.871   1.887  10.815 -0.5643  1.8692  0.9686
  181SLPC     P20684   4.946   1.907  11.089 -0.0752  0.3383  0.0581
  181SLPC   O1320685   4.923   1.927  11.232  0.6899  0.2668  0.3056
  181SLPC   O1420686   5.035   1.795  11.050  0.4904 -0.2442 -0.1307
  181SLPC   O1220687   4.812   1.899  11.020 -0.2339 -0.1885 -0.0635
  181SLPC   O1120688   5.014   2.036  11.042  0.2258 -0.1068 -0.4329
  181SLPC    C120689   4.945   2.158  11.015 -0.5256  0.9351 -1.0832
  181SLPC    HA20690   4.843   2.161  11.059  0.2604  2.0107  0.8298
  181SLPC    HB20691   4.992   2.237  11.078 -1.0418 -0.1908  0.7844
  181SLPC    C220692   4.928   2.204  10.870 -0.1446 -0.0189 -0.8170
  181SLPC    HS20693   4.860   2.134  10.817 -0.5592 -0.5675  0.4102
  181SLPC   O2120694   5.057   2.207  10.819 -0.2318  0.0553  0.4042
  181SLPC   C2120695   5.090   2.104  10.738 -0.1045 -1.1410  0.3091
  181SLPC   O2220696   5.019   2.015  10.699  0.1474 -0.9419  0.4994
  181SLPC   C2220697   5.226   2.124  10.671 -0.4147 -0.1322 -0.4704
  181SLPC   H2R20698   5.310   2.101  10.741 -0.3905  2.5143  0.4760
  181SLPC   H2S20699   5.212   2.056  10.585 -0.1627  1.4723 -1.8258
  181SLPC    C320700   4.861   2.342  10.863 -0.1343 -0.4298 -0.6488
  181SLPC    HX20701   4.925   2.422  10.905 -0.1373 -0.4113 -0.6794
  181SLPC    HY20702   4.773   2.340  10.932  0.9497  2.3430  0.9669
  181SLPC   O3120703   4.815   2.372  10.723 -0.1506 -0.0188  0.3723
  181SLPC   C3120704   4.884   2.466  10.661 -0.4608  0.6021 -0.7016
  181SLPC   O3220705   4.995   2.508  10.699 -0.2509  0.0720  0.1590
  181SLPC   C3220706   4.818   2.499  10.526  0.3635  0.1502  0.1610
  181SLPC   H2X20707   4.719   2.541  10.554 -0.2402 -0.2882 -1.2385
  181SLPC   H2Y20708   4.817   2.395  10.486  1.3160 -0.7381  2.2674
  181SLPC   C2320709   5.245   2.263  10.613 -0.4129 -0.6075 -0.0145
  181SLPC   H3R20710   5.353   2.267  10.584 -0.8949 -3.3693 -2.6152
  181SLPC   H3S20711   5.230   2.327  10.703 -0.2816 -1.1668  0.4131
  181SLPC   C2420712   5.168   2.287  10.485  0.2681  0.1241  0.5923
  181SLPC   H4R20713   5.062   2.300  10.512 -0.4217 -3.3294  0.0617
  181SLPC   H4S20714   5.177   2.190  10.432  1.7440  0.4896  0.1221
  181SLPC   C2520715   5.209   2.421  10.417 -0.1422  0.3983  0.4404
  181SLPC   H5R20716   5.217   2.508  10.484  1.3361  0.3972  0.3058
  181SLPC   H5S20717   5.128   2.428  10.341  0.8955  1.0229 -0.6620
  181SLPC   C2620718   5.331   2.403  10.326  0.1150  0.2601 -0.6467
  181SLPC   H6R20719   5.316   2.311  10.265  1.1346  1.1087 -2.2512
  181SLPC   H6S20720   5.424   2.387  10.384  1.1004  1.0907 -1.9137
  181SLPC   C2720721   5.357   2.524  10.236 -0.0195  0.4842 -0.1715
  181SLPC   H7R20722   5.363   2.619  10.293  2.0380  0.2648  0.0777
  181SLPC   H7S20723   5.271   2.548  10.170  1.6559 -0.4990 -2.8701
  181SLPC   C2820724   5.479   2.500  10.142  0.7433 -0.0963 -0.1912
  181SLPC   H8R20725   5.464   2.399  10.100 -0.0046  0.1104 -0.4367
  181SLPC   H8S20726   5.568   2.498  10.209 -0.6231  0.0258  1.7322
  181SLPC   C2920727   5.507   2.595  10.037  0.2325 -0.7598  0.2120
  181SLPC   H9R20728   5.552   2.692  10.063  0.2540 -0.4482 -0.9103
  181SLPC  C21020729   5.478   2.586   9.904  0.1984 -0.1906 -0.3826
  181SLPC  H10R20730   5.507   2.673   9.843 -3.7791  1.1981 -0.6458
  181SLPC  C21120731   5.407   2.477   9.829 -0.3975  0.5382  0.5667
  181SLPC  H11R20732   5.334   2.519   9.757  1.6108  0.7773 -1.4451
  181SLPC  H11S20733   5.355   2.412   9.903  2.1984  0.9650  2.9259
  181SLPC  C21220734   5.513   2.396   9.754  0.3108  0.4341  0.1892
  181SLPC  H12R20735   5.590   2.354   9.821  2.2263  0.2280 -2.0293
  181SLPC  C21320736   5.544   2.402   9.622  0.0279  0.2999  0.7136
  181SLPC  H13R20737   5.620   2.332   9.585  0.7706  1.0758  0.7420
  181SLPC  C21420738   5.466   2.472   9.513  0.0021  0.1351 -0.2852
  181SLPC  H14R20739   5.529   2.539   9.452  0.5300 -0.9036 -0.9137
  181SLPC  H14S20740   5.377   2.520   9.559 -0.3276  0.5882 -1.3796
  181SLPC  C21520741   5.420   2.363   9.414 -0.1689 -0.2111 -0.0980
  181SLPC  H15R20742   5.345   2.408   9.346 -0.4218 -0.7136 -0.1568
  181SLPC  H15S20743   5.362   2.287   9.471  0.7212  0.6056  1.9984
  181SLPC  C21620744   5.531   2.296   9.326  0.1168 -0.8556 -0.5818
  181SLPC  H16R20745   5.611   2.252   9.390  2.2989  2.0303 -1.1101
  181SLPC  H16S20746   5.569   2.368   9.251  0.8738 -0.3722  0.2420
  181SLPC  C21720747   5.484   2.178   9.242 -0.3379  0.1710  0.1673
  181SLPC  H17R20748   5.475   2.102   9.323 -1.5134  0.7335  0.5895
  181SLPC  H17S20749   5.570   2.135   9.187 -1.4647 -1.8097 -0.1244
  181SLPC  C21820750   5.359   2.215   9.165  0.1821 -0.0989 -0.5131
  181SLPC  H18R20751   5.386   2.299   9.098 -1.2070 -0.2501 -1.2898
  181SLPC  H18S20752   5.271   2.241   9.228  1.1932  2.1725  0.0515
  181SLPC  H18T20753   5.335   2.128   9.100 -0.3544  1.2857 -2.2319
  181SLPC   C3320754   4.885   2.590  10.425  0.8807  0.2987 -0.4091
  181SLPC   H3X20755   4.984   2.549  10.397  0.6951  0.1371 -0.8386
  181SLPC   H3Y20756   4.890   2.693  10.467 -0.1000 -0.5053  1.8159
  181SLPC   C3420757   4.807   2.593  10.301 -0.0075 -0.8170  0.8500
  181SLPC   H4X20758   4.709   2.636  10.331  0.1987 -0.0267  0.4033
  181SLPC   H4Y20759   4.791   2.486  10.276  1.0900 -1.0967  1.3089
  181SLPC   C3520760   4.877   2.663  10.182  0.4320 -0.1136 -0.3118
  181SLPC   H5X20761   4.927   2.760  10.199 -0.8633  0.4755  0.2635
  181SLPC   H5Y20762   4.800   2.680  10.104  1.0660 -2.9829 -1.7157
  181SLPC   C3620763   4.971   2.573  10.100 -0.4721  0.0901 -0.1076
  181SLPC   H6X20764   4.896   2.509  10.047 -0.3986 -0.1933  0.1268
  181SLPC   H6Y20765   5.041   2.511  10.160  0.7379  2.2153  0.7589
  181SLPC   C3720766   5.053   2.635   9.989 -0.1385 -0.1325  1.0410
  181SLPC   H7X20767   5.078   2.547   9.927  0.9727  0.6331  0.3523
  181SLPC   H7Y20768   5.152   2.672  10.024  1.2630 -2.7132  0.0418
  181SLPC   C3820769   4.979   2.735   9.894  0.3448  0.1404  0.3529
  181SLPC   H8X20770   4.960   2.828   9.951 -0.4728 -0.0941  0.4763
  181SLPC   H8Y20771   4.879   2.695   9.867  0.0498  0.6023  0.7448
  181SLPC   C3920772   5.063   2.757   9.766 -0.7149 -0.0559 -0.2993
  181SLPC   H9X20773   5.169   2.780   9.789 -1.7258  3.1341  1.7937
  181SLPC   H9Y20774   5.024   2.848   9.715  1.4157  1.5869  0.8509
  181SLPC  C31020775   5.043   2.648   9.662 -0.2245 -0.5795  0.8653
  181SLPC  H10X20776   4.936   2.625   9.645 -0.4890  2.4791 -2.7185
  181SLPC  H10Y20777   5.086   2.553   9.702 -0.3336 -1.8641 -1.8860
  181SLPC  C31120778   5.112   2.679   9.526  0.0767  0.1538  0.6003
  181SLPC  H11X20779   5.128   2.582   9.473  0.1956 -0.7791  2.2746
  181SLPC  H11Y20780   5.210   2.724   9.553 -1.0743  1.3316  3.0864
  181SLPC  C31220781   5.036   2.782   9.441 -0.8533  0.1289  0.3808
  181SLPC  H12X20782   5.028   2.881   9.491 -1.5482  0.2686  0.0039
  181SLPC  H12Y20783   4.931   2.749   9.430 -0.6912 -0.0862 -0.5767
  181SLPC  C31320784   5.091   2.811   9.300  0.1376  0.0037  0.0781
  181SLPC  H13X20785   5.184   2.871   9.292 -0.0293  0.3617  0.7851
  181SLPC  H13Y20786   5.011   2.856   9.238 -0.3630 -1.3450 -0.3041
  181SLPC  C31420787   5.112   2.684   9.215  0.3208  0.3757 -0.4731
  181SLPC  H14X20788   5.013   2.635   9.206  1.3089 -1.6481 -0.9903
  181SLPC  H14Y20789   5.186   2.620   9.268 -0.8012 -0.4020  0.1897
  181SLPC  C31520790   5.174   2.700   9.070  0.1877  0.6041  0.1370
  181SLPC  H15X20791   5.284   2.699   9.085  0.1786  0.0623  0.1950
  181SLPC  H15Y20792   5.137   2.791   9.017  1.0532  0.0576 -1.4758
  181SLPC  C31620793   5.138   2.581   8.982  0.2782 -0.2264 -0.1528
  181SLPC  H16X20794   5.030   2.587   8.958  0.0395  0.9325  1.0710
  181SLPC  H16Y20795   5.161   2.490   9.042  2.0678 -1.1539 -2.1051
  181SLPC  C31720796   5.215   2.582   8.849  0.1893 -0.0606 -0.3543
  181SLPC  H17X20797   5.164   2.516   8.777 -1.3687 -0.5366  1.1103
  181SLPC  H17Y20798   5.317   2.543   8.871 -0.5659 -0.7193  2.4900
  181SLPC  C31820799   5.219   2.727   8.790 -0.3741  0.8939  0.2148
  181SLPC  H18X20800   5.278   2.724   8.695 -1.2815 -1.5480 -0.3501
  181SLPC  H18Y20801   5.265   2.805   8.855  0.6096  0.7303 -0.2621
  181SLPC  H18Z20802   5.113   2.744   8.763 -0.8481 -1.8705  0.0335
  182SLPC     N20803   3.203   1.696  10.741  0.1968 -0.4204 -0.3845
  182SLPC   C1320804   3.272   1.689  10.871 -0.4209  0.1939  0.1620
  182SLPC  H13A20805   3.265   1.781  10.926 -4.4082  0.7378 -0.9454
  182SLPC  H13B20806   3.233   1.617  10.941 -0.9651  0.4250  0.0949
  182SLPC  H13C20807   3.375   1.659  10.855 -0.3656  0.8262 -0.7861
  182SLPC   C1420808   3.157   1.562  10.710 -0.1585 -0.0050  0.3100
  182SLPC  H14A20809   3.102   1.566  10.617  0.3960 -0.1454 -0.0288
  182SLPC  H14B20810   3.245   1.502  10.691 -0.5127 -1.4804  2.8847
  182SLPC  H14C20811   3.094   1.520  10.787 -0.3445  0.1847  0.2614
  182SLPC   C1520812   3.298   1.744  10.635 -0.0292 -0.4893 -0.0959
  182SLPC  H15A20813   3.375   1.670  10.618  0.2972 -0.1831  0.0290
  182SLPC  H15B20814   3.243   1.772  10.547  0.4704  0.5291 -0.0962
  182SLPC  H15C20815   3.341   1.838  10.667 -0.5968 -0.8174  1.7737
  182SLPC   C1220816   3.090   1.795  10.757  0.5953  0.6009  0.5548
  182SLPC  H12A20817   3.018   1.773  10.834 -2.3201  3.0261 -1.1979
  182SLPC  H12B20818   3.019   1.794  10.675  0.3013  1.9661  0.7644
  182SLPC   C1120819   3.114   1.947  10.762 -0.2322  0.2750  0.5966
  182SLPC  H11A20820   3.021   2.006  10.773  0.7711  2.1423 -0.5243
  182SLPC  H11B20821   3.162   1.976  10.666 -2.0343  0.4017 -0.3049
  182SLPC     P20822   3.331   2.053  10.882  0.0663 -0.1619  0.3882
  182SLPC   O1320823   3.350   2.110  11.013 -0.0275 -0.0992  0.3002
  182SLPC   O1420824   3.438   1.962  10.837 -0.0559 -0.6528  0.2781
  182SLPC   O1220825   3.196   1.979  10.879  0.0178  0.4065  0.3327
  182SLPC   O1120826   3.308   2.173  10.774  0.1976 -0.0396 -0.5819
  182SLPC    C120827   3.353   2.163  10.639 -0.0278  0.0534  0.0703
  182SLPC    HA20828   3.445   2.226  10.633  0.0848 -0.1895 -0.9577
  182SLPC    HB20829   3.386   2.062  10.606  2.0951  0.8247 -0.3451
  182SLPC    C220830   3.262   2.231  10.527 -0.2371 -0.2767 -0.0109
  182SLPC    HS20831   3.162   2.182  10.523 -1.6131  2.2175  1.3512
  182SLPC   O2120832   3.332   2.245  10.402  0.3210  0.0584 -0.1864
  182SLPC   C2120833   3.283   2.178  10.295  0.1364  0.3386 -0.5073
  182SLPC   O2220834   3.178   2.114  10.289 -0.3501 -0.1651  0.5137
  182SLPC   C2220835   3.380   2.192  10.187 -0.0806 -0.1847  0.0456
  182SLPC   H2R20836   3.476   2.241  10.216 -0.2075  0.6440 -0.8914
  182SLPC   H2S20837   3.409   2.087  10.164 -0.8860 -0.4485  0.1973
  182SLPC    C320838   3.220   2.378  10.571 -0.2864  0.7107 -0.1787
  182SLPC    HX20839   3.317   2.420  10.606 -0.0800 -0.7945  1.1742
  182SLPC    HY20840   3.165   2.355  10.665  0.2509 -0.3890 -0.1178
  182SLPC   O3120841   3.141   2.457  10.483 -0.3008 -0.8915  0.1512
  182SLPC   C3120842   3.197   2.555  10.415 -0.6422  0.7072  0.2817
  182SLPC   O3220843   3.307   2.601  10.434  0.2389 -0.1435  0.0564
  182SLPC   C3220844   3.112   2.571  10.284  0.4403  0.2304  0.0455
  182SLPC   H2X20845   3.051   2.663  10.300  2.0415  1.6917 -1.7923
  182SLPC   H2Y20846   3.050   2.480  10.283 -0.8409  1.0651  0.4223
  182SLPC   C2320847   3.309   2.239  10.059  0.0675 -0.3499 -0.5174
  182SLPC   H3R20848   3.241   2.324  10.081  1.2588  0.5904 -0.3316
  182SLPC   H3S20849   3.250   2.154  10.020  3.1847 -3.1970  0.5057
  182SLPC   C2420850   3.405   2.269   9.952 -0.2492  0.3328  0.2094
  182SLPC   H4R20851   3.474   2.183   9.937 -0.9945 -0.3266  0.4759
  182SLPC   H4S20852   3.476   2.343   9.993 -1.2657  0.8802  1.0038
  182SLPC   C2520853   3.323   2.312   9.826  0.1523 -0.5509  0.2440
  182SLPC   H5R20854   3.269   2.405   9.854 -2.5408 -2.3094  1.3314
  182SLPC   H5S20855   3.248   2.235   9.797  0.8785 -0.5011 -1.9589
  182SLPC   C2620856   3.412   2.332   9.697  0.1732 -0.2495  0.5542
  182SLPC   H6R20857   3.457   2.234   9.670  0.0236 -0.1456 -0.0874
  182SLPC   H6S20858   3.491   2.411   9.699  0.5417 -0.4984 -1.7530
  182SLPC   C2720859   3.319   2.372   9.578 -0.7870  0.0711 -0.1475
  182SLPC   H7R20860   3.290   2.472   9.616 -0.6981 -0.0907  0.3567
  182SLPC   H7S20861   3.224   2.315   9.566 -0.2795 -1.2403  1.6285
  182SLPC   C2820862   3.395   2.403   9.445  1.1252 -0.0806 -0.3084
  182SLPC   H8R20863   3.504   2.403   9.464  1.0709 -0.5012  0.0165
  182SLPC   H8S20864   3.372   2.507   9.414 -1.5122 -0.5123 -0.0532
  182SLPC   C2920865   3.368   2.308   9.336 -0.3516 -0.1099  0.3362
  182SLPC   H9R20866   3.421   2.213   9.350  2.4543  1.3029  0.1543
  182SLPC  C21020867   3.287   2.327   9.229  0.0274  0.6862 -0.3498
  182SLPC  H10R20868   3.292   2.244   9.158 -0.0183  1.4935 -1.3225
  182SLPC  C21120869   3.194   2.441   9.197 -1.0722 -1.1037  0.2591
  182SLPC  H11R20870   3.238   2.516   9.128 -0.9161 -0.4387  1.0674
  182SLPC  H11S20871   3.183   2.495   9.293  2.7308  2.7759 -1.1927
  182SLPC  C21220872   3.064   2.399   9.133  0.2940  0.5921  0.4333
  182SLPC  H12R20873   3.039   2.292   9.128  0.5376  0.5326  0.4715
  182SLPC  C21320874   2.989   2.480   9.056  0.6522  0.1790  0.0518
  182SLPC  H13R20875   2.901   2.438   9.005  0.8943  0.4193 -0.5736
  182SLPC  C21420876   3.000   2.628   9.031 -0.4075 -0.3051 -0.6839
  182SLPC  H14R20877   3.086   2.680   9.076 -0.4874  0.0920 -0.9865
  182SLPC  H14S20878   2.915   2.688   9.068 -0.7571  0.0037 -1.9193
  182SLPC  C21520879   3.028   2.656   8.881  0.4394 -0.1151 -0.1387
  182SLPC  H15R20880   2.939   2.625   8.823 -1.0248 -0.4114  2.1333
  182SLPC  H15S20881   3.118   2.598   8.850  0.0244 -2.5119  2.7595
  182SLPC  C21620882   3.034   2.813   8.863  1.0238  0.7042 -0.1083
  182SLPC  H16R20883   3.132   2.850   8.900  0.9484 -0.9990  1.9622
  182SLPC  H16S20884   2.953   2.866   8.916  1.9313  0.6762  1.3656
  182SLPC  C21720885   3.038   2.848   8.708  0.5774 -0.3383 -0.5505
  182SLPC  H17R20886   2.941   2.816   8.665  1.1052 -2.5031 -0.2317
  182SLPC  H17S20887   3.120   2.783   8.670  1.1214 -0.2065  0.3782
  182SLPC  C21820888   3.068   2.999   8.676 -0.3161  0.7078  0.5065
  182SLPC  H18R20889   3.099   3.008   8.569 -1.7707 -0.2963 -0.0319
  182SLPC  H18S20890   3.151   3.030   8.743  0.0662  0.0654  0.3471
  182SLPC  H18T20891   2.984   3.066   8.702 -0.1538  0.1716  2.5526
  182SLPC   C3320892   3.193   2.606  10.154  0.5405  0.1768 -0.2563
  182SLPC   H3X20893   3.115   2.596  10.075 -0.6448 -1.4878  1.0383
  182SLPC   H3Y20894   3.279   2.538  10.137  0.1219 -0.1111 -1.3252
  182SLPC   C3420895   3.252   2.748  10.162  0.1362  0.4744 -0.6459
  182SLPC   H4X20896   3.341   2.757  10.227  0.5470  1.4956 -1.3200
  182SLPC   H4Y20897   3.186   2.829  10.200  1.2596  0.8330  0.6177
  182SLPC   C3520898   3.309   2.779  10.020 -0.1408 -0.5368  0.4111
  182SLPC   H5X20899   3.346   2.681   9.983  1.4772  0.0520  0.4012
  182SLPC   H5Y20900   3.402   2.837  10.040 -0.6716  0.9439 -1.1720
  182SLPC   C3620901   3.226   2.858   9.921  0.3618  0.1701  0.5425
  182SLPC   H6X20902   3.188   2.953   9.963 -0.7342  0.4893 -1.0656
  182SLPC   H6Y20903   3.138   2.794   9.900  1.0989 -1.1902  1.4936
  182SLPC   C3720904   3.299   2.896   9.795 -0.2205 -0.1557 -0.2452
  182SLPC   H7X20905   3.331   2.806   9.739 -1.5239 -1.1423  0.5269
  182SLPC   H7Y20906   3.390   2.953   9.823  0.1476 -0.5529 -0.6277
  182SLPC   C3820907   3.210   2.976   9.694  1.0194 -0.0112 -0.2805
  182SLPC   H8X20908   3.170   3.065   9.746  0.1294  0.0706 -1.0825
  182SLPC   H8Y20909   3.124   2.911   9.669  0.5651  1.1663 -1.9909
  182SLPC   C3920910   3.278   3.010   9.560 -0.0703 -0.4220 -0.8893
  182SLPC   H9X20911   3.354   3.088   9.580  0.7050 -1.3819  0.0172
  182SLPC   H9Y20912   3.207   3.048   9.483  0.4044 -1.9630 -2.1337
  182SLPC  C31020913   3.355   2.892   9.509  0.0444 -0.6733 -0.5085
  182SLPC  H10X20914   3.320   2.792   9.543 -0.7611 -0.6189 -1.1572
  182SLPC  H10Y20915   3.459   2.904   9.545 -0.6878  0.8095  1.2854
  182SLPC  C31120916   3.354   2.895   9.356  0.1997  0.8960 -0.8498
  182SLPC  H11X20917   3.403   2.990   9.325  1.2737  0.7565  0.3541
  182SLPC  H11Y20918   3.246   2.896   9.329 -0.0429  1.5203  0.0955
  182SLPC  C31220919   3.421   2.768   9.293 -0.0818 -0.6522 -0.0620
  182SLPC  H12X20920   3.341   2.692   9.274 -0.9535  0.0399  0.7031
  182SLPC  H12Y20921   3.487   2.734   9.375  0.1695  0.4465  0.1981
  182SLPC  C31320922   3.519   2.791   9.172  0.0600  0.0241  0.4514
  182SLPC  H13X20923   3.567   2.695   9.143  0.2117  0.1349  0.3338
  182SLPC  H13Y20924   3.612   2.848   9.193  0.6678 -0.8050  0.0652
  182SLPC  C31420925   3.442   2.849   9.045 -0.5977  0.6277  0.4116
  182SLPC  H14X20926   3.373   2.928   9.082 -1.4286 -0.1187  0.4825
  182SLPC  H14Y20927   3.377   2.779   8.989  0.1807  1.9172 -2.2684
  182SLPC  C31520928   3.542   2.915   8.941 -0.3793 -0.1942 -0.3217
  182SLPC  H15X20929   3.609   2.845   8.888 -0.4387  0.9336 -1.9726
  182SLPC  H15Y20930   3.600   2.982   9.008 -2.9327  0.3555  1.4947
  182SLPC  C31620931   3.469   3.011   8.855 -0.6732  0.4657 -0.0563
  182SLPC  H16X20932   3.419   3.083   8.923  0.4425  0.5700  0.6861
  182SLPC  H16Y20933   3.394   2.942   8.812  0.1024 -0.0433 -0.6287
  182SLPC  C31720934   3.556   3.057   8.740  0.7484  0.5735 -0.1132
  182SLPC  H17X20935   3.592   2.978   8.671 -0.1284  0.1281 -0.0737
  182SLPC  H17Y20936   3.654   3.099   8.771  1.7422 -1.5659 -0.1895
  182SLPC  C31820937   3.476   3.166   8.666  0.0270 -0.3664  0.0913
  182SLPC  H18X20938   3.449   3.248   8.736  0.6777  2.1773 -2.4853
  182SLPC  H18Y20939   3.389   3.123   8.611  1.6236 -1.2824 -1.8637
  182SLPC  H18Z20940   3.528   3.205   8.576  1.0580 -2.5497 -0.3403
  183SLPC     N20941   6.032   3.738  10.818  0.3323  0.2910 -0.6303
  183SLPC   C1320942   5.893   3.795  10.834  0.4668 -0.1657 -0.1282
  183SLPC  H13A20943   5.818   3.719  10.848  0.6984 -0.8617 -2.2639
  183SLPC  H13B20944   5.887   3.877  10.904  0.4678  1.0665 -1.5209
  183SLPC  H13C20945   5.867   3.828  10.734  0.9877 -0.7787 -0.4739
  183SLPC   C1420946   6.059   3.673  10.952 -0.5548 -0.3065  0.4272
  183SLPC  H14A20947   6.050   3.737  11.039 -1.0393 -2.0120  1.6708
  183SLPC  H14B20948   5.987   3.594  10.965  1.8947 -2.4881  1.8869
  183SLPC  H14C20949   6.153   3.619  10.951 -0.7807 -0.7185 -1.4555
  183SLPC   C1520950   6.120   3.863  10.807 -0.6529 -0.0109  0.7127
  183SLPC  H15A20951   6.089   3.940  10.876  1.1715  0.2065  1.3538
  183SLPC  H15B20952   6.221   3.835  10.833 -1.2808 -0.7576  2.4994
  183SLPC  H15C20953   6.115   3.903  10.707 -1.8566 -0.7699  0.4501
  183SLPC   C1220954   6.038   3.649  10.697 -0.7560  0.4840 -0.0106
  183SLPC  H12A20955   6.135   3.601  10.689 -1.2326 -0.4780 -0.2247
  183SLPC  H12B20956   6.022   3.707  10.607 -1.4789  1.0049  0.4492
  183SLPC   C1120957   5.934   3.528  10.688  0.3765  0.4791  0.2515
  183SLPC  H11A20958   5.936   3.478  10.786 -0.0426  0.8321  0.4439
  183SLPC  H11B20959   5.974   3.466  10.605 -1.8616 -0.1400 -0.4378
  183SLPC     P20960   5.672   3.534  10.731  0.2664 -0.4918  0.4553
  183SLPC   O1320961   5.693   3.556  10.876  0.2781 -0.4007  0.3110
  183SLPC   O1420962   5.558   3.612  10.671  0.3572 -0.0128  0.4740
  183SLPC   O1220963   5.804   3.573  10.650 -0.0375  0.1300  0.0057
  183SLPC   O1120964   5.652   3.375  10.705  0.3903 -0.0386 -0.6154
  183SLPC    C120965   5.586   3.320  10.588 -0.4043 -0.1440  0.0850
  183SLPC    HA20966   5.527   3.227  10.605 -1.5619  0.8791  1.9560
  183SLPC    HB20967   5.508   3.389  10.548 -0.7305  0.6712  1.9996
  183SLPC    C220968   5.691   3.291  10.470 -0.0776 -0.2986 -0.4525
  183SLPC    HS20969   5.781   3.248  10.519  0.2778  1.3394  0.3837
  183SLPC   O2120970   5.721   3.421  10.422  0.3183 -0.1880 -0.0330
  183SLPC   C2120971   5.839   3.434  10.364 -0.1644  0.8964 -0.0494
  183SLPC   O2220972   5.922   3.342  10.361  0.6414  0.2719  0.0970
  183SLPC   C2220973   5.855   3.582  10.323 -0.2396  0.6986 -0.4583
  183SLPC   H2R20974   5.761   3.608  10.269 -0.7697 -3.1337 -1.7039
  183SLPC   H2S20975   5.859   3.645  10.414 -1.8336  2.1002 -1.3110
  183SLPC    C320976   5.624   3.194  10.360 -0.6252  0.2862 -0.0965
  183SLPC    HX20977   5.529   3.247  10.337  0.1120  1.7372  0.0685
  183SLPC    HY20978   5.595   3.098  10.408 -0.9625  0.4511  0.0356
  183SLPC   O3120979   5.703   3.176  10.247 -0.5798 -0.2823 -0.2177
  183SLPC   C3120980   5.806   3.092  10.250 -0.1441 -0.5590  0.6807
  183SLPC   O3220981   5.848   3.028  10.345  0.0994 -0.8222  0.8167
  183SLPC   C3220982   5.860   3.076  10.106  0.4454  0.0250  0.3500
  183SLPC   H2X20983   5.949   3.010  10.116  0.2701 -0.1073  1.1098
  183SLPC   H2Y20984   5.892   3.176  10.072  1.3337  0.0506  1.2431
  183SLPC   C2320985   5.979   3.606  10.237  0.1895 -0.2818 -0.5871
  183SLPC   H3R20986   6.065   3.565  10.293 -1.5484 -0.1843  2.3603
  183SLPC   H3S20987   5.978   3.714  10.209 -0.3552 -0.0740  0.1926
  183SLPC   C2420988   5.958   3.545  10.093  0.3462 -0.2776  0.7383
  183SLPC   H4R20989   5.870   3.589  10.041  0.2948 -3.1003 -1.8641
  183SLPC   H4S20990   5.932   3.439  10.111 -2.6149  0.1733 -0.2724
  183SLPC   C2520991   6.078   3.542   9.996  0.0529 -0.4543  0.1345
  183SLPC   H5R20992   6.161   3.484  10.042 -0.7791 -1.9557 -0.2009
  183SLPC   H5S20993   6.118   3.645   9.986  0.6930 -0.6473  0.6669
  183SLPC   C2620994   6.046   3.487   9.859  0.2594  0.0753  0.2746
  183SLPC   H6R20995   6.016   3.381   9.851  0.6579  0.0850 -1.8831
  183SLPC   H6S20996   6.145   3.482   9.810 -0.7058  0.1396 -1.8149
  183SLPC   C2720997   5.969   3.588   9.778 -0.4147  1.0737 -0.2684
  183SLPC   H7R20998   6.014   3.688   9.796  2.6960 -0.0254 -1.2892
  183SLPC   H7S20999   5.861   3.595   9.802 -0.2437  0.9647  0.5477
  183SLPC   C2821000   5.975   3.554   9.621  0.0286 -0.5532  0.0350
  183SLPC   H8R21001   5.918   3.460   9.606 -1.1923  0.4963 -2.4313
  183SLPC   H8S21002   6.083   3.540   9.598  0.2024  0.1212  0.4378
  183SLPC   C2921003   5.902   3.660   9.543  0.4345 -0.2927 -0.8811
  183SLPC   H9R21004   5.813   3.699   9.594  1.2792 -0.0096  0.4277
  183SLPC  C21021005   5.939   3.709   9.425  0.9203  0.1578  0.0791
  183SLPC  H10R21006   5.862   3.772   9.378  0.6488 -1.4281 -1.7012
  183SLPC  C21121007   6.062   3.668   9.337  0.6734 -0.0281 -0.5318
  183SLPC  H11R21008   6.129   3.591   9.381  0.4667 -0.3421 -0.7588
  183SLPC  H11S21009   6.129   3.757   9.341  1.3501 -0.5685  0.6246
  183SLPC  C21221010   6.024   3.630   9.194  0.1637 -0.3371  0.0954
  183SLPC  H12R21011   5.927   3.674   9.166 -1.2710 -3.1063  0.3836
  183SLPC  C21321012   6.094   3.559   9.103 -0.4376  0.0639  0.0846
  183SLPC  H13R21013   6.051   3.555   9.002 -2.1439  0.4146  0.7513
  183SLPC  C21421014   6.228   3.501   9.128 -0.1933  0.2067 -0.1164
  183SLPC  H14R21015   6.246   3.491   9.237  0.8805  1.0901 -0.1957
  183SLPC  H14S21016   6.311   3.561   9.084 -1.1574  0.4932 -1.6284
  183SLPC  C21521017   6.236   3.357   9.074 -0.1349 -0.3414 -0.2051
  183SLPC  H15R21018   6.183   3.357   8.977  0.5113 -0.7850 -0.5610
  183SLPC  H15S21019   6.199   3.289   9.154  1.3746  0.6820  1.4364
  183SLPC  C21621020   6.385   3.316   9.059 -0.3610 -0.5742  0.4835
  183SLPC  H16R21021   6.438   3.305   9.156 -2.0246 -1.8533  1.3020
  183SLPC  H16S21022   6.440   3.394   9.002 -0.1896  0.2534  1.7385
  183SLPC  C21721023   6.387   3.188   8.979  0.3323  0.7584  0.2384
  183SLPC  H17R21024   6.348   3.201   8.876 -3.0713 -1.2113  1.1262
  183SLPC  H17S21025   6.318   3.117   9.028 -0.9372  0.6657 -1.5845
  183SLPC  C21821026   6.524   3.129   8.964  1.3975  0.5861 -0.1816
  183SLPC  H18R21027   6.511   3.033   8.908  1.0304  0.8293 -0.5155
  183SLPC  H18S21028   6.577   3.105   9.059  2.4842 -2.6652 -1.4745
  183SLPC  H18T21029   6.588   3.194   8.901  0.5308  2.0797  0.4269
  183SLPC   C3321030   5.750   3.018  10.011 -0.5914 -0.4335  0.4145
  183SLPC   H3X21031   5.667   3.092  10.006  0.5058  0.7960 -0.4513
  183SLPC   H3Y21032   5.721   2.924  10.062 -3.3751  0.2773  0.2898
  183SLPC   C3421033   5.821   2.982   9.878  0.1100  0.1400  0.1054
  183SLPC   H4X21034   5.881   2.893   9.904 -0.1278  0.0282  0.2728
  183SLPC   H4Y21035   5.896   3.060   9.852  0.4325  0.0463  0.7338
  183SLPC   C3521036   5.731   2.928   9.767 -0.6935  0.3720  0.3962
  183SLPC   H5X21037   5.676   3.013   9.721  2.8183  1.5056 -2.1844
  183SLPC   H5Y21038   5.647   2.859   9.792 -0.7301  0.4460  0.4780
  183SLPC   C3621039   5.820   2.865   9.659  1.4162  0.5482 -0.0389
  183SLPC   H6X21040   5.854   2.760   9.675  1.0742  0.1223 -1.8731
  183SLPC   H6Y21041   5.918   2.917   9.649  1.2810  1.5127  2.8004
  183SLPC   C3721042   5.740   2.840   9.524 -0.2988  0.6425  0.0655
  183SLPC   H7X21043   5.716   2.937   9.475 -1.0619 -0.0437 -0.9424
  183SLPC   H7Y21044   5.635   2.807   9.539 -0.1184  0.4473  0.9733
  183SLPC   C3821045   5.796   2.734   9.427  0.5456  1.0758 -0.3164
  183SLPC   H8X21046   5.724   2.705   9.348  1.4026 -1.0652 -0.3641
  183SLPC   H8Y21047   5.818   2.636   9.473 -0.5274  1.5678  1.3145
  183SLPC   C3921048   5.923   2.771   9.346  1.1008  0.6653 -0.4630
  183SLPC   H9X21049   6.003   2.785   9.421  1.5448  1.6387 -1.0842
  183SLPC   H9Y21050   5.894   2.869   9.301  0.1208  0.8040  0.4416
  183SLPC  C31021051   5.954   2.684   9.230 -0.5789 -0.0875 -0.1709
  183SLPC  H10X21052   5.885   2.700   9.144 -0.7839  2.1651  0.3691
  183SLPC  H10Y21053   5.942   2.583   9.275  0.9734  0.0646  0.6251
  183SLPC  C31121054   6.099   2.700   9.180 -0.3723  0.5375  0.2452
  183SLPC  H11X21055   6.172   2.668   9.258 -1.7551 -0.9747  0.9861
  183SLPC  H11Y21056   6.122   2.807   9.163  1.0600  0.1975 -0.1341
  183SLPC  C31221057   6.125   2.604   9.054  0.3299  0.2054  0.4775
  183SLPC  H12X21058   6.052   2.624   8.973  0.5299 -1.5294 -0.1833
  183SLPC  H12Y21059   6.099   2.498   9.077 -1.2222  0.5784  0.5869
  183SLPC  C31321060   6.264   2.608   8.997  0.4553 -0.1325  0.2331
  183SLPC  H13X21061   6.345   2.588   9.071 -2.2118 -1.3288  3.0105
  183SLPC  H13Y21062   6.282   2.706   8.949  0.6427 -0.1075  0.3526
  183SLPC  C31421063   6.297   2.505   8.881  0.0681 -1.1273  0.1621
  183SLPC  H14X21064   6.403   2.534   8.864  0.0215 -0.7650  0.4572
  183SLPC  H14Y21065   6.221   2.524   8.803  0.8143  1.5627 -0.0248
  183SLPC  C31521066   6.303   2.361   8.928 -0.5158  0.4529 -0.3278
  183SLPC  H15X21067   6.200   2.320   8.935 -0.9915  1.5899 -0.4978
  183SLPC  H15Y21068   6.357   2.351   9.024  0.9929  2.0452 -0.9354
  183SLPC  C31621069   6.394   2.272   8.841 -0.0581  0.3945  0.2167
  183SLPC  H16X21070   6.422   2.179   8.896  2.3321  0.1179 -1.3235
  183SLPC  H16Y21071   6.487   2.318   8.801  0.1549 -0.6079 -0.4893
  183SLPC  C31721072   6.333   2.221   8.714  0.2001 -0.4134 -0.4690
  183SLPC  H17X21073   6.328   2.307   8.644  0.8179  0.1161  0.1227
  183SLPC  H17Y21074   6.225   2.206   8.731  0.1991 -1.2340 -1.1445
  183SLPC  C31821075   6.416   2.113   8.653 -0.1417 -0.3600  0.5508
  183SLPC  H18X21076   6.522   2.147   8.647 -0.4330  0.8990  1.9019
  183SLPC  H18Y21077   6.375   2.082   8.555 -1.7965  1.5545  0.5719
  183SLPC  H18Z21078   6.421   2.019   8.712 -2.3055  0.4924  2.2408
  184SLPC     N21079   0.839   6.657  10.443 -0.1858  0.0541 -0.7012
  184SLPC   C1321080   0.983   6.679  10.398  0.2924 -0.6843  0.2495
  184SLPC  H13A21081   1.048   6.596  10.423 -1.1742 -2.0267 -0.2172
  184SLPC  H13B21082   0.990   6.699  10.292 -1.3223 -0.0032  0.2454
  184SLPC  H13C21083   1.017   6.771  10.442 -1.8076  1.8793 -2.9861
  184SLPC   C1421084   0.838   6.701  10.589  0.3848  0.0853  0.2035
  184SLPC  H14A21085   0.744   6.667  10.631 -0.7542 -0.5012 -2.5878
  184SLPC  H14B21086   0.926   6.674  10.645  1.7360  0.5783 -1.5925
  184SLPC  H14C21087   0.839   6.809  10.591  1.9824  0.0876  0.6692
  184SLPC   C1521088   0.804   6.514  10.441 -0.4433  0.1210  0.0657
  184SLPC  H15A21089   0.791   6.473  10.342 -2.7112  0.9752 -0.0466
  184SLPC  H15B21090   0.888   6.460  10.482  0.0101  1.8594  1.5957
  184SLPC  H15C21091   0.717   6.484  10.497  0.0509 -0.6964  0.4079
  184SLPC   C1221092   0.742   6.733  10.361  0.1907  0.1505 -0.6886
  184SLPC  H12A21093   0.647   6.711  10.406  0.4127  1.8030  0.7212
  184SLPC  H12B21094   0.732   6.691  10.262 -0.6674 -1.6034  0.1094
  184SLPC   C1121095   0.762   6.889  10.347  0.3004  0.8574 -0.1826
  184SLPC  H11A21096   0.684   6.930  10.279 -1.3368 -1.0338  0.4363
  184SLPC  H11B21097   0.856   6.912  10.293  1.8485  0.9598  2.3702
  184SLPC     P21098   0.621   7.012  10.534  0.1550  0.0308  0.3542
  184SLPC   O1321099   0.518   6.906  10.561  0.1983 -0.3500 -0.4053
  184SLPC   O1421100   0.659   7.095  10.654 -0.9666  0.7710 -0.0266
  184SLPC   O1221101   0.751   6.955  10.474 -0.0852  0.4097 -0.2016
  184SLPC   O1121102   0.573   7.107  10.416  0.3534  0.3283 -0.8070
  184SLPC    C121103   0.469   7.195  10.441 -0.1161 -0.0893  0.6851
  184SLPC    HA21104   0.376   7.141  10.468 -0.0467  0.4554  2.0966
  184SLPC    HB21105   0.496   7.262  10.525  2.6215  0.2681 -0.3635
  184SLPC    C221106   0.456   7.282  10.317 -0.3146  0.6293  0.1465
  184SLPC    HS21107   0.389   7.367  10.343  1.9133  1.6332  3.0235
  184SLPC   O2121108   0.418   7.207  10.200 -0.1378 -0.2989 -0.3704
  184SLPC   C2121109   0.285   7.184  10.201  0.0522  0.2535 -0.3653
  184SLPC   O2221110   0.208   7.208  10.294  0.4963 -0.1828 -0.0986
  184SLPC   C2221111   0.248   7.145  10.059  0.3431 -0.1406 -1.1764
  184SLPC   H2R21112   0.296   7.210   9.983  1.4637 -0.3683 -0.6853
  184SLPC   H2S21113   0.284   7.041  10.050 -1.1371 -0.6456 -1.5443
  184SLPC    C321114   0.601   7.345  10.300  0.5079  0.3504 -0.7935
  184SLPC    HX21115   0.666   7.258  10.278  0.5989  0.0553  0.5607
  184SLPC    HY21116   0.637   7.389  10.395  0.5912  0.2379 -0.7723
  184SLPC   O3121117   0.615   7.431  10.191 -0.4871 -1.1443 -0.0505
  184SLPC   C3121118   0.551   7.542  10.204 -0.4067 -0.1741 -0.0365
  184SLPC   O3221119   0.477   7.583  10.293  0.0226  0.3496  0.1717
  184SLPC   C3221120   0.574   7.628  10.077  0.1108  0.3932  0.0993
  184SLPC   H2X21121   0.511   7.719  10.083 -0.6349  0.0294 -1.6187
  184SLPC   H2Y21122   0.537   7.573   9.988 -2.0394  0.9096  0.6310
  184SLPC   C2321123   0.090   7.151  10.037 -0.3893  0.4841  0.2806
  184SLPC   H3R21124   0.044   7.245  10.075 -2.8187 -0.0434 -1.1534
  184SLPC   H3S21125   0.045   7.069  10.096  0.4098  0.3813  0.7600
  184SLPC   C2421126   0.057   7.120   9.894  0.0016 -0.7536  0.3634
  184SLPC   H4R21127   0.080   7.209   9.832 -1.1671  0.2871  1.3855
  184SLPC   H4S21128  -0.054   7.118   9.891 -0.0401  0.5916  0.4303
  184SLPC   C2521129   0.112   6.994   9.844 -0.6018  0.4527 -0.5029
  184SLPC   H5R21130   0.064   6.903   9.886  1.6895 -0.9952 -0.8370
  184SLPC   H5S21131   0.219   6.987   9.874 -0.7827  0.0013  0.0482
  184SLPC   C2621132   0.113   6.981   9.690 -0.5504  0.0512 -0.5638
  184SLPC   H6R21133   0.127   6.873   9.667 -2.6646 -0.3401 -0.2498
  184SLPC   H6S21134   0.200   7.036   9.648  0.0231  0.5752  1.2218
  184SLPC   C2721135  -0.011   7.029   9.613 -0.0257  0.1306  0.2120
  184SLPC   H7R21136   0.015   7.032   9.505  3.2184  3.1363  0.9021
  184SLPC   H7S21137  -0.038   7.133   9.642 -1.0826 -0.0324 -0.1464
  184SLPC   C2821138  -0.140   6.949   9.653  0.3803  0.0185  0.6532
  184SLPC   H8R21139  -0.136   6.959   9.764 -2.2977  1.5484  0.7029
  184SLPC   H8S21140  -0.130   6.840   9.633 -1.3841  0.0618 -0.6742
  184SLPC   C2921141  -0.272   7.010   9.626  0.0074  0.2345  0.7297
  184SLPC   H9R21142  -0.338   7.040   9.709 -2.3778  1.4310 -1.4733
  184SLPC  C21021143  -0.317   7.027   9.496  0.2220  0.4912  0.5418
  184SLPC  H10R21144  -0.410   7.083   9.477  0.7455  0.7988 -1.3441
  184SLPC  C21121145  -0.248   6.994   9.360  0.3201 -0.8887 -0.4617
  184SLPC  H11R21146  -0.143   7.030   9.357 -0.1170  0.4013 -1.1075
  184SLPC  H11S21147  -0.302   7.063   9.290 -0.3700  0.7090  1.5376
  184SLPC  C21221148  -0.260   6.851   9.336 -0.7308  0.8588 -0.2389
  184SLPC  H12R21149  -0.264   6.786   9.424  0.4322  0.5273 -0.4034
  184SLPC  C21321150  -0.266   6.796   9.209 -0.3995  0.3753  0.5280
  184SLPC  H13R21151  -0.276   6.687   9.195 -1.5171  0.5655 -0.4062
  184SLPC  C21421152  -0.278   6.869   9.077 -0.0590 -0.2667 -0.1172
  184SLPC  H14R21153  -0.191   6.852   9.009  1.7641  3.5857  0.9478
  184SLPC  H14S21154  -0.291   6.979   9.090  1.8676 -0.2066  1.8683
  184SLPC  C21521155  -0.397   6.825   8.988  0.6549  0.0572 -0.6316
  184SLPC  H15R21156  -0.485   6.852   9.050  0.0943 -3.0695  0.1070
  184SLPC  H15S21157  -0.390   6.714   8.980 -1.5022 -0.1252 -0.6815
  184SLPC  C21621158  -0.412   6.898   8.856  0.3747 -0.0451 -0.5704
  184SLPC  H16R21159  -0.385   7.005   8.866  2.8817 -0.4370 -2.2154
  184SLPC  H16S21160  -0.520   6.910   8.834  0.3118  2.1113  0.6034
  184SLPC  C21721161  -0.361   6.840   8.725 -0.2718 -0.1597  0.5071
  184SLPC  H17R21162  -0.428   6.757   8.693 -3.1506  2.4347 -0.7723
  184SLPC  H17S21163  -0.255   6.813   8.741  0.1011  1.7673  1.6519
  184SLPC  C21821164  -0.371   6.928   8.595  0.1174  0.1260 -0.6405
  184SLPC  H18R21165  -0.296   7.011   8.595 -1.0955  1.2918  1.0863
  184SLPC  H18S21166  -0.473   6.971   8.590  0.0124 -0.2398 -2.1629
  184SLPC  H18T21167  -0.358   6.853   8.515  0.4974 -0.7959  0.2563
  184SLPC   C3321168   0.719   7.672  10.050  0.1256  0.2146  0.5227
  184SLPC   H3X21169   0.792   7.590  10.062  0.1480 -0.0213 -1.0576
  184SLPC   H3Y21170   0.738   7.754  10.123  2.4353  2.3053 -2.1870
  184SLPC   C3421171   0.750   7.736   9.913  0.4898 -0.6080 -0.6098
  184SLPC   H4X21172   0.849   7.783   9.930  0.6537 -0.2575 -2.3002
  184SLPC   H4Y21173   0.686   7.825   9.890  1.8264  0.4237 -0.4642
  184SLPC   C3521174   0.758   7.632   9.799  0.2407 -0.1555 -0.2156
  184SLPC   H5X21175   0.652   7.600   9.787 -0.1120  0.7365  0.3932
  184SLPC   H5Y21176   0.821   7.544   9.824  0.7493 -0.0665 -1.1661
  184SLPC   C3621177   0.811   7.690   9.668 -0.1070  0.7519  0.1157
  184SLPC   H6X21178   0.894   7.760   9.693  0.6855  0.2330 -0.9623
  184SLPC   H6Y21179   0.728   7.747   9.623  1.2025  1.9070 -0.9250
  184SLPC   C3721180   0.859   7.590   9.570  0.2029  0.2000  0.5337
  184SLPC   H7X21181   0.785   7.507   9.574  1.4754 -0.9619  0.7564
  184SLPC   H7Y21182   0.954   7.543   9.603  0.0348 -0.3015  0.3149
  184SLPC   C3821183   0.877   7.634   9.426 -0.2632 -0.6637  0.5912
  184SLPC   H8X21184   0.931   7.730   9.417 -0.2408 -0.7409 -0.1013
  184SLPC   H8Y21185   0.777   7.665   9.388  0.6850 -0.2241 -1.6785
  184SLPC   C3921186   0.963   7.531   9.343 -0.2701  0.7186 -0.1013
  184SLPC   H9X21187   0.926   7.432   9.379  0.7456 -0.3613 -1.8901
  184SLPC   H9Y21188   1.069   7.541   9.374 -0.6573  0.0631  1.5723
  184SLPC  C31021189   0.936   7.538   9.203  0.0729 -1.1495  0.2342
  184SLPC  H10X21190   0.827   7.548   9.182 -0.0011 -1.5041  0.4388
  184SLPC  H10Y21191   0.963   7.442   9.155  1.4314 -0.7652  0.2055
  184SLPC  C31121192   1.004   7.658   9.140  0.4543  0.5914 -0.3198
  184SLPC  H11X21193   1.114   7.652   9.152  0.7834 -0.0311 -3.0259
  184SLPC  H11Y21194   0.988   7.758   9.187 -0.1831 -0.1383  1.0482
  184SLPC  C31221195   1.001   7.663   8.982 -0.1261  0.5949  0.3088
  184SLPC  H12X21196   0.900   7.691   8.946 -0.5018  0.4537  1.2425
  184SLPC  H12Y21197   1.035   7.567   8.937  1.2242  0.2804  1.8885
  184SLPC  C31321198   1.092   7.765   8.922 -0.8534  0.0851 -0.6910
  184SLPC  H13X21199   1.067   7.774   8.815  0.6924 -1.8988 -1.2829
  184SLPC  H13Y21200   1.198   7.733   8.937  0.0792  3.0674 -0.2895
  184SLPC  C31421201   1.089   7.899   8.993  0.7032  0.2538  0.3042
  184SLPC  H14X21202   1.153   7.902   9.084  3.0821 -2.6318 -1.1014
  184SLPC  H14Y21203   0.979   7.909   9.005  0.1293 -1.6544 -2.3757
  184SLPC  C31521204   1.132   8.017   8.916  0.1066  0.2729  0.7669
  184SLPC  H15X21205   1.102   8.001   8.810 -1.8458  1.7193  1.0540
  184SLPC  H15Y21206   1.242   8.032   8.906  0.0574 -0.4980 -1.5590
  184SLPC  C31621207   1.078   8.147   8.967 -0.2280  0.6931 -0.5144
  184SLPC  H16X21208   1.094   8.146   9.077 -0.1653 -1.3803 -0.5060
  184SLPC  H16Y21209   0.969   8.145   8.946 -0.1540  1.7286 -1.0430
  184SLPC  C31721210   1.155   8.265   8.908 -0.0797  0.5681 -1.5988
  184SLPC  H17X21211   1.262   8.247   8.932 -0.4785  0.6413  0.3281
  184SLPC  H17Y21212   1.124   8.351   8.970 -2.6831 -1.0849 -0.4265
  184SLPC  C31821213   1.123   8.298   8.766 -0.2436 -0.3173 -0.1633
  184SLPC  H18X21214   1.151   8.219   8.694 -0.5126 -0.1998 -0.3986
  184SLPC  H18Y21215   1.170   8.395   8.741  4.3190 -2.9195 -2.9584
  184SLPC  H18Z21216   1.013   8.314   8.761 -0.3285  0.7229  2.9211
  185SLPC     N21217   6.714   2.787   6.321  0.7699  0.3958  0.5015
  185SLPC   C1321218   6.646   2.884   6.231  0.2540 -0.1817 -0.0715
  185SLPC  H13A21219   6.639   2.844   6.130  1.8372 -1.1800  0.1769
  185SLPC  H13B21220   6.547   2.901   6.272 -0.0039  0.3003 -0.8693
  185SLPC  H13C21221   6.706   2.973   6.222  0.4021 -0.3104 -0.4042
  185SLPC   C1421222   6.718   2.852   6.456 -0.0120 -0.0568  0.2684
  185SLPC  H14A21223   6.623   2.827   6.503 -1.3036  0.5855 -1.8662
  185SLPC  H14B21224   6.797   2.812   6.518  1.4286  1.3576 -0.6034
  185SLPC  H14C21225   6.732   2.958   6.449  0.0942 -0.0540  0.4938
  185SLPC   C1521226   6.854   2.771   6.271 -0.2134 -0.3083  0.2649
  185SLPC  H15A21227   6.869   2.718   6.178  4.5156  1.7819 -0.4965
  185SLPC  H15B21228   6.898   2.866   6.245 -0.6042  0.0744  0.9569
  185SLPC  H15C21229   6.925   2.721   6.336 -0.8662 -0.5098  0.8411
  185SLPC   C1221230   6.657   2.649   6.328 -0.3849  1.2363 -0.0312
  185SLPC  H12A21231   6.709   2.595   6.406  0.5492  0.7579 -0.9577
  185SLPC  H12B21232   6.689   2.603   6.235 -0.8268  0.2416  0.2938
  185SLPC   C1121233   6.510   2.640   6.357 -0.0705  0.1076  0.4228
  185SLPC  H11A21234   6.490   2.537   6.394 -1.3783  0.4673  0.7733
  185SLPC  H11B21235   6.449   2.631   6.264  1.8964 -0.3172 -0.8750
  185SLPC     P21236   6.328   2.764   6.494 -0.2162 -0.0079  0.0045
  185SLPC   O1321237   6.315   2.914   6.487 -0.0225  0.3352  0.4095
  185SLPC   O1421238   6.241   2.686   6.407 -0.1615  0.4213 -0.2059
  185SLPC   O1221239   6.474   2.733   6.459 -0.1016  0.4800 -0.1487
  185SLPC   O1121240   6.324   2.722   6.648 -0.5398 -0.6442  0.6081
  185SLPC    C121241   6.432   2.763   6.739  0.1817  0.3685  0.6758
  185SLPC    HA21242   6.511   2.689   6.717 -1.2472 -1.0356  0.0668
  185SLPC    HB21243   6.479   2.859   6.711  0.8589  0.0484  0.7004
  185SLPC    C221244   6.392   2.762   6.889 -0.4796 -0.1973  0.2553
  185SLPC    HS21245   6.485   2.775   6.949 -1.0242  0.2147  1.0286
  185SLPC   O2121246   6.318   2.644   6.915 -0.1303 -0.7603  0.2733
  185SLPC   C2121247   6.386   2.538   6.954 -0.3831 -0.2921 -0.3052
  185SLPC   O2221248   6.507   2.520   6.965 -0.1507  0.3500 -0.2658
  185SLPC   C2221249   6.286   2.429   6.999 -0.8049 -0.0976  1.0416
  185SLPC   H2R21250   6.205   2.435   6.923  0.3691 -2.7164 -0.5575
  185SLPC   H2S21251   6.333   2.328   6.995 -1.0238 -0.1501 -0.6415
  185SLPC    C321252   6.282   2.875   6.922  0.2384  0.3257  0.3124
  185SLPC    HX21253   6.185   2.863   6.869 -0.1735  2.3674  0.5140
  185SLPC    HY21254   6.322   2.971   6.882  0.5117  1.1600  2.4538
  185SLPC   O3121255   6.258   2.887   7.066  0.3775 -0.0984  0.3435
  185SLPC   C3121256   6.167   2.803   7.116 -0.7541  0.3019 -0.6915
  185SLPC   O3221257   6.091   2.733   7.051  0.0293  0.4832  0.0888
  185SLPC   C3221258   6.172   2.801   7.273 -0.8372  0.1983  0.1005
  185SLPC   H2X21259   6.164   2.694   7.300 -0.9231 -0.6428 -2.9260
  185SLPC   H2Y21260   6.087   2.861   7.314 -0.3368  2.5724 -2.0844
  185SLPC   C2321261   6.243   2.436   7.150  0.3973 -0.5888  0.2009
  185SLPC   H3R21262   6.190   2.343   7.180  0.1594 -0.8581 -1.0043
  185SLPC   H3S21263   6.166   2.516   7.146  0.9318 -0.0878 -0.1522
  185SLPC   C2421264   6.359   2.463   7.248  0.3465  0.8487 -0.2027
  185SLPC   H4R21265   6.390   2.569   7.259  1.4743  0.6733 -1.4240
  185SLPC   H4S21266   6.445   2.398   7.220 -0.1846  0.2863 -0.5315
  185SLPC   C2521267   6.309   2.422   7.390  0.3406 -0.8772 -0.5877
  185SLPC   H5R21268   6.297   2.313   7.405 -1.9546 -0.7893 -1.3102
  185SLPC   H5S21269   6.209   2.468   7.408  1.4098  0.9841  1.0152
  185SLPC   C2621270   6.396   2.480   7.504  0.5249 -0.9904  0.5778
  185SLPC   H6R21271   6.408   2.590   7.492 -0.5079 -0.9995 -0.8306
  185SLPC   H6S21272   6.496   2.435   7.487  1.6266  1.3982  0.2033
  185SLPC   C2721273   6.341   2.457   7.634 -0.3700 -0.2096 -0.3596
  185SLPC   H7R21274   6.334   2.349   7.662  0.5976  0.2223  1.7170
  185SLPC   H7S21275   6.244   2.501   7.665  1.0181  1.0152  2.6007
  185SLPC   C2821276   6.439   2.522   7.735  0.7427 -0.2685 -0.4183
  185SLPC   H8R21277   6.440   2.633   7.722  0.3385 -0.3595 -1.3048
  185SLPC   H8S21278   6.545   2.495   7.716  0.2967 -0.3428 -3.1408
  185SLPC   C2921279   6.397   2.478   7.875 -0.0013  0.8056  0.0121
  185SLPC   H9R21280   6.412   2.372   7.901 -0.0275  0.2875 -1.9466
  185SLPC  C21021281   6.346   2.558   7.968  0.4609  0.0725 -0.1477
  185SLPC  H10R21282   6.321   2.514   8.065 -0.8400  2.2447  0.5772
  185SLPC  C21121283   6.311   2.707   7.946 -0.5123 -0.0783 -0.0418
  185SLPC  H11R21284   6.247   2.724   7.857 -1.6255  0.5526  0.8534
  185SLPC  H11S21285   6.406   2.758   7.920 -0.8425  0.1334 -0.8600
  185SLPC  C21221286   6.268   2.775   8.073 -0.5388  0.7509  0.3040
  185SLPC  H12R21287   6.356   2.807   8.131  0.8782 -0.6775 -0.9755
  185SLPC  C21321288   6.153   2.822   8.116  0.2509 -1.5742  0.1269
  185SLPC  H13R21289   6.144   2.876   8.212  0.6510 -0.1514 -0.5943
  185SLPC  C21421290   6.018   2.814   8.050  0.2612  0.3478 -0.0734
  185SLPC  H14R21291   6.032   2.792   7.942 -2.0938 -1.4520 -0.0728
  185SLPC  H14S21292   5.969   2.913   8.060  1.5387  0.7971  2.4732
  185SLPC  C21521293   5.932   2.704   8.111 -0.3392  0.3010 -0.0278
  185SLPC  H15R21294   6.003   2.619   8.107  0.3335  0.8824 -1.2357
  185SLPC  H15S21295   5.846   2.684   8.043  0.0634 -1.8133  0.0055
  185SLPC  C21621296   5.887   2.731   8.257  0.8205 -0.6392  0.3009
  185SLPC  H16R21297   5.849   2.835   8.267 -0.3310 -1.2418  3.4849
  185SLPC  H16S21298   5.974   2.716   8.325 -1.8113 -0.1666  4.0485
  185SLPC  C21721299   5.777   2.633   8.303 -0.2295  0.2165  0.2670
  185SLPC  H17R21300   5.684   2.633   8.243 -0.4910 -1.3674  0.6121
  185SLPC  H17S21301   5.754   2.666   8.406  1.4421 -1.2077  1.1401
  185SLPC  C21821302   5.842   2.493   8.313  0.3382  0.3083 -0.7672
  185SLPC  H18R21303   5.811   2.416   8.240 -0.2637 -0.5155  0.3257
  185SLPC  H18S21304   5.792   2.447   8.401  1.4965  1.5513  0.5893
  185SLPC  H18T21305   5.951   2.486   8.336  0.3155 -1.6707 -1.0551
  185SLPC   C3321306   6.308   2.848   7.329 -0.0672  0.3050 -0.5699
  185SLPC   H3X21307   6.342   2.944   7.284  1.0435  0.1021 -0.1963
  185SLPC   H3Y21308   6.388   2.772   7.315  0.6537  0.4467  2.1586
  185SLPC   C3421309   6.302   2.872   7.486  0.7823 -0.4803  0.0767
  185SLPC   H4X21310   6.405   2.888   7.526  1.3029 -1.5990 -0.7664
  185SLPC   H4Y21311   6.262   2.781   7.536 -3.4201  0.9329 -0.3013
  185SLPC   C3521312   6.215   2.999   7.521 -0.3001 -0.0278 -0.5763
  185SLPC   H5X21313   6.114   2.972   7.486 -0.2718  0.4806 -1.0594
  185SLPC   H5Y21314   6.250   3.094   7.476 -0.6702  0.6909  0.6227
  185SLPC   C3621315   6.232   3.017   7.671 -0.4264 -0.4028  0.5350
  185SLPC   H6X21316   6.335   3.056   7.684 -0.1838 -0.3523 -1.3066
  185SLPC   H6Y21317   6.221   2.920   7.724  0.9252 -0.5497  0.5896
  185SLPC   C3721318   6.146   3.126   7.745  0.5842 -0.0943  0.0092
  185SLPC   H7X21319   6.041   3.090   7.754  0.5354  0.2628  0.9433
  185SLPC   H7Y21320   6.144   3.220   7.686 -0.0869 -0.7592 -1.0695
  185SLPC   C3821321   6.188   3.157   7.887 -0.4838 -0.4832 -0.3832
  185SLPC   H8X21322   6.295   3.185   7.895 -0.8726  0.7472  0.8544
  185SLPC   H8Y21323   6.176   3.064   7.947  0.9935 -1.8108 -2.0372
  185SLPC   C3921324   6.093   3.270   7.937  0.3630 -0.1679 -0.2600
  185SLPC   H9X21325   5.986   3.242   7.929  1.0451 -2.6164 -1.9957
  185SLPC   H9Y21326   6.107   3.360   7.873 -1.9014  0.1354 -0.4107
  185SLPC  C31021327   6.123   3.316   8.079  0.0762  0.0492 -0.8185
  185SLPC  H10X21328   6.061   3.401   8.116 -1.7220 -1.0058 -1.2878
  185SLPC  H10Y21329   6.231   3.340   8.080  1.0594 -3.7973  1.2376
  185SLPC  C31121330   6.115   3.204   8.187  0.6394 -0.1013  0.8599
  185SLPC  H11X21331   6.211   3.151   8.171  0.0975 -0.5579 -1.1880
  185SLPC  H11Y21332   6.027   3.141   8.163  1.1752 -1.0144  1.2476
  185SLPC  C31221333   6.099   3.259   8.333 -0.3425  0.2283  0.3321
  185SLPC  H12X21334   6.015   3.330   8.339  0.1176  0.9669 -1.3479
  185SLPC  H12Y21335   6.188   3.324   8.347  0.3481 -0.5302 -0.3821
  185SLPC  C31321336   6.095   3.149   8.438 -0.3361  0.3304 -0.4899
  185SLPC  H13X21337   6.193   3.097   8.447 -1.3891 -1.6986 -0.0651
  185SLPC  H13Y21338   6.015   3.077   8.410  0.7910 -0.7208 -1.1069
  185SLPC  C31421339   6.053   3.205   8.583 -0.4321  0.1600 -0.1993
  185SLPC  H14X21340   5.960   3.265   8.578  1.8499  3.9577 -0.7401
  185SLPC  H14Y21341   6.132   3.274   8.618 -0.5018 -0.0147  0.3123
  185SLPC  C31521342   6.041   3.085   8.679 -0.3169 -0.2304 -0.2977
  185SLPC  H15X21343   6.146   3.050   8.695 -0.3874 -0.7070 -0.8176
  185SLPC  H15Y21344   5.978   3.008   8.630 -1.9918  2.3140 -2.4325
  185SLPC  C31621345   5.992   3.120   8.822 -0.1061 -0.1063  0.6575
  185SLPC  H16X21346   5.893   3.170   8.816 -1.8386 -3.3116  0.5673
  185SLPC  H16Y21347   6.062   3.184   8.881  0.4523  0.2341 -0.3467
  185SLPC  C31721348   5.955   3.000   8.905  0.3039  0.2059  0.3201
  185SLPC  H17X21349   6.034   2.922   8.895 -0.0379 -0.2167  0.8257
  185SLPC  H17Y21350   5.861   2.957   8.864  0.4611  0.8631 -0.7543
  185SLPC  C31821351   5.957   3.021   9.060  0.0280 -0.7580  0.3581
  185SLPC  H18X21352   6.053   2.988   9.102 -0.0140 -1.1129  0.1764
  185SLPC  H18Y21353   5.869   2.974   9.110 -1.2432 -1.2056 -2.1162
  185SLPC  H18Z21354   5.946   3.129   9.083  0.1066 -1.2729  3.1004
  186SLPC     N21355   0.472   5.789   5.957  0.3943 -0.6371 -0.2442
  186SLPC   C1321356   0.350   5.693   5.947 -0.1079  0.4522  1.2048
  186SLPC  H13A21357   0.260   5.752   5.950 -0.1221  0.7155 -1.5543
  186SLPC  H13B21358   0.342   5.638   5.854 -1.4340  1.2105  0.8503
  186SLPC  H13C21359   0.343   5.628   6.033  0.6416 -1.1199  0.1435
  186SLPC   C1421360   0.487   5.886   5.841 -0.1361 -0.2986  0.8140
  186SLPC  H14A21361   0.576   5.945   5.856 -1.3827  1.7018  0.8474
  186SLPC  H14B21362   0.499   5.823   5.754 -0.6493  0.8275 -0.1027
  186SLPC  H14C21363   0.399   5.947   5.827  0.0061 -0.2641  0.0107
  186SLPC   C1521364   0.599   5.707   5.946 -0.1283  0.2510 -0.4233
  186SLPC  H15A21365   0.591   5.644   5.859 -1.0520 -0.2297  0.0048
  186SLPC  H15B21366   0.681   5.776   5.932 -0.2482  0.7041  0.9039
  186SLPC  H15C21367   0.616   5.638   6.028  0.8356  0.4045 -0.4814
  186SLPC   C1221368   0.467   5.857   6.087 -0.4088 -0.3078  0.1670
  186SLPC  H12A21369   0.396   5.938   6.084 -0.0346  0.0610  0.9526
  186SLPC  H12B21370   0.562   5.906   6.103 -0.1605 -1.0247  0.9876
  186SLPC   C1121371   0.444   5.780   6.217  0.5119 -0.3271  0.3552
  186SLPC  H11A21372   0.468   5.861   6.290 -0.4687  0.4605 -0.1825
  186SLPC  H11B21373   0.506   5.689   6.230 -0.6940 -0.8815  2.6950
  186SLPC     P21374   0.248   5.641   6.312  0.2379 -0.0456  0.0169
  186SLPC   O1321375   0.120   5.674   6.372 -0.3111  0.5809 -0.5961
  186SLPC   O1421376   0.255   5.513   6.227  0.1371 -0.0234  0.6099
  186SLPC   O1221377   0.299   5.754   6.225 -0.3876 -0.6553 -0.0199
  186SLPC   O1121378   0.352   5.630   6.433  0.2302  0.4087  0.1391
  186SLPC    C121379   0.367   5.530   6.535  0.1279  0.6630 -0.3657
  186SLPC    HA21380   0.345   5.435   6.481 -0.2045  0.3699  0.2780
  186SLPC    HB21381   0.465   5.532   6.587 -0.9533  0.9916  1.7756
  186SLPC    C221382   0.258   5.540   6.636 -0.1296  0.3031 -1.6922
  186SLPC    HS21383   0.160   5.542   6.584 -0.3462 -1.1257 -1.3585
  186SLPC   O2121384   0.282   5.658   6.714  0.7755 -0.3538  0.1882
  186SLPC   C2121385   0.177   5.716   6.772 -0.3574  0.2700  1.0450
  186SLPC   O2221386   0.061   5.683   6.757 -0.2328 -0.1274 -0.6285
  186SLPC   C2221387   0.224   5.833   6.854  0.2217  0.4972 -0.4797
  186SLPC   H2R21388   0.306   5.879   6.795  1.7469 -1.0824  0.3286
  186SLPC   H2S21389   0.141   5.907   6.851 -0.0652  0.1526 -1.7880
  186SLPC    C321390   0.261   5.416   6.730 -0.0330 -0.9287  0.2229
  186SLPC    HX21391   0.361   5.423   6.777 -0.0113  1.7152 -0.0452
  186SLPC    HY21392   0.257   5.327   6.663 -0.2356 -0.0175 -1.0126
  186SLPC   O3121393   0.165   5.407   6.835  0.6518  0.0185 -0.0404
  186SLPC   C3121394   0.052   5.345   6.802  0.0240  0.2030 -0.7224
  186SLPC   O3221395   0.027   5.279   6.707  0.1776 -0.2229 -0.0386
  186SLPC   C3221396  -0.044   5.357   6.922  0.0091  0.1815 -0.5631
  186SLPC   H2X21397  -0.113   5.443   6.908 -0.4952 -0.3715 -1.6207
  186SLPC   H2Y21398   0.011   5.393   7.011 -1.8934  0.1434  0.6853
  186SLPC   C2321399   0.279   5.803   6.994 -0.5770  0.3626 -0.2995
  186SLPC   H3R21400   0.346   5.885   7.029  2.1741 -1.4285 -1.0551
  186SLPC   H3S21401   0.338   5.709   6.992  0.6524  1.1091 -0.1652
  186SLPC   C2421402   0.176   5.780   7.107 -0.2847  0.5915  0.3599
  186SLPC   H4R21403   0.099   5.706   7.077  0.1728  0.6397 -1.0146
  186SLPC   H4S21404   0.122   5.870   7.143 -1.1439  0.0646  0.4011
  186SLPC   C2521405   0.249   5.716   7.226  0.1524  0.2794 -0.3221
  186SLPC   H5R21406   0.299   5.622   7.197  0.9107  0.3886  0.5627
  186SLPC   H5S21407   0.174   5.674   7.296  2.2344 -1.7768  0.7878
  186SLPC   C2621408   0.355   5.805   7.294 -0.1985  0.1661  0.6558
  186SLPC   H6R21409   0.437   5.831   7.225 -0.8881  0.5047 -0.0514
  186SLPC   H6S21410   0.417   5.733   7.352 -1.2737 -2.6528 -1.5082
  186SLPC   C2721411   0.298   5.920   7.379  1.1806  0.1007 -0.2245
  186SLPC   H7R21412   0.210   5.967   7.332  0.2123  0.8303  2.1596
  186SLPC   H7S21413   0.369   6.003   7.403  0.0415  0.9653  0.2608
  186SLPC   C2821414   0.244   5.871   7.518 -0.3141  0.5079 -0.1724
  186SLPC   H8R21415   0.333   5.814   7.551  0.3017  0.3689 -1.9590
  186SLPC   H8S21416   0.157   5.804   7.497  1.0301 -1.4589  0.2554
  186SLPC   C2921417   0.216   5.988   7.606 -0.1853  0.1310 -0.2127
  186SLPC   H9R21418   0.176   6.083   7.568  0.0203  0.4016  0.2401
  186SLPC  C21021419   0.250   5.988   7.736 -0.5555 -0.2282  0.5858
  186SLPC  H10R21420   0.223   6.078   7.793 -3.8518 -1.7911  1.7108
  186SLPC  C21121421   0.315   5.881   7.826 -0.0559  0.1068 -0.2984
  186SLPC  H11R21422   0.394   5.932   7.886 -1.8463  2.4631  0.2236
  186SLPC  H11S21423   0.375   5.813   7.762  1.5186  1.6286 -0.5284
  186SLPC  C21221424   0.205   5.819   7.913  0.5438  0.4267 -0.0064
  186SLPC  H12R21425   0.108   5.801   7.864  0.8023 -1.2462  0.0449
  186SLPC  C21321426   0.224   5.780   8.043  0.2300 -0.1207 -0.2204
  186SLPC  H13R21427   0.129   5.751   8.092  0.1250  0.6526  0.0375
  186SLPC  C21421428   0.348   5.799   8.132 -0.3073 -0.0841 -0.2809
  186SLPC  H14R21429   0.322   5.870   8.213  2.1427 -0.8415  1.2967
  186SLPC  H14S21430   0.441   5.842   8.088  0.3038  0.2565  1.2959
  186SLPC  C21521431   0.389   5.670   8.205 -0.3606  0.1817  0.0023
  186SLPC  H15R21432   0.303   5.620   8.253 -1.0113  2.0819  0.9161
  186SLPC  H15S21433   0.463   5.695   8.284  0.2359  1.4261 -0.9145
  186SLPC  C21621434   0.441   5.563   8.114 -0.3592 -0.2831 -0.3979
  186SLPC  H16R21435   0.535   5.595   8.065 -0.2107 -0.9612 -0.5644
  186SLPC  H16S21436   0.360   5.534   8.043 -2.1084  0.1988  1.3176
  186SLPC  C21721437   0.475   5.431   8.195  0.3294  0.2000  0.6042
  186SLPC  H17R21438   0.496   5.359   8.113 -2.7107 -0.2299  0.1176
  186SLPC  H17S21439   0.381   5.391   8.238  0.3920 -0.4249  0.1767
  186SLPC  C21821440   0.574   5.443   8.303 -0.5201 -0.1320 -0.0144
  186SLPC  H18R21441   0.673   5.483   8.270 -1.1487  1.7160  0.2055
  186SLPC  H18S21442   0.599   5.344   8.346  0.8527  0.2024  0.0242
  186SLPC  H18T21443   0.536   5.508   8.384  1.4959  1.0595  0.0562
  186SLPC   C3321444  -0.131   5.234   6.955  0.2827 -0.9132 -0.3673
  186SLPC   H3X21445  -0.076   5.137   6.946  2.1514  0.2405 -2.0807
  186SLPC   H3Y21446  -0.213   5.233   6.879 -1.9467 -0.3469  1.8856
  186SLPC   C3421447  -0.217   5.246   7.084 -0.4115 -0.3280 -0.8670
  186SLPC   H4X21448  -0.300   5.174   7.067  1.1812 -2.5254  0.1266
  186SLPC   H4Y21449  -0.253   5.350   7.097 -0.1217 -0.2555 -0.6376
  186SLPC   C3521450  -0.154   5.209   7.214 -0.0172  0.0731 -0.8566
  186SLPC   H5X21451  -0.054   5.255   7.227  0.9887 -1.8292 -1.5582
  186SLPC   H5Y21452  -0.131   5.101   7.224  1.3824  0.1144 -3.1308
  186SLPC   C3621453  -0.247   5.260   7.324  0.4299 -0.1692 -0.2018
  186SLPC   H6X21454  -0.351   5.225   7.311 -0.5925  1.2833  3.0016
  186SLPC   H6Y21455  -0.242   5.371   7.320  0.9121 -0.2209 -1.9941
  186SLPC   C3721456  -0.193   5.207   7.466  0.3770 -0.2675  0.4557
  186SLPC   H7X21457  -0.111   5.279   7.485  0.8049 -0.5885 -0.1447
  186SLPC   H7Y21458  -0.160   5.102   7.452  0.6262 -0.4229  2.0457
  186SLPC   C3821459  -0.296   5.217   7.573 -0.2284 -0.0999  0.5730
  186SLPC   H8X21460  -0.379   5.145   7.556 -0.5098 -0.0687  1.7377
  186SLPC   H8Y21461  -0.328   5.322   7.586 -1.3464 -0.6817  3.2092
  186SLPC   C3921462  -0.229   5.185   7.706  0.4904 -0.2819  0.5884
  186SLPC   H9X21463  -0.135   5.241   7.726  0.8458 -0.1308 -1.3593
  186SLPC   H9Y21464  -0.196   5.079   7.705  0.7566 -0.2015  0.5911
  186SLPC  C31021465  -0.321   5.194   7.827 -0.7908  0.1649  0.5719
  186SLPC  H10X21466  -0.384   5.103   7.823 -1.3483  0.5670  0.0257
  186SLPC  H10Y21467  -0.388   5.281   7.807 -0.8943 -0.2681 -1.0456
  186SLPC  C31121468  -0.252   5.212   7.965  0.1186 -0.0534  0.2556
  186SLPC  H11X21469  -0.220   5.314   7.995 -0.3996 -0.1366  1.1331
  186SLPC  H11Y21470  -0.160   5.149   7.963  1.1142  1.3216 -2.6315
  186SLPC  C31221471  -0.338   5.150   8.079 -0.2141 -0.3065  0.2017
  186SLPC  H12X21472  -0.365   5.045   8.055 -3.7204  0.4709  0.2528
  186SLPC  H12Y21473  -0.433   5.206   8.080  0.5752  1.1552 -1.4448
  186SLPC  C31321474  -0.274   5.151   8.223 -0.5083 -0.4156  0.2164
  186SLPC  H13X21475  -0.236   5.255   8.239 -0.9433  0.2493 -2.5693
  186SLPC  H13Y21476  -0.190   5.080   8.238  0.2064  0.3196 -0.1921
  186SLPC  C31421477  -0.369   5.118   8.346 -0.2917 -0.6641  0.4420
  186SLPC  H14X21478  -0.430   5.211   8.348 -0.0693 -0.4778 -0.6928
  186SLPC  H14Y21479  -0.298   5.127   8.432  2.2583  3.3831 -1.7197
  186SLPC  C31521480  -0.435   4.985   8.348  0.1060  0.1885 -0.5894
  186SLPC  H15X21481  -0.481   4.979   8.247 -1.6169 -1.0301  0.2192
  186SLPC  H15Y21482  -0.508   4.985   8.431  0.9183  1.4297  0.1586
  186SLPC  C31621483  -0.338   4.864   8.344  0.0844 -0.0145 -0.0666
  186SLPC  H16X21484  -0.272   4.877   8.432  1.3519  1.0287 -1.1235
  186SLPC  H16Y21485  -0.264   4.862   8.260  0.3572  0.4193  0.1592
  186SLPC  C31721486  -0.417   4.735   8.353  0.3394  0.1572 -0.5792
  186SLPC  H17X21487  -0.498   4.730   8.277 -1.2502  0.3427  1.0173
  186SLPC  H17Y21488  -0.476   4.723   8.447 -1.3098  0.0691 -1.5860
  186SLPC  C31821489  -0.325   4.615   8.339 -0.4250 -0.1907  0.0153
  186SLPC  H18X21490  -0.389   4.524   8.337 -0.2382 -0.3233  0.0921
  186SLPC  H18Y21491  -0.252   4.608   8.423  0.3106  2.0855 -0.3670
  186SLPC  H18Z21492  -0.270   4.623   8.243  0.8097  1.2822  0.8007
  187SLPC     N21493   0.897   4.077   6.208  0.1555  0.6190  0.3761
  187SLPC   C1321494   0.757   4.128   6.190 -0.3706  0.4685 -0.4642
  187SLPC  H13A21495   0.681   4.055   6.217  0.3530  0.3767  1.5044
  187SLPC  H13B21496   0.739   4.204   6.265 -1.9171 -0.3445  0.0296
  187SLPC  H13C21497   0.736   4.169   6.093 -1.7986  0.4398 -0.1882
  187SLPC   C1421498   1.000   4.180   6.151  0.5884  0.2868 -0.2800
  187SLPC  H14A21499   0.976   4.281   6.179 -0.0326 -0.3862  1.7478
  187SLPC  H14B21500   1.103   4.164   6.181  0.4374  0.0190  0.0984
  187SLPC  H14C21501   1.001   4.191   6.043  1.6279  1.3125 -0.1797
  187SLPC   C1521502   0.912   3.941   6.138 -0.1775 -0.3802  0.5296
  187SLPC  H15A21503   0.844   3.861   6.163 -0.4346  0.1247  1.5155
  187SLPC  H15B21504   0.910   3.952   6.030  1.4712  0.3087  0.5461
  187SLPC  H15C21505   1.008   3.903   6.168  0.8137  2.8982  1.9941
  187SLPC   C1221506   0.917   4.061   6.355 -0.3211 -0.1929 -0.0413
  187SLPC  H12A21507   1.009   4.008   6.374  0.1612  0.0119 -1.6438
  187SLPC  H12B21508   0.841   3.996   6.396  0.0213  0.7345  2.2069
  187SLPC   C1121509   0.935   4.189   6.441  0.1108 -0.1829  0.4962
  187SLPC  H11A21510   1.027   4.241   6.409 -1.1951  1.7127 -0.3863
  187SLPC  H11B21511   0.948   4.153   6.546 -1.0497 -0.3661  0.5934
  187SLPC     P21512   0.829   4.429   6.447 -0.0005  0.3597  0.0592
  187SLPC   O1321513   0.966   4.477   6.447 -0.2631 -0.5093 -0.3796
  187SLPC   O1421514   0.739   4.499   6.352 -0.7158 -0.1828  0.0329
  187SLPC   O1221515   0.824   4.277   6.423 -0.2744  0.4365  0.3589
  187SLPC   O1121516   0.770   4.449   6.588  0.5536 -0.1304  0.2745
  187SLPC    C121517   0.716   4.339   6.672  0.1128 -0.6983  0.1441
  187SLPC    HA21518   0.606   4.346   6.686  0.1895  2.3842 -0.2019
  187SLPC    HB21519   0.740   4.237   6.635 -0.5506 -1.1684  0.9567
  187SLPC    C221520   0.760   4.355   6.826 -0.6922 -0.5471 -1.0319
  187SLPC    HS21521   0.703   4.277   6.882 -0.8410  0.7772  0.7689
  187SLPC   O2121522   0.732   4.492   6.867  0.4997 -0.2400  0.1675
  187SLPC   C2121523   0.667   4.511   6.980 -0.0332  0.8255 -0.2934
  187SLPC   O2221524   0.620   4.421   7.047 -0.2389  0.1446 -0.4162
  187SLPC   C2221525   0.667   4.658   7.015  0.3709  0.8037 -0.3551
  187SLPC   H2R21526   0.706   4.720   6.932 -0.3429  0.7730 -0.7210
  187SLPC   H2S21527   0.563   4.684   7.043 -0.0191 -1.0434  0.0926
  187SLPC    C321528   0.909   4.329   6.848 -0.7773  0.2654  0.5879
  187SLPC    HX21529   0.977   4.378   6.775 -2.0737  0.0433 -0.8253
  187SLPC    HY21530   0.932   4.224   6.821  1.6049  0.3657  1.9536
  187SLPC   O3121531   0.954   4.352   6.986  0.0278 -0.2371  0.1501
  187SLPC   C3121532   0.910   4.260   7.070  0.3606  0.9218 -0.3702
  187SLPC   O3221533   0.841   4.161   7.038 -0.0668  0.0515  0.0987
  187SLPC   C3221534   0.945   4.291   7.214  0.9509 -0.0828 -0.5558
  187SLPC   H2X21535   0.930   4.401   7.228  1.2363 -0.3779  3.0879
  187SLPC   H2Y21536   1.049   4.265   7.241  0.1421 -1.4869  1.4014
  187SLPC   C2321537   0.754   4.684   7.143  0.1315 -0.4930  0.6998
  187SLPC   H3R21538   0.858   4.648   7.121 -0.0843 -1.2467  0.8636
  187SLPC   H3S21539   0.722   4.629   7.235 -0.4780 -2.8342 -0.8180
  187SLPC   C2421540   0.758   4.836   7.176  0.0085 -0.3093  0.1334
  187SLPC   H4R21541   0.664   4.884   7.139 -0.6861 -1.8203 -0.1247
  187SLPC   H4S21542   0.842   4.877   7.116  0.0663 -0.1463  0.3228
  187SLPC   C2521543   0.770   4.852   7.325  1.2185 -0.5063  0.3246
  187SLPC   H5R21544   0.821   4.770   7.381 -0.4853 -0.6711  1.7278
  187SLPC   H5S21545   0.663   4.836   7.350  0.7652 -0.0165 -1.1964
  187SLPC   C2621546   0.828   4.977   7.376  0.5759 -0.3880  0.5483
  187SLPC   H6R21547   0.767   5.065   7.347  1.7818  0.9181  1.8255
  187SLPC   H6S21548   0.930   4.989   7.334  0.4943 -1.0766  0.1330
  187SLPC   C2721549   0.838   4.965   7.527  0.3590 -0.0747 -0.0170
  187SLPC   H7R21550   0.890   4.869   7.550 -1.8410 -1.2803  0.1951
  187SLPC   H7S21551   0.745   4.946   7.584  0.6121 -2.1136 -0.2106
  187SLPC   C2821552   0.913   5.081   7.594  1.2241 -0.0167 -0.6548
  187SLPC   H8R21553   0.852   5.174   7.586 -1.7504 -1.6938  0.8708
  187SLPC   H8S21554   1.007   5.102   7.538 -0.6992 -2.1074 -5.1547
  187SLPC   C2921555   0.956   5.049   7.732  0.3049  0.1832  0.2910
  187SLPC   H9R21556   1.007   4.952   7.744 -0.4660 -0.5702 -1.9277
  187SLPC  C21021557   0.934   5.115   7.845  0.4713  0.3580 -0.1553
  187SLPC  H10R21558   0.970   5.065   7.936  1.8296 -0.3125 -1.0362
  187SLPC  C21121559   0.851   5.239   7.864 -0.4412 -0.2661  0.6124
  187SLPC  H11R21560   0.780   5.253   7.780 -1.6251  1.7007  1.8727
  187SLPC  H11S21561   0.923   5.324   7.859 -2.7241  1.7464  0.0568
  187SLPC  C21221562   0.771   5.242   7.996 -0.0485  0.4068  0.3068
  187SLPC  H12R21563   0.666   5.223   7.969  0.2070 -2.2889  1.0084
  187SLPC  C21321564   0.809   5.253   8.129  0.2641  1.4132 -0.5459
  187SLPC  H13R21565   0.726   5.242   8.201 -2.1989  2.2394 -3.0592
  187SLPC  C21421566   0.951   5.277   8.176  0.0823  0.5340 -0.5056
  187SLPC  H14R21567   1.013   5.327   8.098  0.1837  2.1311  0.5449
  187SLPC  H14S21568   1.011   5.184   8.191  1.2318  1.3755  0.3312
  187SLPC  C21521569   0.934   5.349   8.309 -0.0263  0.2559 -0.1459
  187SLPC  H15R21570   0.888   5.275   8.379  0.3846  0.8579  0.7845
  187SLPC  H15S21571   0.860   5.430   8.289 -1.5026 -1.5244 -2.4291
  187SLPC  C21621572   1.061   5.409   8.372  0.0177  0.1392  0.1517
  187SLPC  H16R21573   1.134   5.329   8.396  2.0866  2.0466  0.5888
  187SLPC  H16S21574   1.041   5.450   8.473 -0.3317 -0.7881  0.4703
  187SLPC  C21721575   1.138   5.522   8.303 -0.1522 -0.2219 -0.5239
  187SLPC  H17R21576   1.069   5.600   8.264 -0.1153  1.0557  1.8160
  187SLPC  H17S21577   1.182   5.482   8.209  1.9990 -3.0060  1.4840
  187SLPC  C21821578   1.251   5.571   8.391  0.3663  0.8776  0.5420
  187SLPC  H18R21579   1.327   5.628   8.333  0.7908 -0.6027 -0.4255
  187SLPC  H18S21580   1.301   5.488   8.444 -0.2653  1.7366  2.5748
  187SLPC  H18T21581   1.215   5.646   8.465  0.1271 -0.6174  1.9812
  187SLPC   C3321582   0.850   4.232   7.326  0.0665 -0.0696  0.1764
  187SLPC   H3X21583   0.856   4.122   7.321  0.2830 -0.0468 -0.1105
  187SLPC   H3Y21584   0.743   4.257   7.309 -0.2094 -0.8986  0.6640
  187SLPC   C3421585   0.895   4.294   7.460  0.1499  0.2907 -0.0880
  187SLPC   H4X21586   0.888   4.405   7.468  0.2393  0.2533  0.5565
  187SLPC   H4Y21587   0.998   4.266   7.488  0.1425 -0.2773 -0.6075
  187SLPC   C3521588   0.794   4.245   7.571  0.3408 -0.1372  0.0655
  187SLPC   H5X21589   0.794   4.135   7.581  0.7510 -0.4463 -2.5802
  187SLPC   H5Y21590   0.694   4.274   7.533  0.9941 -0.0539 -1.6872
  187SLPC   C3621591   0.816   4.288   7.715 -0.1312 -0.1768  0.5278
  187SLPC   H6X21592   0.818   4.399   7.718  0.5242 -0.2019  3.8091
  187SLPC   H6Y21593   0.920   4.261   7.741 -0.0940  0.0551  0.6226
  187SLPC   C3721594   0.716   4.229   7.812 -0.9385  0.0993  0.8347
  187SLPC   H7X21595   0.616   4.252   7.769 -1.5452 -1.5507  1.2815
  187SLPC   H7Y21596   0.724   4.119   7.822  1.1737  0.1890  0.4821
  187SLPC   C3821597   0.720   4.287   7.954 -0.6742 -0.4083 -0.1282
  187SLPC   H8X21598   0.699   4.396   7.950  0.9683 -0.0320  0.6343
  187SLPC   H8Y21599   0.821   4.266   7.996 -0.6316 -0.2636 -0.1615
  187SLPC   C3921600   0.617   4.221   8.053  0.0412 -0.2256  0.0401
  187SLPC   H9X21601   0.623   4.110   8.056 -1.1602 -0.2730  1.3920
  187SLPC   H9Y21602   0.512   4.231   8.017 -0.1814 -0.7785  0.5174
  187SLPC  C31021603   0.613   4.289   8.190 -0.0838 -0.1560  0.9544
  187SLPC  H10X21604   0.722   4.302   8.208  0.9667  0.7821 -4.2692
  187SLPC  H10Y21605   0.565   4.224   8.266 -3.2733  0.9959  0.0473
  187SLPC  C31121606   0.546   4.428   8.183  0.3725 -0.3375  1.3263
  187SLPC  H11X21607   0.452   4.410   8.128  0.6995  2.4674 -0.3445
  187SLPC  H11Y21608   0.608   4.498   8.123  2.0306 -1.2690  1.8891
  187SLPC  C31221609   0.519   4.506   8.317  0.4311  0.5282  0.7587
  187SLPC  H12X21610   0.420   4.476   8.358  0.2414 -1.4416 -0.9669
  187SLPC  H12Y21611   0.513   4.612   8.285  0.3768  0.2941 -0.0261
  187SLPC  C31321612   0.634   4.494   8.412  0.1273  0.5891 -0.0517
  187SLPC  H13X21613   0.728   4.522   8.361  1.3010  0.1849  1.7830
  187SLPC  H13Y21614   0.646   4.389   8.448  1.0249  0.1010 -1.6463
  187SLPC  C31421615   0.618   4.569   8.547 -0.2919 -0.4207 -0.3650
  187SLPC  H14X21616   0.667   4.506   8.624 -2.2842  0.0594  1.4030
  187SLPC  H14Y21617   0.507   4.568   8.552 -0.2501 -1.3323  1.0603
  187SLPC  C31521618   0.678   4.710   8.550 -0.0104 -0.1885  0.1548
  187SLPC  H15X21619   0.624   4.777   8.480 -0.4211 -0.4664  0.2021
  187SLPC  H15Y21620   0.781   4.699   8.511  0.4792 -1.1996  1.6405
  187SLPC  C31621621   0.705   4.767   8.686 -0.3214 -0.4494  0.4734
  187SLPC  H16X21622   0.783   4.846   8.682  0.9090 -1.6777 -0.8690
  187SLPC  H16Y21623   0.736   4.693   8.763 -0.9585  1.2022  2.4083
  187SLPC  C31721624   0.577   4.831   8.745 -0.2468 -0.4054 -0.2986
  187SLPC  H17X21625   0.506   4.746   8.757 -1.0571  0.0005 -1.9423
  187SLPC  H17Y21626   0.530   4.902   8.674 -1.5308 -1.1083 -0.1925
  187SLPC  C31821627   0.602   4.886   8.882  0.6492  0.2387 -0.6793
  187SLPC  H18X21628   0.513   4.933   8.929 -0.8185 -1.5710 -1.5141
  187SLPC  H18Y21629   0.674   4.970   8.872 -1.2928  1.8642 -1.7995
  187SLPC  H18Z21630   0.638   4.813   8.957  0.3057  1.4128  0.6891
  188SLPC     N21631   1.880   4.116   6.186  0.1958  0.1616  0.2583
  188SLPC   C1321632   1.982   4.055   6.090 -0.1636  0.0979  0.0204
  188SLPC  H13A21633   2.078   4.096   6.115  0.1445  0.5653 -1.8441
  188SLPC  H13B21634   1.973   3.947   6.097  1.0020  0.0301  0.6458
  188SLPC  H13C21635   1.958   4.070   5.986 -1.8022  0.1175  0.3587
  188SLPC   C1421636   1.740   4.101   6.128 -0.6432 -0.5213 -0.4476
  188SLPC  H14A21637   1.669   4.158   6.187  0.9820  0.5694  0.5513
  188SLPC  H14B21638   1.744   4.144   6.030  3.7670  0.3467 -0.0701
  188SLPC  H14C21639   1.704   3.999   6.126  0.3248 -1.0162  2.3433
  188SLPC   C1521640   1.916   4.260   6.189 -0.0063  0.3216 -0.3935
  188SLPC  H15A21641   1.934   4.296   6.089  3.4325  0.4161  0.1282
  188SLPC  H15B21642   1.859   4.318   6.260 -0.9075 -2.7102  1.5406
  188SLPC  H15C21643   2.014   4.271   6.235  0.5635 -2.0195 -0.9035
  188SLPC   C1221644   1.885   4.061   6.324 -0.5983 -0.3171 -0.2653
  188SLPC  H12A21645   1.803   4.103   6.380 -2.0614 -0.8001 -1.9513
  188SLPC  H12B21646   1.968   4.104   6.378 -0.3400  0.0135 -0.9072
  188SLPC   C1121647   1.879   3.906   6.341 -0.0008  0.6157 -0.0415
  188SLPC  H11A21648   1.789   3.872   6.286  0.2868  1.9306 -1.3935
  188SLPC  H11B21649   1.858   3.886   6.449 -0.4310  0.8026 -0.0892
  188SLPC     P21650   2.126   3.826   6.396 -0.0910  0.0721  0.2767
  188SLPC   O1321651   2.129   3.699   6.472  0.6682 -0.0980 -0.0017
  188SLPC   O1421652   2.242   3.853   6.302 -0.3481 -0.3748  0.3001
  188SLPC   O1221653   1.994   3.833   6.309 -0.1566 -0.0888  0.3174
  188SLPC   O1121654   2.106   3.943   6.499  0.8675 -0.8610 -0.6850
  188SLPC    C121655   2.221   4.026   6.515 -0.0070 -0.8247 -0.5493
  188SLPC    HA21656   2.271   4.065   6.423 -0.9753  0.0579 -0.7264
  188SLPC    HB21657   2.199   4.119   6.572  2.6636 -0.5098  0.1052
  188SLPC    C221658   2.340   3.953   6.591 -1.0150  0.2705  0.4982
  188SLPC    HS21659   2.332   3.849   6.551 -1.3890  1.3186 -2.4247
  188SLPC   O2121660   2.306   3.972   6.735  0.0034 -0.5118  0.5491
  188SLPC   C2121661   2.343   3.872   6.804  0.2848 -0.2823  0.4651
  188SLPC   O2221662   2.375   3.760   6.766  0.9296 -0.1667  0.3831
  188SLPC   C2221663   2.358   3.905   6.948 -0.8130  0.8578 -0.5785
  188SLPC   H2R21664   2.443   3.976   6.948 -0.0765  0.0635 -2.9171
  188SLPC   H2S21665   2.262   3.955   6.974 -1.9191 -0.7422 -1.4016
  188SLPC    C321666   2.477   4.004   6.559 -0.3219 -1.1222 -0.3369
  188SLPC    HX21667   2.467   4.108   6.597  0.3247  0.1310 -3.3431
  188SLPC    HY21668   2.492   3.998   6.449 -0.8371 -0.5099 -0.4462
  188SLPC   O3121669   2.587   3.941   6.633  0.0988 -0.0990  0.6497
  188SLPC   C3121670   2.630   3.832   6.582 -0.2522  0.6810  0.1484
  188SLPC   O3221671   2.598   3.783   6.478 -0.0655 -0.2123  0.0977
  188SLPC   C3221672   2.739   3.774   6.661  0.2937  0.3192  0.5231
  188SLPC   H2X21673   2.824   3.843   6.643  1.3924 -0.5109  2.2422
  188SLPC   H2Y21674   2.769   3.678   6.613  1.0558  0.2596  1.1064
  188SLPC   C2321675   2.381   3.795   7.059  0.5095  0.0253 -0.0333
  188SLPC   H3R21676   2.478   3.746   7.036  0.5736  0.4572 -0.7259
  188SLPC   H3S21677   2.296   3.726   7.077 -0.8078  2.3554  4.0496
  188SLPC   C2421678   2.408   3.850   7.199  0.9516 -0.3242  0.1804
  188SLPC   H4R21679   2.493   3.918   7.222 -0.8212  1.4679  1.9040
  188SLPC   H4S21680   2.419   3.761   7.264 -1.1987 -1.4449 -0.8707
  188SLPC   C2521681   2.287   3.928   7.250  0.9873 -0.1205  0.4728
  188SLPC   H5R21682   2.185   3.897   7.220 -0.1732  2.4659  1.5347
  188SLPC   H5S21683   2.304   4.032   7.214  2.6495 -0.3252  0.5758
  188SLPC   C2621684   2.278   3.923   7.408 -0.7837  0.3525 -0.2881
  188SLPC   H6R21685   2.363   3.982   7.447 -1.0570  0.9419 -0.5806
  188SLPC   H6S21686   2.283   3.817   7.441  1.2578  0.7754  0.9369
  188SLPC   C2721687   2.163   4.004   7.467 -0.3364  0.8079 -1.0273
  188SLPC   H7R21688   2.071   3.945   7.448  0.0873 -0.0471 -0.4736
  188SLPC   H7S21689   2.153   4.097   7.406  0.9621 -0.0819 -2.6815
  188SLPC   C2821690   2.178   4.032   7.615  0.7927  0.2665 -0.4466
  188SLPC   H8R21691   2.272   4.086   7.635  1.6257 -0.7475 -1.5054
  188SLPC   H8S21692   2.184   3.935   7.669  1.6467  0.7832  0.4218
  188SLPC   C2921693   2.056   4.101   7.671 -0.2034 -0.9713 -0.2293
  188SLPC   H9R21694   1.990   4.146   7.595  0.2210  2.3123  1.1758
  188SLPC  C21021695   2.028   4.115   7.801 -1.2483 -0.6905 -0.1035
  188SLPC  H10R21696   1.934   4.159   7.836 -1.6643  0.2628 -2.2575
  188SLPC  C21121697   2.115   4.062   7.919 -0.0350 -0.0244 -0.0119
  188SLPC  H11R21698   2.056   4.087   8.009 -0.9378 -1.0407 -0.2956
  188SLPC  H11S21699   2.199   4.134   7.915 -1.6233  1.8759 -2.3688
  188SLPC  C21221700   2.176   3.930   7.941  0.0509  0.7292 -0.7317
  188SLPC  H12R21701   2.176   3.861   7.855 -2.5878 -1.6870  1.0183
  188SLPC  C21321702   2.224   3.872   8.054  0.3696 -0.4443 -0.6201
  188SLPC  H13R21703   2.292   3.787   8.048  2.4590  1.1513 -0.7687
  188SLPC  C21421704   2.229   3.927   8.193 -0.0485  0.6775  0.9114
  188SLPC  H14R21705   2.201   4.033   8.208  1.9605  1.0083  3.0793
  188SLPC  H14S21706   2.334   3.927   8.230  1.1511  2.1999 -2.1890
  188SLPC  C21521707   2.142   3.841   8.291  0.0702  0.1616 -0.0357
  188SLPC  H15R21708   2.195   3.750   8.326  0.1969 -0.7113 -2.2941
  188SLPC  H15S21709   2.049   3.807   8.239 -0.2996 -0.0580  0.7565
  188SLPC  C21621710   2.098   3.912   8.422  0.6602 -0.5445 -0.3037
  188SLPC  H16R21711   2.057   4.014   8.407 -1.3642 -0.5569  3.8215
  188SLPC  H16S21712   2.184   3.932   8.489 -0.4826  1.3381  0.6699
  188SLPC  C21721713   1.979   3.845   8.485  0.1323  0.6312 -0.3336
  188SLPC  H17R21714   2.007   3.743   8.520  2.7379  1.7917  1.2649
  188SLPC  H17S21715   1.891   3.841   8.417 -0.2733  0.4049  0.2004
  188SLPC  C21821716   1.921   3.913   8.609 -0.6160  0.0741  0.4489
  188SLPC  H18R21717   1.835   3.851   8.642 -1.2718 -0.1021 -1.5088
  188SLPC  H18S21718   1.886   4.012   8.573 -1.5014 -0.5889 -0.5679
  188SLPC  H18T21719   2.003   3.924   8.684 -0.5686  0.8902  0.2956
  188SLPC   C3321720   2.696   3.757   6.808 -0.6599  0.5555  0.1742
  188SLPC   H3X21721   2.639   3.662   6.803  2.9652 -1.7485 -1.9888
  188SLPC   H3Y21722   2.630   3.842   6.837  0.2270  1.3055  0.0113
  188SLPC   C3421723   2.814   3.729   6.906 -0.1083 -0.2065  1.4342
  188SLPC   H4X21724   2.883   3.815   6.901 -2.1082  1.3694 -1.2810
  188SLPC   H4Y21725   2.873   3.642   6.872  2.1107  1.3895  1.0154
  188SLPC   C3521726   2.758   3.712   7.048  0.1515 -0.0445  0.0257
  188SLPC   H5X21727   2.673   3.641   7.058 -0.4219  0.3598 -1.6000
  188SLPC   H5Y21728   2.714   3.813   7.061  1.6677  0.9977 -2.2247
  188SLPC   C3621729   2.872   3.666   7.136  0.8318  0.7321 -0.0327
  188SLPC   H6X21730   2.963   3.730   7.129  0.6300  0.9334 -0.8550
  188SLPC   H6Y21731   2.892   3.563   7.098  1.4177  1.1941 -1.0316
  188SLPC   C3721732   2.834   3.646   7.285  0.1784 -0.2893  0.0163
  188SLPC   H7X21733   2.929   3.629   7.341 -0.1005  0.8706  0.8999
  188SLPC   H7Y21734   2.772   3.555   7.299 -2.8212  1.8600  1.9811
  188SLPC   C3821735   2.769   3.763   7.353 -0.2307 -0.5739 -0.7152
  188SLPC   H8X21736   2.701   3.808   7.278  1.1312  0.0170 -1.6455
  188SLPC   H8Y21737   2.850   3.835   7.376  0.3447 -0.9987 -1.3657
  188SLPC   C3921738   2.701   3.708   7.484 -0.1686 -0.4495 -0.3063
  188SLPC   H9X21739   2.775   3.642   7.534  0.2394 -0.4669 -0.9231
  188SLPC   H9Y21740   2.613   3.651   7.449 -1.2628  1.0495 -0.1104
  188SLPC  C31021741   2.661   3.814   7.590 -0.1398  0.2142  0.4692
  188SLPC  H10X21742   2.573   3.861   7.542  1.0504  1.5924 -0.4571
  188SLPC  H10Y21743   2.746   3.885   7.599 -0.9961  1.3882 -0.4518
  188SLPC  C31121744   2.606   3.754   7.722 -0.9674 -0.9833 -0.5966
  188SLPC  H11X21745   2.575   3.648   7.713  0.4772 -1.5467  0.5087
  188SLPC  H11Y21746   2.515   3.814   7.743 -0.1661  0.4989 -1.2114
  188SLPC  C31221747   2.698   3.767   7.845 -0.1905  0.1825 -0.7916
  188SLPC  H12X21748   2.641   3.732   7.934 -0.0088  0.2525 -0.6479
  188SLPC  H12Y21749   2.730   3.873   7.857 -1.7488  0.9317 -2.7642
  188SLPC  C31321750   2.825   3.687   7.834 -0.1999 -0.2561 -0.7562
  188SLPC  H13X21751   2.885   3.721   7.747 -0.1925  0.6178 -0.4123
  188SLPC  H13Y21752   2.787   3.584   7.813 -0.5760 -0.4328  0.7101
  188SLPC  C31421753   2.904   3.697   7.967  0.3479  0.0922  0.1691
  188SLPC  H14X21754   2.850   3.640   8.046 -0.8938 -2.4672 -2.3224
  188SLPC  H14Y21755   2.912   3.804   7.993 -0.8742  0.0062  1.0186
  188SLPC  C31521756   3.044   3.641   7.948 -0.1136 -0.0494  0.4622
  188SLPC  H15X21757   3.098   3.690   7.864  0.6881 -0.0895  0.9349
  188SLPC  H15Y21758   3.040   3.532   7.930  0.7440 -0.0508  0.2136
  188SLPC  C31621759   3.130   3.639   8.070 -0.3769 -1.3084 -0.3893
  188SLPC  H16X21760   3.233   3.601   8.059  0.8822  1.2237  1.5164
  188SLPC  H16Y21761   3.090   3.564   8.142 -0.5899  1.7460  2.9967
  188SLPC  C31721762   3.122   3.763   8.160  0.2408 -0.1452 -1.0404
  188SLPC  H17X21763   3.019   3.798   8.186  0.4428  0.5362 -1.1160
  188SLPC  H17Y21764   3.163   3.851   8.106  0.3187 -0.3558 -1.3202
  188SLPC  C31821765   3.193   3.735   8.292 -0.0089  0.1233 -0.4181
  188SLPC  H18X21766   3.189   3.826   8.356 -2.0852 -0.2087 -0.0179
  188SLPC  H18Y21767   3.295   3.692   8.280  0.0865  0.0925  0.4596
  188SLPC  H18Z21768   3.141   3.660   8.356 -2.3360  0.9973 -1.1761
  189SLPC     N21769   2.229   6.343   6.108 -0.1730  0.0254 -0.7426
  189SLPC   C1321770   2.147   6.255   6.007  0.3562 -0.2564 -0.1858
  189SLPC  H13A21771   2.152   6.152   6.041 -3.3694 -0.5969 -0.2622
  189SLPC  H13B21772   2.042   6.282   6.006  0.3401 -0.2239  0.9570
  189SLPC  H13C21773   2.188   6.269   5.908  0.3117  0.5533 -0.0994
  189SLPC   C1421774   2.222   6.482   6.065 -0.3589  0.4373 -0.1329
  189SLPC  H14A21775   2.272   6.496   5.970 -0.2266 -1.3298 -0.3484
  189SLPC  H14B21776   2.119   6.510   6.052 -0.5834 -0.9675 -1.6923
  189SLPC  H14C21777   2.282   6.536   6.138  0.9678 -1.5699  0.3385
  189SLPC   C1521778   2.373   6.296   6.118  0.0241  0.7590 -0.6255
  189SLPC  H15A21779   2.383   6.198   6.162  1.7652  1.1087 -0.1603
  189SLPC  H15B21780   2.413   6.289   6.018 -2.1346 -0.0979 -1.4750
  189SLPC  H15C21781   2.431   6.361   6.182 -0.2915 -0.4407  0.9362
  189SLPC   C1221782   2.185   6.320   6.261 -0.2021 -0.0704  0.2520
  189SLPC  H12A21783   2.089   6.368   6.267  0.0984  0.4046  1.5175
  189SLPC  H12B21784   2.248   6.382   6.322 -0.6321  1.9738 -1.2696
  189SLPC   C1121785   2.181   6.170   6.316  0.7870  0.5057 -0.3148
  189SLPC  H11A21786   2.177   6.165   6.427 -0.7403  0.0606 -0.3612
  189SLPC  H11B21787   2.281   6.125   6.298  0.8856  0.2792  0.7738
  189SLPC     P21788   1.934   6.125   6.271  0.0091  0.0083 -0.1699
  189SLPC   O1321789   1.911   6.269   6.290 -0.0472 -0.3604 -0.7745
  189SLPC   O1421790   1.848   6.072   6.165  0.4468  0.0853 -0.0838
  189SLPC   O1221791   2.083   6.093   6.248  0.2009 -0.2199 -0.3755
  189SLPC   O1121792   1.900   6.049   6.407  0.2246 -0.4304 -0.8477
  189SLPC    C121793   1.967   5.936   6.468 -0.9350 -0.0226 -0.5243
  189SLPC    HA21794   1.957   5.838   6.418  0.9191 -0.2136 -0.6131
  189SLPC    HB21795   2.077   5.952   6.469 -0.8424 -0.6701 -0.1585
  189SLPC    C221796   1.931   5.926   6.621 -0.5575  0.4746 -0.0341
  189SLPC    HS21797   2.006   5.866   6.677 -0.2048  0.4425 -0.5284
  189SLPC   O2121798   1.799   5.864   6.626  0.0681  0.0863 -0.0905
  189SLPC   C2121799   1.784   5.734   6.637 -0.1460  0.4087  0.0172
  189SLPC   O2221800   1.878   5.654   6.630 -0.0680  0.4899 -0.0039
  189SLPC   C2221801   1.639   5.694   6.665  0.4919  0.4080 -0.1203
  189SLPC   H2R21802   1.573   5.778   6.696  0.6031  0.8306 -0.9774
  189SLPC   H2S21803   1.610   5.647   6.568  2.7072 -1.5376  0.0893
  189SLPC    C321804   1.935   6.062   6.692 -0.0093 -0.1675 -0.3361
  189SLPC    HX21805   1.835   6.088   6.732  0.2427 -0.9748  0.8731
  189SLPC    HY21806   1.957   6.137   6.613 -0.5527 -0.1826 -0.5065
  189SLPC   O3121807   2.033   6.068   6.800 -0.0096 -0.3366 -0.0746
  189SLPC   C3121808   2.075   6.190   6.833  0.1314 -0.1043  0.1943
  189SLPC   O3221809   2.050   6.291   6.773 -0.6192 -0.4954  0.1198
  189SLPC   C3221810   2.182   6.183   6.949  0.3595  0.1290  0.5333
  189SLPC   H2X21811   2.261   6.108   6.925 -0.9630 -0.6837 -1.5900
  189SLPC   H2Y21812   2.124   6.140   7.034 -0.2431 -0.6476 -0.2560
  189SLPC   C2321813   1.614   5.585   6.774 -0.8133  0.3800  0.4327
  189SLPC   H3R21814   1.714   5.536   6.784 -1.2023 -0.0255  3.3976
  189SLPC   H3S21815   1.547   5.503   6.741 -0.1733 -0.7999  1.9331
  189SLPC   C2421816   1.582   5.633   6.917 -0.7449 -0.3279 -0.0536
  189SLPC   H4R21817   1.484   5.686   6.915 -0.1674  0.7734 -0.2775
  189SLPC   H4S21818   1.661   5.694   6.965 -0.4640 -0.7186 -0.0151
  189SLPC   C2521819   1.561   5.517   7.018 -0.1441 -0.3209  0.7108
  189SLPC   H5R21820   1.642   5.441   7.003 -1.6059 -1.6393 -0.9811
  189SLPC   H5S21821   1.467   5.472   6.980 -1.0102 -0.7810  3.2352
  189SLPC   C2621822   1.544   5.563   7.163 -0.3518  0.2585 -0.2114
  189SLPC   H6R21823   1.487   5.488   7.222 -2.2382  1.1420 -0.8366
  189SLPC   H6S21824   1.493   5.662   7.166 -0.3029  0.2757  0.1289
  189SLPC   C2721825   1.677   5.580   7.233  0.1073  0.0296  0.1013
  189SLPC   H7R21826   1.737   5.657   7.179 -0.8702  0.6042 -0.2006
  189SLPC   H7S21827   1.731   5.483   7.228  0.5910  0.2885  0.2361
  189SLPC   C2821828   1.652   5.610   7.384  0.1860 -0.8492 -0.3890
  189SLPC   H8R21829   1.742   5.581   7.441 -0.1958 -0.8484  0.2210
  189SLPC   H8S21830   1.567   5.545   7.414 -1.0920  0.6661 -0.6160
  189SLPC   C2921831   1.612   5.749   7.419  0.2430  0.1677  0.1924
  189SLPC   H9R21832   1.515   5.782   7.378  0.1182 -0.8689 -0.3691
  189SLPC  C21021833   1.689   5.838   7.492 -0.4595  0.8189 -0.2337
  189SLPC  H10R21834   1.649   5.937   7.518 -0.9925  0.5430  0.0110
  189SLPC  C21121835   1.831   5.800   7.554 -0.0234  0.2915 -0.4050
  189SLPC  H11R21836   1.897   5.890   7.549  2.8928 -1.7585 -1.6848
  189SLPC  H11S21837   1.885   5.727   7.490 -1.0624  1.3903 -2.6430
  189SLPC  C21221838   1.814   5.740   7.698  0.1150 -0.2609  0.0956
  189SLPC  H12R21839   1.718   5.748   7.750  1.6983 -1.8696  3.5866
  189SLPC  C21321840   1.931   5.705   7.767  0.2505 -0.7848 -0.1406
  189SLPC  H13R21841   1.914   5.661   7.866 -1.2562  0.3232  0.1198
  189SLPC  C21421842   2.070   5.698   7.725 -0.2037  0.0141 -0.6543
  189SLPC  H14R21843   2.122   5.790   7.760 -1.1504 -0.0062  0.8801
  189SLPC  H14S21844   2.071   5.695   7.614  1.7722  0.7129 -0.6984
  189SLPC  C21521845   2.148   5.574   7.773  0.2878 -0.2496 -0.2253
  189SLPC  H15R21846   2.114   5.488   7.712  1.9046 -1.2922  0.2853
  189SLPC  H15S21847   2.123   5.552   7.879 -0.8854  2.1222  0.0700
  189SLPC  C21621848   2.301   5.578   7.761 -0.1535 -0.5529 -0.0482
  189SLPC  H16R21849   2.327   5.675   7.809 -1.9583  0.7362 -1.4837
  189SLPC  H16S21850   2.333   5.575   7.655 -0.6345 -2.0848 -0.1794
  189SLPC  C21721851   2.374   5.469   7.847  0.1132  0.5732 -0.6681
  189SLPC  H17R21852   2.351   5.373   7.797 -1.4716  0.7699 -0.3695
  189SLPC  H17S21853   2.322   5.472   7.945  0.4727 -0.7195 -0.4295
  189SLPC  C21821854   2.526   5.477   7.875  0.1913 -0.1910  0.1925
  189SLPC  H18R21855   2.567   5.490   7.773 -0.5152 -0.9710 -0.2022
  189SLPC  H18S21856   2.559   5.384   7.925  0.4072  0.0514  0.5075
  189SLPC  H18T21857   2.533   5.571   7.935 -0.3706  0.0299 -0.0834
  189SLPC   C3321858   2.243   6.324   6.976  0.1474 -0.5259  0.5161
  189SLPC   H3X21859   2.163   6.401   6.972 -0.0829 -0.8220 -1.3780
  189SLPC   H3Y21860   2.317   6.338   6.894 -0.8945 -0.7530 -0.4943
  189SLPC   C3421861   2.323   6.320   7.107 -0.0627  1.2710 -0.3114
  189SLPC   H4X21862   2.406   6.249   7.089 -0.6332  0.7459 -0.9467
  189SLPC   H4Y21863   2.254   6.275   7.182  0.9821 -0.4999 -0.3615
  189SLPC   C3521864   2.363   6.454   7.165  0.2056  0.9398 -0.0032
  189SLPC   H5X21865   2.297   6.533   7.122 -0.3169 -0.4940 -1.9561
  189SLPC   H5Y21866   2.460   6.470   7.114 -0.5328  0.4988 -1.5833
  189SLPC   C3621867   2.383   6.468   7.316 -0.1282 -0.1320 -0.4790
  189SLPC   H6X21868   2.459   6.392   7.348 -1.2431 -1.7868 -1.6207
  189SLPC   H6Y21869   2.280   6.451   7.352 -0.1089 -2.9345 -1.4694
  189SLPC   C3721870   2.430   6.611   7.352 -0.0659  0.0996 -0.2128
  189SLPC   H7X21871   2.364   6.684   7.301 -2.8703 -0.0866  2.8255
  189SLPC   H7Y21872   2.528   6.632   7.304 -1.2191  0.2638 -2.6153
  189SLPC   C3821873   2.445   6.638   7.505  0.0709  0.7897  0.1698
  189SLPC   H8X21874   2.492   6.739   7.504  1.1507  0.2976 -0.6518
  189SLPC   H8Y21875   2.511   6.567   7.559  0.8359  1.7936  0.5749
  189SLPC   C3921876   2.305   6.650   7.570 -0.0807  0.3107  0.7686
  189SLPC   H9X21877   2.253   6.552   7.562 -0.0199  0.4336 -1.8459
  189SLPC   H9Y21878   2.250   6.724   7.509 -0.1188  0.0773  0.5189
  189SLPC  C31021879   2.309   6.680   7.717 -0.4261 -0.5790 -0.9416
  189SLPC  H10X21880   2.332   6.787   7.730 -0.1472 -0.3437 -3.0046
  189SLPC  H10Y21881   2.382   6.613   7.768  0.1022  0.7647  0.1147
  189SLPC  C31121882   2.174   6.643   7.774  1.0799  1.3602  0.0281
  189SLPC  H11X21883   2.144   6.545   7.729  1.0651  0.8097  1.1965
  189SLPC  H11Y21884   2.099   6.714   7.734 -0.2127  0.9161  1.5549
  189SLPC  C31221885   2.167   6.629   7.926 -0.8791  0.5921 -0.0872
  189SLPC  H12X21886   2.206   6.729   7.953  2.5448 -0.5177 -0.4513
  189SLPC  H12Y21887   2.239   6.551   7.959  1.0330  2.6095  0.7413
  189SLPC  C31321888   2.022   6.622   7.988 -0.8854 -0.7415  0.1289
  189SLPC  H13X21889   1.958   6.545   7.940  0.2751 -2.1451  0.7379
  189SLPC  H13Y21890   1.978   6.721   7.964 -2.1458 -1.3841 -0.2893
  189SLPC  C31421891   2.018   6.595   8.137 -0.1876 -0.3637 -0.2124
  189SLPC  H14X21892   1.924   6.643   8.172 -0.4084  0.4293 -1.7983
  189SLPC  H14Y21893   2.105   6.647   8.183  1.0403 -3.0666  0.7224
  189SLPC  C31521894   2.039   6.446   8.161 -0.5682  0.1609 -0.2360
  189SLPC  H15X21895   2.115   6.408   8.089  0.6677  0.5621  0.7979
  189SLPC  H15Y21896   1.946   6.388   8.144 -0.9925  1.0683 -1.0951
  189SLPC  C31621897   2.102   6.424   8.301  0.8418 -0.6275  0.4742
  189SLPC  H16X21898   2.030   6.453   8.380 -0.8827  0.8592 -1.5141
  189SLPC  H16Y21899   2.182   6.500   8.292 -0.2424  0.3102 -2.7036
  189SLPC  C31721900   2.155   6.280   8.327  0.2067 -0.2986 -0.4484
  189SLPC  H17X21901   2.248   6.287   8.387  0.6788 -0.9313 -1.0873
  189SLPC  H17Y21902   2.195   6.253   8.227 -0.6553  1.3428 -1.2746
  189SLPC  C31821903   2.055   6.176   8.388 -0.5068 -0.0435 -0.1746
  189SLPC  H18X21904   2.023   6.195   8.493  1.2931 -0.7377  0.5420
  189SLPC  H18Y21905   2.090   6.071   8.379  4.1623  1.1252  1.3800
  189SLPC  H18Z21906   1.959   6.200   8.339  0.6246  2.2249 -1.4280
  190SLPC     N21907   3.125   0.197   6.213 -0.3331 -0.2713 -0.0662
  190SLPC   C1321908   3.094   0.057   6.249 -0.1975 -0.2234 -0.0838
  190SLPC  H13A21909   3.070   0.003   6.158  0.6962 -1.1463  0.2178
  190SLPC  H13B21910   3.175   0.011   6.303 -0.5985  0.3527  1.0467
  190SLPC  H13C21911   3.014   0.065   6.321 -0.6123  1.3345 -0.6773
  190SLPC   C1421912   3.003   0.279   6.186 -0.4900  0.3948 -0.2193
  190SLPC  H14A21913   2.935   0.290   6.269  0.6876  0.4300  0.7671
  190SLPC  H14B21914   3.032   0.381   6.165 -0.1082 -0.1245 -2.4872
  190SLPC  H14C21915   2.951   0.243   6.098  2.4243 -0.5830 -1.6801
  190SLPC   C1521916   3.202   0.183   6.083 -0.1567  0.7152  0.9177
  190SLPC  H15A21917   3.291   0.122   6.093  0.3081  1.1166 -0.4715
  190SLPC  H15B21918   3.134   0.133   6.016  1.7327 -1.4617  0.5139
  190SLPC  H15C21919   3.236   0.279   6.045  1.2095  0.0361  0.3389
  190SLPC   C1221920   3.212   0.266   6.320 -0.2119 -0.0092  0.5318
  190SLPC  H12A21921   3.300   0.203   6.325 -1.1763 -1.5890 -1.0978
  190SLPC  H12B21922   3.159   0.268   6.413 -0.8618 -0.1858  0.1733
  190SLPC   C1121923   3.255   0.417   6.283 -0.5929 -0.8268  0.5418
  190SLPC  H11A21924   3.319   0.407   6.193 -2.0995 -1.8451 -0.4693
  190SLPC  H11B21925   3.324   0.464   6.357 -0.7613  0.9792 -0.3882
  190SLPC     P21926   3.058   0.550   6.389 -0.1675  0.2277  0.2422
  190SLPC   O1321927   3.110   0.689   6.409  0.5272  0.2066 -0.0199
  190SLPC   O1421928   2.917   0.537   6.361  0.1543  0.2374 -0.1916
  190SLPC   O1221929   3.147   0.511   6.252 -0.4523  0.4554 -0.1673
  190SLPC   O1121930   3.112   0.455   6.502  0.7112 -0.9614  0.1956
  190SLPC    C121931   3.017   0.383   6.587  0.6439  0.2601 -0.2549
  190SLPC    HA21932   2.963   0.304   6.530 -1.2594  0.2994  1.3579
  190SLPC    HB21933   3.082   0.344   6.668  1.2883  0.6373 -0.5816
  190SLPC    C221934   2.919   0.482   6.654  0.0822 -0.3640 -0.5163
  190SLPC    HS21935   2.849   0.534   6.585 -0.6287 -1.4658 -0.6695
  190SLPC   O2121936   3.000   0.579   6.722  0.1223  0.0117  0.8865
  190SLPC   C2121937   2.966   0.705   6.725 -0.2848 -0.0064 -0.2506
  190SLPC   O2221938   2.876   0.753   6.658 -0.7518 -1.0161  0.5921
  190SLPC   C2221939   3.068   0.781   6.825  0.4403  0.0740 -0.5095
  190SLPC   H2R21940   3.112   0.863   6.765  0.3861 -0.1183 -0.8164
  190SLPC   H2S21941   2.989   0.822   6.892  0.4263  0.1305 -0.5606
  190SLPC    C321942   2.828   0.409   6.759  0.2074 -0.9663 -0.3456
  190SLPC    HX21943   2.893   0.353   6.830  0.9941  1.1628  0.7142
  190SLPC    HY21944   2.763   0.331   6.714 -0.5611 -0.4332 -0.1772
  190SLPC   O3121945   2.750   0.505   6.836 -0.7360 -0.2022 -0.0518
  190SLPC   C3121946   2.631   0.540   6.787 -0.0930  0.0279  0.2980
  190SLPC   O3221947   2.597   0.509   6.671  0.2398  0.0348 -0.3936
  190SLPC   C3221948   2.535   0.612   6.894 -0.1611  0.4673  0.4203
  190SLPC   H2X21949   2.442   0.551   6.902 -1.3406  1.8616 -1.7270
  190SLPC   H2Y21950   2.506   0.712   6.856 -0.0782  0.5264  0.5127
  190SLPC   C2321951   3.176   0.709   6.904  0.5951 -0.1835  0.3678
  190SLPC   H3R21952   3.238   0.653   6.831  0.2057 -1.3669  0.9124
  190SLPC   H3S21953   3.127   0.631   6.966 -3.2891  1.9892  0.3701
  190SLPC   C2421954   3.266   0.806   6.981  0.3223  0.0594 -0.7335
  190SLPC   H4R21955   3.304   0.887   6.915  2.3563  1.0534  1.5363
  190SLPC   H4S21956   3.364   0.759   7.001  0.6320  1.0778  0.2362
  190SLPC   C2521957   3.200   0.865   7.107  0.5722  0.7303 -0.0219
  190SLPC   H5R21958   3.157   0.786   7.172  1.1773 -0.7884 -1.4047
  190SLPC   H5S21959   3.111   0.921   7.071 -1.2656 -1.0573  1.5362
  190SLPC   C2621960   3.296   0.965   7.177 -0.2505 -0.4172  1.3209
  190SLPC   H6R21961   3.240   1.032   7.246  0.0479 -0.4808  1.6291
  190SLPC   H6S21962   3.327   1.032   7.094 -1.4962 -2.1505 -0.6584
  190SLPC   C2721963   3.425   0.910   7.242  0.0789  0.5385  0.2804
  190SLPC   H7R21964   3.495   0.992   7.264  1.6731 -0.5169 -0.6708
  190SLPC   H7S21965   3.479   0.847   7.168 -2.3317 -1.2424 -0.1313
  190SLPC   C2821966   3.410   0.822   7.373 -0.5993 -0.3605  0.2203
  190SLPC   H8R21967   3.511   0.777   7.385 -0.7530 -1.0522 -0.8569
  190SLPC   H8S21968   3.348   0.737   7.337 -2.1314  0.4238  0.9562
  190SLPC   C2921969   3.353   0.888   7.495 -0.1813 -0.2491  0.6607
  190SLPC   H9R21970   3.388   0.990   7.517 -2.0328  0.4666  0.4248
  190SLPC  C21021971   3.279   0.836   7.594 -0.3686  0.2611  0.6967
  190SLPC  H10R21972   3.242   0.891   7.682  1.9249  0.0314  1.8795
  190SLPC  C21121973   3.229   0.695   7.572 -0.2584  0.2378  0.7239
  190SLPC  H11R21974   3.257   0.645   7.477 -2.9249 -2.1310  1.0324
  190SLPC  H11S21975   3.119   0.691   7.566 -0.1661  0.3221 -3.4397
  190SLPC  C21221976   3.261   0.606   7.688 -0.0183  0.5084  0.0674
  190SLPC  H12R21977   3.352   0.548   7.663  0.5239  1.3175  0.1167
  190SLPC  C21321978   3.216   0.600   7.809 -0.1669 -1.2011 -0.0557
  190SLPC  H13R21979   3.265   0.526   7.874 -0.9404 -1.4845  0.2230
  190SLPC  C21421980   3.104   0.683   7.860  0.0203 -0.1577 -0.4958
  190SLPC  H14R21981   3.059   0.757   7.790 -0.4006  1.9276  1.8404
  190SLPC  H14S21982   3.136   0.754   7.939  0.3827  0.6275 -1.3250
  190SLPC  C21521983   2.991   0.593   7.911 -0.0862  0.0442 -0.4436
  190SLPC  H15R21984   2.953   0.538   7.822 -0.8625  0.4951 -0.3988
  190SLPC  H15S21985   2.899   0.650   7.936 -0.6037 -0.5921 -0.8408
  190SLPC  C21621986   3.030   0.493   8.020 -0.0467 -0.3310  0.1731
  190SLPC  H16R21987   3.068   0.540   8.114  1.6285 -0.4383 -0.4295
  190SLPC  H16S21988   3.116   0.441   7.975  0.4069  0.7180 -0.2189
  190SLPC  C21721989   2.911   0.401   8.048 -0.0382  0.7495 -0.2435
  190SLPC  H17R21990   2.861   0.361   7.957 -2.3577  3.1992 -0.1761
  190SLPC  H17S21991   2.830   0.457   8.098  0.4254 -0.4596  1.9660
  190SLPC  C21821992   2.965   0.285   8.128 -0.7628  0.6614 -0.4414
  190SLPC  H18R21993   2.885   0.214   8.158 -0.7244  1.0277  0.6012
  190SLPC  H18S21994   3.023   0.320   8.217  1.0355  0.5816 -1.5348
  190SLPC  H18T21995   3.033   0.219   8.070 -0.9382 -0.9111  1.0549
  190SLPC   C3321996   2.593   0.622   7.038 -0.0237 -0.1904 -0.9175
  190SLPC   H3X21997   2.618   0.523   7.082 -0.0947  0.2463  0.1156
  190SLPC   H3Y21998   2.503   0.644   7.099  0.5896 -0.7742  0.2136
  190SLPC   C3421999   2.699   0.732   7.042 -0.4058  0.2921 -0.6832
  190SLPC   H4X22000   2.665   0.820   6.983  0.6950  1.8814  0.9335
  190SLPC   H4Y22001   2.792   0.686   7.003 -2.6499 -2.1592 -3.5934
  190SLPC   C3522002   2.741   0.784   7.184  0.2001 -1.0652  0.0474
  190SLPC   H5X22003   2.654   0.832   7.233  0.2335 -2.0746  1.1532
  190SLPC   H5Y22004   2.821   0.860   7.176  1.1772 -1.8899  1.4450
  190SLPC   C3622005   2.786   0.677   7.280  0.4016  0.6897  0.0894
  190SLPC   H6X22006   2.856   0.603   7.236  1.2904  1.7105 -0.2686
  190SLPC   H6Y22007   2.694   0.624   7.311 -0.0240  0.5113 -1.4343
  190SLPC   C3722008   2.857   0.723   7.414  0.7074 -0.2849 -0.9215
  190SLPC   H7X22009   2.955   0.772   7.396  0.3432  1.2238  0.8510
  190SLPC   H7Y22010   2.882   0.637   7.479  0.2104  1.5475  1.8615
  190SLPC   C3822011   2.774   0.818   7.498  0.3479 -0.7000 -0.6707
  190SLPC   H8X22012   2.671   0.780   7.519  0.6223 -2.1640 -1.8557
  190SLPC   H8Y22013   2.766   0.905   7.430 -1.6045 -1.3073 -1.2978
  190SLPC   C3922014   2.838   0.853   7.633 -0.2918  0.2155  0.1498
  190SLPC   H9X22015   2.928   0.915   7.614 -0.2432  0.1446  0.1467
  190SLPC   H9Y22016   2.865   0.759   7.686 -0.3727 -0.8772 -1.6462
  190SLPC  C31022017   2.737   0.925   7.727 -0.5366  0.0209 -0.0330
  190SLPC  H10X22018   2.675   0.850   7.782 -0.1822 -0.1898  0.0829
  190SLPC  H10Y22019   2.690   1.000   7.661  0.1411 -1.2721 -2.1004
  190SLPC  C31122020   2.810   1.005   7.842 -0.2224  0.1961  0.2818
  190SLPC  H11X22021   2.877   1.084   7.801 -1.5011  1.7236  1.0253
  190SLPC  H11Y22022   2.873   0.927   7.888 -0.1095  0.0133 -0.1738
  190SLPC  C31222023   2.722   1.068   7.944 -0.0065  0.4898 -0.2813
  190SLPC  H12X22024   2.624   1.017   7.943  0.3714 -0.2656 -1.3649
  190SLPC  H12Y22025   2.709   1.177   7.924  1.7920  0.5615 -1.3105
  190SLPC  C31322026   2.779   1.059   8.082 -0.0802  0.3416  0.5798
  190SLPC  H13X22027   2.716   1.121   8.149 -0.1674  0.7827  0.0929
  190SLPC  H13Y22028   2.878   1.108   8.091 -0.5727  1.6525 -0.7943
  190SLPC  C31422029   2.782   0.917   8.145 -0.7093  0.0376 -0.3149
  190SLPC  H14X22030   2.832   0.846   8.076  0.6299  2.3792 -1.8868
  190SLPC  H14Y22031   2.683   0.872   8.169 -0.3434 -0.7846 -0.2840
  190SLPC  C31522032   2.873   0.904   8.272 -0.4066  0.4833 -0.1485
  190SLPC  H15X22033   2.823   0.948   8.361 -1.8330 -2.8787  0.8686
  190SLPC  H15Y22034   2.962   0.961   8.238  1.2711 -2.7579 -1.5988
  190SLPC  C31622035   2.910   0.755   8.292 -0.2879 -0.0666 -0.7273
  190SLPC  H16X22036   2.969   0.727   8.203 -0.5857 -0.8837 -0.6766
  190SLPC  H16Y22037   2.821   0.690   8.289 -0.2394 -0.0781 -2.4171
  190SLPC  C31722038   2.990   0.722   8.421 -1.0079 -0.0998 -0.0934
  190SLPC  H17X22039   2.931   0.766   8.505 -0.8057  5.8161 -2.6130
  190SLPC  H17Y22040   3.082   0.783   8.416 -0.3314 -1.1086 -0.1527
  190SLPC  C31822041   3.022   0.574   8.445 -0.0624 -0.2326 -0.2728
  190SLPC  H18X22042   2.928   0.516   8.456  0.6491 -1.4993 -0.6692
  190SLPC  H18Y22043   3.074   0.575   8.543  1.7990  1.7482 -1.1924
  190SLPC  H18Z22044   3.082   0.525   8.365  1.8675  1.1241  0.2827
  191SLPC     N22045   2.518   5.787   5.957 -0.6628 -0.0050 -0.0260
  191SLPC   C1322046   2.491   5.676   5.859 -0.6507  0.4018  0.5181
  191SLPC  H13A22047   2.530   5.700   5.762 -1.6353 -0.4262 -0.1036
  191SLPC  H13B22048   2.533   5.582   5.892  1.2510  1.0401  0.0273
  191SLPC  H13C22049   2.386   5.656   5.843 -0.3959 -1.7297  1.2548
  191SLPC   C1422050   2.447   5.745   6.083 -0.2431 -0.1668 -0.4788
  191SLPC  H14A22051   2.478   5.643   6.104  3.8137  1.4504  2.8001
  191SLPC  H14B22052   2.484   5.800   6.168 -1.1897 -0.5860  0.2258
  191SLPC  H14C22053   2.341   5.763   6.078 -0.3070 -0.5340 -0.5202
  191SLPC   C1522054   2.450   5.907   5.913 -0.1648  0.1990  0.8019
  191SLPC  H15A22055   2.349   5.883   5.885  0.7463 -1.4605 -1.3512
  191SLPC  H15B22056   2.438   5.987   5.984  0.0541  0.6280  0.3690
  191SLPC  H15C22057   2.498   5.955   5.828 -2.2508  0.0902 -0.5095
  191SLPC   C1222058   2.672   5.808   5.971  0.1857 -0.5172  0.1922
  191SLPC  H12A22059   2.725   5.842   5.883 -0.3541  2.9354  1.0578
  191SLPC  H12B22060   2.719   5.716   6.001  0.3433 -0.6910 -0.5679
  191SLPC   C1122061   2.726   5.908   6.068  0.8710 -0.2725 -0.0804
  191SLPC  H11A22062   2.836   5.916   6.057  1.1581  0.1714  2.4554
  191SLPC  H11B22063   2.700   5.882   6.173 -1.6629 -0.7567 -0.7572
  191SLPC     P22064   2.748   6.129   5.945 -0.3673  0.5511 -0.5482
  191SLPC   O1322065   2.839   6.046   5.864 -0.4406  0.4810  0.1898
  191SLPC   O1422066   2.660   6.220   5.866 -0.1585  0.1152  0.1336
  191SLPC   O1222067   2.661   6.035   6.035  0.0329 -0.6126  0.7684
  191SLPC   O1122068   2.829   6.215   6.050  0.5319  0.0515 -0.3368
  191SLPC    C122069   2.776   6.320   6.129  1.0867 -0.7037  0.3036
  191SLPC    HA22070   2.684   6.365   6.086  2.0109  2.2605  1.1844
  191SLPC    HB22071   2.746   6.289   6.232 -3.7608  0.8783 -0.3407
  191SLPC    C222072   2.880   6.431   6.140 -0.3334  0.0399 -0.2872
  191SLPC    HS22073   2.910   6.449   6.035 -2.6215 -3.7847 -1.8183
  191SLPC   O2122074   2.999   6.387   6.218  0.4018 -0.2421  0.2292
  191SLPC   C2122075   3.089   6.473   6.214  0.2872 -0.6939 -0.0847
  191SLPC   O2222076   3.085   6.578   6.145  0.1101  0.3312 -0.3296
  191SLPC   C2222077   3.201   6.445   6.320  0.4022 -0.7293  0.3753
  191SLPC   H2R22078   3.155   6.389   6.404 -1.1625 -1.7180 -1.0874
  191SLPC   H2S22079   3.269   6.376   6.265 -0.5373 -1.4950  0.1611
  191SLPC    C322080   2.806   6.568   6.182 -0.4887  0.2603  0.7374
  191SLPC    HX22081   2.729   6.582   6.103 -0.3553  2.3138  0.9390
  191SLPC    HY22082   2.873   6.656   6.173 -1.4597  0.8013 -3.8874
  191SLPC   O3122083   2.745   6.552   6.308  0.3976  0.2907  0.2765
  191SLPC   C3122084   2.763   6.647   6.395 -0.1157 -0.3246  0.9090
  191SLPC   O3222085   2.853   6.728   6.389  0.4563 -0.4221  0.3690
  191SLPC   C3222086   2.647   6.645   6.500 -0.5781 -0.0237  0.2053
  191SLPC   H2X22087   2.589   6.551   6.485 -0.7414 -0.0696  1.0468
  191SLPC   H2Y22088   2.587   6.733   6.470  2.0896  1.1529 -2.0678
  191SLPC   C2322089   3.272   6.569   6.386  0.7667 -0.1504 -0.2661
  191SLPC   H3R22090   3.289   6.650   6.312 -0.8609  0.1190 -0.3878
  191SLPC   H3S22091   3.370   6.528   6.419 -0.2492 -1.4432  1.3383
  191SLPC   C2422092   3.198   6.620   6.505  0.1230 -0.3245  0.1348
  191SLPC   H4R22093   3.180   6.531   6.568 -1.9855  0.2851  0.4654
  191SLPC   H4S22094   3.096   6.649   6.473  0.2238 -1.2991 -1.1467
  191SLPC   C2522095   3.275   6.734   6.570 -0.3379 -0.3485  0.5186
  191SLPC   H5R22096   3.260   6.833   6.521  0.0848  0.5383  2.0886
  191SLPC   H5S22097   3.381   6.701   6.572 -0.5633 -1.1879 -0.5513
  191SLPC   C2622098   3.239   6.767   6.716 -0.7287 -0.4237 -0.0135
  191SLPC   H6R22099   3.322   6.825   6.763  0.2217 -0.0471 -2.0193
  191SLPC   H6S22100   3.231   6.670   6.770 -1.4863 -0.5770 -0.3995
  191SLPC   C2722101   3.110   6.855   6.729 -0.0901  0.2392 -1.0949
  191SLPC   H7R22102   3.025   6.814   6.670 -0.5074 -0.9048  0.2237
  191SLPC   H7S22103   3.128   6.959   6.695 -1.4987 -0.2634 -3.6257
  191SLPC   C2822104   3.048   6.852   6.872 -0.0958 -0.0671 -0.0026
  191SLPC   H8R22105   3.032   6.747   6.902  0.6105 -0.1261  0.1829
  191SLPC   H8S22106   2.949   6.901   6.865  0.3106  0.9168  0.7036
  191SLPC   C2922107   3.139   6.918   6.969  0.5691  0.5464 -0.8217
  191SLPC   H9R22108   3.246   6.918   6.944  0.1125 -0.6212 -2.9758
  191SLPC  C21022109   3.100   6.984   7.082  0.8051 -0.6287 -0.0038
  191SLPC  H10R22110   3.177   7.025   7.149 -0.5621 -0.0091  1.2723
  191SLPC  C21122111   2.953   7.004   7.129 -0.4917 -0.4539  0.7159
  191SLPC  H11R22112   2.920   6.934   7.209 -2.4010 -0.0772  0.3012
  191SLPC  H11S22113   2.884   6.997   7.042  0.5899  1.5901 -0.3899
  191SLPC  C21222114   2.950   7.152   7.182 -0.2659 -0.3434  0.0316
  191SLPC  H12R22115   2.952   7.228   7.103 -0.0314 -1.6399 -1.2479
  191SLPC  C21322116   2.957   7.180   7.309  0.4842 -0.1270 -0.9163
  191SLPC  H13R22117   2.963   7.283   7.347  0.6829 -0.3007 -0.4671
  191SLPC  C21422118   2.975   7.087   7.428  0.2207  0.0362  0.1105
  191SLPC  H14R22119   2.994   6.982   7.400 -1.4724 -0.8406  1.9641
  191SLPC  H14S22120   2.890   7.097   7.500  0.5329  0.7854  0.3875
  191SLPC  C21522121   3.085   7.149   7.516 -0.1112  0.3109 -0.2206
  191SLPC  H15R22122   3.040   7.228   7.581  0.8331  0.4809  0.2581
  191SLPC  H15S22123   3.172   7.186   7.458 -1.4288  0.5316 -2.1347
  191SLPC  C21622124   3.138   7.045   7.614  0.9030  0.3576 -0.2661
  191SLPC  H16R22125   3.209   6.975   7.567  0.7172 -1.9385  2.5839
  191SLPC  H16S22126   3.053   6.982   7.647 -0.2733  1.8124 -0.3924
  191SLPC  C21722127   3.214   7.104   7.732 -0.0713 -0.3359 -1.0960
  191SLPC  H17R22128   3.139   7.170   7.780 -0.4003  0.1308 -2.2159
  191SLPC  H17S22129   3.302   7.160   7.695 -0.0095 -0.4660 -1.1467
  191SLPC  C21822130   3.267   7.002   7.829 -0.7214  0.4371  0.5376
  191SLPC  H18R22131   3.344   6.940   7.779  0.9479  0.6537  2.6756
  191SLPC  H18S22132   3.181   6.943   7.870 -0.7303 -1.1322 -1.5749
  191SLPC  H18T22133   3.319   7.060   7.908  1.9921  1.0211 -1.5646
  191SLPC   C3322134   2.685   6.661   6.646 -0.7053 -0.0761 -0.5064
  191SLPC   H3X22135   2.590   6.685   6.698 -1.9761 -2.1408 -1.6810
  191SLPC   H3Y22136   2.761   6.738   6.671  0.0497 -1.4791  1.8607
  191SLPC   C3422137   2.729   6.529   6.700  0.3760  0.3810  0.1567
  191SLPC   H4X22138   2.806   6.490   6.629  0.0946 -3.9797  1.9584
  191SLPC   H4Y22139   2.648   6.453   6.706 -0.1428  0.8790 -0.4187
  191SLPC   C3522140   2.801   6.544   6.828 -0.7703  0.0838 -0.1249
  191SLPC   H5X22141   2.796   6.646   6.872  1.2215 -0.4398  1.4861
  191SLPC   H5Y22142   2.909   6.530   6.804 -1.1775 -0.1419 -2.0140
  191SLPC   C3622143   2.770   6.435   6.940 -0.0102  0.4110  0.1922
  191SLPC   H6X22144   2.791   6.332   6.904 -1.9145 -0.9336  2.6262
  191SLPC   H6Y22145   2.664   6.432   6.974  0.2206 -1.9781  0.8897
  191SLPC   C3722146   2.854   6.447   7.070 -0.3706 -0.5714 -0.4042
  191SLPC   H7X22147   2.960   6.433   7.042  0.3466  1.0877  1.2369
  191SLPC   H7Y22148   2.831   6.371   7.148  0.5167  0.8473  1.3278
  191SLPC   C3822149   2.836   6.577   7.151 -0.6193 -0.1953 -0.1674
  191SLPC   H8X22150   2.732   6.614   7.139  0.6420  4.0413  0.1163
  191SLPC   H8Y22151   2.903   6.660   7.119 -0.0661 -0.2653  0.8001
  191SLPC   C3922152   2.877   6.547   7.298  0.3091  0.2241 -0.7932
  191SLPC   H9X22153   2.985   6.522   7.306  0.5311  0.4505 -2.6585
  191SLPC   H9Y22154   2.819   6.464   7.343  0.1160  0.5573 -0.4149
  191SLPC  C31022155   2.854   6.669   7.391  0.0557 -0.7836  0.4760
  191SLPC  H10X22156   2.761   6.725   7.369  0.9375  1.2257  1.6501
  191SLPC  H10Y22157   2.942   6.735   7.379 -0.1406 -0.5916  0.0558
  191SLPC  C31122158   2.837   6.624   7.538  0.6510  0.1072  0.3557
  191SLPC  H11X22159   2.930   6.584   7.582  0.2346 -1.6515 -0.3060
  191SLPC  H11Y22160   2.755   6.549   7.542  0.4482  0.3449  0.8529
  191SLPC  C31222161   2.787   6.739   7.626 -0.3565 -0.5881  0.1348
  191SLPC  H12X22162   2.686   6.739   7.580  0.3229 -0.7469 -1.4414
  191SLPC  H12Y22163   2.838   6.833   7.595  2.4813 -1.5711  1.4985
  191SLPC  C31322164   2.800   6.712   7.776  0.6746  0.2554  0.4541
  191SLPC  H13X22165   2.903   6.669   7.787  0.6469 -0.1698 -0.7722
  191SLPC  H13Y22166   2.734   6.628   7.808 -2.0206  2.2198  0.3231
  191SLPC  C31422167   2.767   6.830   7.863 -0.3553  0.3244  0.5514
  191SLPC  H14X22168   2.800   6.927   7.820 -0.3360  0.5506  1.0787
  191SLPC  H14Y22169   2.810   6.815   7.964  1.7660  2.8745  0.1407
  191SLPC  C31522170   2.610   6.830   7.886 -0.5581  0.0460  0.2297
  191SLPC  H15X22171   2.579   6.739   7.943  1.2049 -1.3176 -0.8478
  191SLPC  H15Y22172   2.548   6.832   7.794 -0.7130  2.3575  0.3466
  191SLPC  C31622173   2.564   6.964   7.949  0.3780  0.2771 -0.3187
  191SLPC  H16X22174   2.564   7.050   7.879  0.1925  0.9893  0.5333
  191SLPC  H16Y22175   2.643   6.977   8.027  1.6435  0.5439 -1.6005
  191SLPC  C31722176   2.422   6.937   8.028  0.2406 -0.2682  0.8332
  191SLPC  H17X22177   2.343   6.886   7.970  1.3936 -2.2335  0.9238
  191SLPC  H17Y22178   2.379   7.034   8.062 -0.4884 -0.8011  1.4879
  191SLPC  C31822179   2.441   6.848   8.151 -0.4558 -0.0158  0.0227
  191SLPC  H18X22180   2.351   6.791   8.182  1.1974 -2.4845  0.6298
  191SLPC  H18Y22181   2.486   6.911   8.231 -1.4781 -0.0228  0.6181
  191SLPC  H18Z22182   2.524   6.775   8.138  0.4684  0.6972  1.6084
  192SLPC     N22183   2.950   2.077   6.051  0.5343  0.2430 -0.0695
  192SLPC   C1322184   2.960   2.091   5.906  0.1680  0.5038  0.4656
  192SLPC  H13A22185   2.862   2.080   5.861  0.4539  0.2058 -0.0834
  192SLPC  H13B22186   2.984   2.196   5.896 -1.5925  1.0665  1.6268
  192SLPC  H13C22187   3.038   2.030   5.864 -0.5294 -0.2081  0.1642
  192SLPC   C1422188   2.899   1.940   6.089 -0.0053  0.6310  0.2676
  192SLPC  H14A22189   2.891   1.935   6.196 -1.2004  2.1121  0.2750
  192SLPC  H14B22190   2.799   1.910   6.059 -0.0474  2.1755 -1.2951
  192SLPC  H14C22191   2.948   1.857   6.040 -1.8070 -0.7367  0.6346
  192SLPC   C1522192   2.845   2.177   6.100 -0.4441  0.2893  0.4479
  192SLPC  H15A22193   2.822   2.172   6.206  0.0592  0.6368  0.5788
  192SLPC  H15B22194   2.879   2.278   6.080  2.3360 -0.8419 -0.9859
  192SLPC  H15C22195   2.752   2.163   6.048  0.5199 -2.5683 -0.6863
  192SLPC   C1222196   3.083   2.103   6.122  0.0170  0.2993  0.0934
  192SLPC  H12A22197   3.122   2.201   6.095  1.1519  0.2692  1.5032
  192SLPC  H12B22198   3.160   2.035   6.089 -0.1505 -0.2291  0.7856
  192SLPC   C1122199   3.085   2.092   6.275 -0.4642  0.6411 -0.6053
  192SLPC  H11A22200   3.019   2.165   6.327  0.0063 -0.6039  1.9335
  192SLPC  H11B22201   3.188   2.116   6.310  0.4206  0.4710 -2.9367
  192SLPC     P22202   3.151   1.852   6.347  0.0215  0.2183  0.1094
  192SLPC   O1322203   3.088   1.723   6.320 -0.1854 -0.2505  0.3210
  192SLPC   O1422204   3.271   1.881   6.263 -0.0351 -0.5359 -0.0764
  192SLPC   O1222205   3.044   1.966   6.326  0.5241 -0.4176  0.2053
  192SLPC   O1122206   3.184   1.851   6.500  0.3841  0.2698 -1.0874
  192SLPC    C122207   3.244   1.958   6.573 -0.6102  0.5176  0.0579
  192SLPC    HA22208   3.216   2.055   6.529 -2.1240  0.0411 -0.0845
  192SLPC    HB22209   3.210   1.963   6.679  0.2232 -1.1802  0.4567
  192SLPC    C222210   3.399   1.938   6.583  0.5267  0.7847  0.1237
  192SLPC    HS22211   3.448   1.932   6.483 -0.6056  1.8970 -0.5263
  192SLPC   O2122212   3.424   1.819   6.659 -0.3830  0.0586  0.1423
  192SLPC   C2122213   3.448   1.708   6.601 -0.1370 -0.0607  0.5401
  192SLPC   O2222214   3.451   1.681   6.480 -0.6846  0.5562  0.7198
  192SLPC   C2222215   3.465   1.601   6.715 -0.2146 -0.2307  0.8636
  192SLPC   H2R22216   3.480   1.511   6.653 -1.1198  1.8653 -2.7073
  192SLPC   H2S22217   3.540   1.633   6.790 -0.6358 -1.5028  1.8622
  192SLPC    C322218   3.464   2.056   6.668 -0.1210 -0.1935  1.0511
  192SLPC    HX22219   3.431   2.142   6.607  1.4382 -1.0978 -1.2181
  192SLPC    HY22220   3.573   2.044   6.653  0.1522  2.8687 -0.1020
  192SLPC   O3122221   3.408   2.061   6.803 -0.2319 -0.3191  0.3528
  192SLPC   C3122222   3.478   1.997   6.889 -0.3230 -0.1317  0.3004
  192SLPC   O3222223   3.578   1.927   6.865  0.0623 -0.5695 -0.0665
  192SLPC   C3222224   3.423   2.040   7.032  0.2194 -0.5146 -0.3235
  192SLPC   H2X22225   3.317   2.069   7.014 -0.5464 -1.0386  2.7680
  192SLPC   H2Y22226   3.478   2.128   7.072  0.3367 -0.5312 -0.4455
  192SLPC   C2322227   3.327   1.595   6.791 -0.0006 -0.2780  0.8741
  192SLPC   H3R22228   3.315   1.694   6.839  2.0270  0.6434 -0.3768
  192SLPC   H3S22229   3.327   1.516   6.870 -0.2262 -0.7595  0.3977
  192SLPC   C2422230   3.203   1.564   6.712  0.2387 -0.2148  0.2212
  192SLPC   H4R22231   3.162   1.660   6.674  4.2545  1.3681 -0.6004
  192SLPC   H4S22232   3.128   1.538   6.790 -0.6256  2.1610  0.2720
  192SLPC   C2522233   3.225   1.452   6.610  0.2985 -0.6476  0.2821
  192SLPC   H5R22234   3.288   1.366   6.642  0.9797 -0.1713  0.2567
  192SLPC   H5S22235   3.269   1.501   6.520  2.0922 -0.1952  1.3558
  192SLPC   C2622236   3.091   1.387   6.570  0.0096  0.1952 -0.4620
  192SLPC   H6R22237   3.100   1.341   6.469 -2.0405  1.1796 -1.1506
  192SLPC   H6S22238   3.014   1.467   6.567 -0.9708 -0.5376  2.1137
  192SLPC   C2722239   3.046   1.270   6.662 -0.1868  0.2631 -0.3400
  192SLPC   H7R22240   3.096   1.287   6.760 -1.7432  1.2569  0.3375
  192SLPC   H7S22241   3.085   1.177   6.616  4.8330  1.8941  0.0576
  192SLPC   C2822242   2.893   1.265   6.675 -0.1402 -0.0636  0.0894
  192SLPC   H8R22243   2.857   1.288   6.573  0.3930  0.8525  0.0976
  192SLPC   H8S22244   2.862   1.351   6.739 -0.7211  0.7135 -1.2090
  192SLPC   C2922245   2.844   1.126   6.727  0.2353  0.3079 -0.0080
  192SLPC   H9R22246   2.839   1.053   6.644  0.3468  2.6487 -2.2083
  192SLPC  C21022247   2.812   1.083   6.850  0.2665 -0.3260  0.4518
  192SLPC  H10R22248   2.782   0.978   6.865 -3.1404  0.3961 -0.4151
  192SLPC  C21122249   2.805   1.174   6.965  0.2640 -0.1807 -0.0236
  192SLPC  H11R22250   2.725   1.132   7.029  1.1146 -0.5134  0.8400
  192SLPC  H11S22251   2.773   1.276   6.934  1.4375 -0.3218 -1.8506
  192SLPC  C21222252   2.931   1.186   7.041 -0.9598 -0.2276 -0.4593
  192SLPC  H12R22253   3.010   1.229   6.978 -1.1866 -0.1561 -0.6977
  192SLPC  C21322254   2.965   1.154   7.166  0.1067 -0.0287  0.2987
  192SLPC  H13R22255   3.065   1.174   7.208  0.7997 -1.3804 -0.6648
  192SLPC  C21422256   2.870   1.105   7.272 -0.0353  0.2630 -0.0517
  192SLPC  H14R22257   2.904   1.003   7.302 -0.8216 -0.3639 -1.1731
  192SLPC  H14S22258   2.771   1.081   7.225  0.2106 -0.6100 -0.1521
  192SLPC  C21522259   2.851   1.187   7.395 -0.3007 -0.5652 -1.4869
  192SLPC  H15R22260   2.776   1.132   7.456  0.4365 -1.4884 -1.4063
  192SLPC  H15S22261   2.824   1.295   7.385  0.2329 -0.4022 -1.2430
  192SLPC  C21622262   2.980   1.179   7.481  0.3369  0.5504  0.5960
  192SLPC  H16R22263   3.068   1.203   7.417 -0.4083 -3.1469 -2.1895
  192SLPC  H16S22264   2.992   1.073   7.514 -0.5333 -0.0104 -0.8080
  192SLPC  C21722265   2.981   1.277   7.603  0.6168 -0.4041  0.1479
  192SLPC  H17R22266   2.971   1.386   7.583 -0.9787 -0.5107  0.2724
  192SLPC  H17S22267   2.895   1.245   7.665 -0.4163 -0.8341 -1.4740
  192SLPC  C21822268   3.105   1.247   7.690 -0.4886 -0.6501  0.0857
  192SLPC  H18R22269   3.197   1.261   7.628  0.3490  0.1610  1.4563
  192SLPC  H18S22270   3.098   1.147   7.737 -2.1228 -0.0338  1.2444
  192SLPC  H18T22271   3.108   1.319   7.775 -1.6653 -1.5906  0.9481
  192SLPC   C3322272   3.423   1.928   7.142  0.0509 -0.7595 -0.3533
  192SLPC   H3X22273   3.519   1.873   7.156  0.3711  0.3027  2.0080
  192SLPC   H3Y22274   3.343   1.856   7.114 -2.1470  1.5523 -0.4009
  192SLPC   C3422275   3.382   1.990   7.282  0.1203 -0.0804 -0.8270
  192SLPC   H4X22276   3.298   1.926   7.315 -0.4295 -0.1239 -2.2460
  192SLPC   H4Y22277   3.334   2.089   7.268 -0.9057 -0.3807  0.3387
  192SLPC   C3522278   3.504   1.999   7.382  0.5913  0.0132  0.1829
  192SLPC   H5X22279   3.564   2.084   7.342  2.1462 -0.5546  1.1979
  192SLPC   H5Y22280   3.560   1.903   7.377  0.6228 -0.0236  1.0282
  192SLPC   C3622281   3.473   2.026   7.524 -0.1242  0.2048 -0.9413
  192SLPC   H6X22282   3.554   2.088   7.566 -0.9631  0.5623  0.1959
  192SLPC   H6Y22283   3.452   1.929   7.575 -3.4978  0.3342 -1.8284
  192SLPC   C3722284   3.343   2.109   7.540 -0.6498 -0.4325  0.3158
  192SLPC   H7X22285   3.260   2.055   7.491  0.1192 -1.4144  0.0709
  192SLPC   H7Y22286   3.341   2.211   7.495 -1.1642  0.5930  2.5068
  192SLPC   C3822287   3.290   2.100   7.687 -0.4609 -0.1905  0.1320
  192SLPC   H8X22288   3.255   1.995   7.697 -1.3263 -0.2635 -2.7614
  192SLPC   H8Y22289   3.198   2.164   7.684 -1.2032 -1.2589 -0.5621
  192SLPC   C3922290   3.387   2.132   7.796 -0.4286  0.1409 -0.0331
  192SLPC   H9X22291   3.401   2.242   7.789  3.1439 -0.1956  0.3175
  192SLPC   H9Y22292   3.488   2.089   7.782  0.4513  2.1192 -0.0536
  192SLPC  C31022293   3.332   2.086   7.933 -0.0755 -0.3871 -0.6469
  192SLPC  H10X22294   3.295   1.981   7.930 -2.1196  0.2105  1.1892
  192SLPC  H10Y22295   3.245   2.150   7.959  0.6183 -0.0674  1.0078
  192SLPC  C31122296   3.429   2.107   8.043 -0.4751  0.3276  0.2754
  192SLPC  H11X22297   3.446   2.216   8.054 -0.6813  0.6183 -1.7566
  192SLPC  H11Y22298   3.520   2.046   8.024 -0.1056  1.2363 -1.0684
  192SLPC  C31222299   3.369   2.054   8.177 -0.2280  0.6101 -0.7251
  192SLPC  H12X22300   3.366   1.943   8.181 -0.7562  0.6068 -1.1007
  192SLPC  H12Y22301   3.263   2.086   8.184  0.0029  1.2946 -0.2180
  192SLPC  C31322302   3.447   2.107   8.296 -0.2293 -0.1604  0.2765
  192SLPC  H13X22303   3.419   2.213   8.313 -0.4618  0.2017 -2.1019
  192SLPC  H13Y22304   3.556   2.095   8.281  0.1441  1.6730  1.2126
  192SLPC  C31422305   3.415   2.036   8.434 -0.2521 -0.0872  0.3884
  192SLPC  H14X22306   3.453   1.933   8.419 -0.1596 -0.1183  0.8251
  192SLPC  H14Y22307   3.304   2.032   8.443 -0.2143  0.3209  1.0877
  192SLPC  C31522308   3.470   2.110   8.546 -0.6119 -0.2100  0.0206
  192SLPC  H15X22309   3.429   2.212   8.558  0.9074  0.5865 -1.1775
  192SLPC  H15Y22310   3.581   2.118   8.535 -0.7513  0.9140 -0.7347
  192SLPC  C31622311   3.443   2.037   8.678 -0.1399 -0.5262  0.2650
  192SLPC  H16X22312   3.456   1.928   8.665 -0.0244 -0.2853 -2.0598
  192SLPC  H16Y22313   3.333   2.036   8.695 -0.5563 -0.3375 -2.1225
  192SLPC  C31722314   3.529   2.106   8.786  0.3859  0.7767 -0.1518
  192SLPC  H17X22315   3.493   2.211   8.791 -1.0855  0.2423  1.2778
  192SLPC  H17Y22316   3.632   2.094   8.746 -0.0165  0.1042 -1.0143
  192SLPC  C31822317   3.516   2.040   8.923 -0.2000 -0.0593 -0.1420
  192SLPC  H18X22318   3.411   2.038   8.958 -0.1429  0.4163  0.0629
  192SLPC  H18Y22319   3.575   2.095   8.999 -1.1426  0.5511  0.1597
  192SLPC  H18Z22320   3.554   1.935   8.927  1.1874  0.3695 -1.2975
  193SOD    SOD22321   2.498   5.830  15.479  0.3312  0.3520 -0.0417
  194SOD    SOD22322   5.760   5.200  15.320  0.1642 -0.4031 -0.4831
  195SOD    SOD22323   0.256   2.634   5.686 -0.1507  0.4651  0.0251
  196SOD    SOD22324   1.933   6.638  12.020 -0.0326 -0.1011  0.2165
  197SOD    SOD22325   5.129   2.865   2.871  0.4590  0.3750 -0.0132
  198SOD    SOD22326   1.181   4.957  12.176 -0.0472  0.1101 -0.3636
  199SOD    SOD22327   4.570   5.284  14.579  0.0526 -0.7480 -0.2857
  200SOD    SOD22328   1.525   1.591  11.069  0.3547  0.0132 -0.2643
  201SOD    SOD22329   2.941   2.728  12.497 -0.7325  0.2503 -0.0861
  202SOD    SOD22330   1.762   1.814  12.489  0.2537 -0.1505 -0.4310
  203SOD    SOD22331   2.050   3.791  12.979 -0.1336 -0.0318  0.5101
  204SOD    SOD22332   0.507   1.424   0.398 -0.4331  0.3108 -0.2782
  205SOD    SOD22333   4.700   3.229   1.335  0.2421  0.1802 -0.1369
  206SOD    SOD22334   1.014   6.120  16.214  0.6574  0.0985  0.1371
  207SOD    SOD22335   4.473   2.058  14.809 -0.5597 -0.2360  0.0997
  208SOD    SOD22336   1.061   4.212   2.615  0.0879  0.2716 -0.1440
  209SOD    SOD22337   4.941   1.023  11.425 -0.2197 -0.7081  0.2965
  210SOD    SOD22338   0.452   2.775   0.362  0.2507 -0.1975 -0.1267
  211SOD    SOD22339   6.110   2.799   2.370  0.0393 -0.0245  0.1901
  212SOD    SOD22340   3.986   3.464   0.507  0.1363 -0.1301  0.6608
  213SOD    SOD22341   3.190   1.781  11.456  0.3061 -0.1157  0.1958
  214SOD    SOD22342   2.711   5.153   6.058  0.0273 -0.0716  0.4210
  215SOD    SOD22343   1.477   2.272  15.554 -0.6174 -0.1879 -0.2568
  216SOD    SOD22344   3.815   4.348   1.763  0.3153 -0.7247 -0.1738
  217SOD    SOD22345   4.958   6.283  13.570 -0.2412  0.4849 -0.0084
  218SOD    SOD22346   0.029   4.719   0.601  0.2043  0.1394  0.1258
  219SOD    SOD22347   3.553   0.375  12.299  0.1886  0.3973  0.2211
  220SOD    SOD22348   0.919   6.602   2.293  0.6327  0.2823  0.3321
  221SOD    SOD22349   2.648   2.669  12.020  0.1508 -0.2438 -0.2563
  222SOD    SOD22350   2.817   6.354   5.461 -0.4935 -0.3459 -0.3017
  223SOD    SOD22351   2.099   4.928  11.360  0.1438  0.1074 -0.0403
  224SOD    SOD22352   3.438   3.244  12.002  0.2748  0.1363  0.4408
  225SOD    SOD22353   4.102   1.506  15.227  0.0641  0.3179  0.3302
  226SOD    SOD22354   0.348   5.200  10.808 -0.3373 -0.0945 -0.0518
  227SOD    SOD22355   6.084   5.884   3.603 -0.1218 -0.3916 -0.3145
  228SOD    SOD22356   2.329   6.048   3.601 -1.1779 -0.1646 -0.5809
  229SOD    SOD22357   1.687   1.686  15.789  0.0317 -0.3119 -0.7948
  230SOD    SOD22358   3.006   1.490   5.883  0.0292 -0.1575  0.0286
  231SOD    SOD22359   2.108   6.182  13.669 -0.0144 -0.2242 -0.5397
  232SOD    SOD22360   4.709   4.958  13.348 -0.1624 -0.3055  0.1364
  233SOD    SOD22361   6.533   6.266  10.638 -0.4480 -0.1533 -0.0867
  234SOD    SOD22362   6.234   2.690  16.486  0.0637 -0.3285 -0.6039
  235SOD    SOD22363   5.415   1.703   5.053  0.5071 -0.1550 -0.3776
  236SOD    SOD22364   0.415   6.822   2.540 -0.2074 -0.0150 -0.3302
  237SOD    SOD22365   0.189   3.981  12.969 -0.3280  0.0212  0.7318
  238SOD    SOD22366   5.446   2.560   3.317  0.1494 -0.3271 -0.2843
  239SOD    SOD22367   6.598   3.460   4.936 -0.2011  0.0612 -0.0413
  240SOD    SOD22368   6.383   4.666   5.024  0.1185 -0.3745  0.4969
  241SOD    SOD22369   6.316   6.274  11.621 -0.2581 -0.1191  0.0580
  242SOD    SOD22370   2.970   3.322   6.102  0.6469 -0.1187 -0.0391
  243SOD    SOD22371   5.302   4.965   3.485 -0.2251  0.1345  0.6930
  244SOD    SOD22372   4.190   5.016   5.680 -0.2639 -0.5750  0.0061
  245SOD    SOD22373   5.903   2.583   6.646  0.3470 -0.0676  0.0350
  246SOD    SOD22374   2.008   3.226   2.341 -0.1128 -0.1139 -0.0414
  247SOD    SOD22375   5.080   4.352  12.216 -0.5068 -0.2922 -0.2365
  248SOD    SOD22376   5.245   4.722  11.069  0.0933 -0.5303  0.0146
  249SOD    SOD22377   5.727   6.350  10.853 -0.2082 -0.1121  0.3992
  250SOD    SOD22378   4.865   5.041   1.428  0.4802  0.5839 -0.0836
  251SOD    SOD22379   5.420   2.166   1.335 -0.0162  0.2181  0.3297
  252SOD    SOD22380   1.603   1.801  10.410  0.0668 -0.4889 -0.2348
  253SOD    SOD22381   0.106   4.833   6.696  0.3136  0.1247  0.3499
  254SOD    SOD22382   3.476   3.343  11.130  0.9874 -0.4478 -0.2592
  255SOD    SOD22383   4.987   3.568   5.998  0.2601 -0.1955  0.5488
  256SOD    SOD22384   4.371   3.583  17.265 -0.1912  0.1999 -0.2507
  257SOD    SOD22385   1.115   2.606   5.160 -0.1769 -0.4570  0.4576
  258SOD    SOD22386   2.589   0.921   6.347  0.4053 -0.0186  0.0026
  259SOD    SOD22387   3.581   2.726  14.162 -0.2396  0.6161 -0.0922
  260SOD    SOD22388   3.536   1.942   4.871 -0.8193 -0.4867 -0.2085
  261SOD    SOD22389   6.131   0.466  16.478  0.4816 -0.4540 -0.1543
  262SOD    SOD22390   0.299   3.625  12.298 -0.3921  0.0297 -0.1465
  263SOD    SOD22391   1.318   1.208  13.414 -0.3396  0.3279 -0.3760
  264SOD    SOD22392   5.331   0.526   5.055 -0.4497 -0.1453 -0.4523
  265SOD    SOD22393   5.268   1.012  13.842 -0.0622 -0.5152 -0.1976
  266CLA    CLA22394   5.223   4.904   3.249  0.1201  0.1529 -0.0787
  267CLA    CLA22395   2.189   1.075  16.351  0.0577  0.0494  0.4545
  268CLA    CLA22396   6.327   2.485   1.894 -0.2040  0.3595  0.0235
  269CLA    CLA22397   6.042   4.507   4.292  0.0584  0.2130  0.0277
  270CLA    CLA22398   5.767   0.603  14.276  0.4772 -0.0107  0.1031
  271CLA    CLA22399   2.173   3.878  13.933  0.0900 -0.2447  0.1161
  272CLA    CLA22400   6.818   5.542   3.588  0.1494  0.0961 -0.0290
  273CLA    CLA22401   5.503   3.400  15.948  0.1280  0.1013 -0.0902
  274CLA    CLA22402   4.649   3.408   2.850  0.3585  0.1679 -0.2423
  275CLA    CLA22403   1.922   1.441  13.715  0.0648  0.5602 -0.0229
  276CLA    CLA22404   6.352   5.150  11.373  0.1646 -0.3942 -0.2617
  277CLA    CLA22405   5.493   3.755  11.502  0.0873  0.2813  0.1031
  278CLA    CLA22406   5.601   3.506   5.260  0.0505 -0.3410 -0.3491
  279CLA    CLA22407   0.348   3.729  11.560 -0.1867  0.2875 -0.2485
  280CLA    CLA22408   4.003   3.885   1.253  0.1131 -0.2201 -0.1882
  281CLA    CLA22409   5.559   1.289  15.342  0.2339  0.3250  0.1651
  282CLA    CLA22410   4.775   6.274   2.413 -0.0770  0.1221  0.0304
  283CLA    CLA22411   5.910   2.852  15.280  0.0608  0.1122  0.2342
  284CLA    CLA22412   4.837   5.899  14.656  0.4834 -0.0748 -0.6413
  285CLA    CLA22413   5.221   1.690   4.838  0.1353  0.6880  0.0052
  286CLA    CLA22414   3.703   0.644  15.750  0.1643  0.3326 -0.2973
  287CLA    CLA22415   6.289   5.612  13.162 -0.1587 -0.6324  0.0313
  288CLA    CLA22416   1.204   6.414   5.357  0.0481 -0.2285  0.5359
  289CLA    CLA22417   0.467   0.479   2.673 -0.2020 -0.5075  0.0373
  290CLA    CLA22418   0.257   5.759  16.956  0.2962  0.1228 -0.4014
  291CLA    CLA22419   3.941   2.528  13.120  0.0064  0.1658  0.2536
  292CLA    CLA22420   1.740   2.933  15.692 -0.1889 -0.0464 -0.0805
  293CLA    CLA22421   4.258   4.355   5.653  0.2659  0.2861 -0.2634
  294CLA    CLA22422   5.433   2.084   3.476 -0.1522  0.2767  0.4027
  295CLA    CLA22423   4.536   2.589  14.827 -0.2198  0.0987  0.2101
  296CLA    CLA22424   2.515   1.264  14.775  0.0596 -0.1632 -0.2306
  297CLA    CLA22425   3.466   3.869  14.413  0.3806  0.1406  0.0442
  298CLA    CLA22426   0.396   3.039   5.816 -0.1806  0.1487  0.2084
  299CLA    CLA22427   4.209   6.647  13.077 -0.0362 -0.5350  0.1547
  300CLA    CLA22428   0.277   3.509  13.186 -0.2515  0.3062  0.0631
  301CLA    CLA22429   5.928   0.488   3.840 -0.2371 -0.4238  0.2111
  302CLA    CLA22430   3.072   1.332   3.277  0.3452  0.3017  0.2369
  303CLA    CLA22431   3.626   0.511   0.865 -0.4578 -0.5814 -0.1370
  304CLA    CLA22432   1.244   6.200  17.105 -0.1876 -0.4986 -0.0273
  305CLA    CLA22433   2.806   4.841  12.393 -0.2556  0.5284  0.7382
  306CLA    CLA22434   5.039   5.107  11.664 -0.0569  0.1173  0.1173
  307CLA    CLA22435   1.573   0.244   2.315 -0.0347 -0.1918 -0.5999
  308CLA    CLA22436   6.263   1.519  12.963 -0.0519  0.3158 -0.0206
  309CLA    CLA22437   3.156   2.338  12.346  0.0459  0.0499 -0.2113
  310CLA    CLA22438   0.042   1.033   1.221 -0.1212 -0.4344  0.4168
  311CLA    CLA22439   0.574   6.386   3.130  0.2153 -0.4254 -0.0881
  312CLA    CLA22440   6.169   2.809   0.754  0.1887  0.1922 -0.0123
  313CLA    CLA22441   1.975   2.717  11.218  0.2422  0.1546  0.2282
  314CLA    CLA22442   1.362   1.129  12.907 -0.2176 -0.2584 -0.1596
  315CLA    CLA22443   4.715   1.798   0.148 -0.2252 -0.2712 -0.2700
  316CLA    CLA22444   5.598   3.345  17.003 -0.0590  0.2105  0.3235
  317CLA    CLA22445   2.787   0.780  14.440 -0.1678  0.0184 -0.3180
  318CLA    CLA22446   0.715   4.532   4.453  0.1054 -0.6641 -0.2945
  319TIP3   OH222447   6.168   4.653   2.285 -0.1568 -0.3929  0.0841
  319TIP3    H122448   6.233   4.722   2.291 -0.1955 -0.4316  1.0967
  319TIP3    H222449   6.118   4.674   2.206  1.5321 -0.7860 -1.1291
  320TIP3   OH222450   0.947   2.164  15.069  0.3459 -0.2329 -0.7137
  320TIP3    H122451   0.985   2.138  15.152 -0.6213 -0.5124 -0.3349
  320TIP3    H222452   0.918   2.081  15.030  1.2267 -0.1619 -1.5658
  321TIP3   OH222453   3.673   1.467   6.105  0.0063 -0.5393 -0.0285
  321TIP3    H122454   3.740   1.518   6.059 -2.5245  1.3002 -1.8913
  321TIP3    H222455   3.723   1.399   6.150  3.0402 -0.0621 -2.3220
  322TIP3   OH222456   0.139   3.891  10.785  0.0808 -0.2677 -0.1108
  322TIP3    H122457   0.184   3.903  10.869 -1.8625  1.4686  0.7652
  322TIP3    H222458   0.065   3.834  10.805  0.7437 -1.5305 -1.1231
  323TIP3   OH222459   3.471   3.706   4.165 -0.9287 -0.1223  0.2100
  323TIP3    H122460   3.514   3.633   4.208 -1.0617 -0.8065 -0.7900
  323TIP3    H222461   3.450   3.767   4.236 -0.9894 -1.1361  1.0753
  324TIP3   OH222462   0.362   5.596   1.070  0.1124 -0.4101  0.0653
  324TIP3    H122463   0.426   5.633   1.130 -0.1564 -0.4990  0.4089
  324TIP3    H222464   0.296   5.555   1.126 -1.3882  1.5249 -0.1835
  325TIP3   OH222465   2.409   3.169  11.469 -0.5795  0.1376  0.4963
  325TIP3    H122466   2.320   3.152  11.500 -1.1668  2.2605  0.1498
  325TIP3    H222467   2.461   3.179  11.550 -1.0820  0.7740  0.7538
  326TIP3   OH222468   6.751   3.704  14.369  0.5586 -0.0440  0.0460
  326TIP3    H122469   6.721   3.614  14.381  0.4375 -0.1367 -0.8834
  326TIP3    H222470   6.776   3.733  14.457  1.0963 -1.1598  0.2721
  327TIP3   OH222471   6.795   1.203  12.776  0.2564  0.1574 -0.3428
  327TIP3    H122472   6.792   1.107  12.770  1.1524  0.0529  0.6893
  327TIP3    H222473   6.705   1.230  12.757 -0.7189 -1.0826  2.1141
  328TIP3   OH222474   0.116   5.354  16.546  0.0083 -0.8498 -0.0818
  328TIP3    H122475   0.187   5.369  16.608 -1.6029  0.5317  1.5556
  328TIP3    H222476   0.065   5.283  16.585 -0.1952 -0.9744 -0.5704
  329TIP3   OH222477   5.618   4.449  13.461 -0.0221 -0.3488 -0.1243
  329TIP3    H122478   5.659   4.422  13.378  0.6191 -0.1476  0.1213
  329TIP3    H222479   5.643   4.541  13.471  0.9907 -0.7197  0.9237
  330TIP3   OH222480   0.790   5.885  12.381 -0.3716  0.4225 -0.0176
  330TIP3    H122481   0.789   5.977  12.407 -0.0908  0.2064  0.8121
  330TIP3    H222482   0.777   5.837  12.463  1.1209 -0.3174 -0.1792
  331TIP3   OH222483   0.510   0.044   6.225 -0.3403 -0.3415  0.0722
  331TIP3    H122484   0.569   0.006   6.290  1.0834  0.7895 -0.5028
  331TIP3    H222485   0.428   0.056   6.272  0.8677  1.2282  1.9737
  332TIP3   OH222486   3.486   0.134  13.086 -0.5964  1.1542 -0.1153
  332TIP3    H122487   3.434   0.142  13.006 -2.0102 -0.0381  0.6398
  332TIP3    H222488   3.450   0.199  13.145 -1.2232  0.3692  0.3882
  333TIP3   OH222489   0.401   1.912   3.826  1.2493 -0.0376  0.1914
  333TIP3    H122490   0.469   1.963   3.870  0.3151  0.2480  1.3526
  333TIP3    H222491   0.341   1.977   3.791  1.7333 -0.2794 -1.1399
  334TIP3   OH222492   5.629   2.455   4.553 -0.1177 -0.3911 -0.2772
  334TIP3    H122493   5.675   2.372   4.538  0.7093 -0.1123  0.6342
  334TIP3    H222494   5.665   2.488   4.635 -0.1613  1.0652 -0.8177
  335TIP3   OH222495   4.188   4.829  13.681  0.3664 -0.0694 -0.4142
  335TIP3    H122496   4.110   4.836  13.736  0.0487  1.5147 -1.0132
  335TIP3    H222497   4.168   4.758  13.621 -0.2288 -0.2902  0.0352
  336TIP3   OH222498   2.954   3.215   1.451 -0.3827  0.1975  0.0840
  336TIP3    H122499   2.994   3.171   1.375 -0.7840 -0.9422  0.5098
  336TIP3    H222500   3.014   3.286   1.471 -0.8701  1.3190 -2.0641
  337TIP3   OH222501   4.202   2.585  11.728 -0.0990  0.0703 -0.4389
  337TIP3    H122502   4.146   2.603  11.652 -0.9471  0.6128  0.2934
  337TIP3    H222503   4.144   2.541  11.790 -0.2802  2.2803  1.0798
  338TIP3   OH222504   4.063   0.921   1.900 -0.5718  0.5544 -0.5353
  338TIP3    H122505   4.073   1.013   1.875 -1.2215  0.5572 -0.8015
  338TIP3    H222506   4.010   0.924   1.980 -1.4062  0.3697 -1.0701
  339TIP3   OH222507   6.574   0.167   3.599  0.1442  0.2260  0.5342
  339TIP3    H122508   6.596   0.237   3.659  0.8044 -0.1585  0.7576
  339TIP3    H222509   6.546   0.211   3.519  0.2998  0.7379  0.7609
  340TIP3   OH222510   2.686   0.409   2.783 -0.4839 -0.6111 -0.2888
  340TIP3    H122511   2.740   0.331   2.794 -0.5683 -0.4294  2.0374
  340TIP3    H222512   2.598   0.375   2.768 -0.2040 -0.9159 -1.3538
  341TIP3   OH222513   5.950   3.274  12.737 -0.1296 -0.2929 -0.5997
  341TIP3    H122514   5.891   3.203  12.711 -0.0419 -0.1616 -1.1718
  341TIP3    H222515   5.895   3.352  12.739 -0.1011 -0.2736 -0.5537
  342TIP3   OH222516   6.498   1.770  15.155 -0.5178  0.5763  0.3821
  342TIP3    H122517   6.407   1.746  15.137 -0.4894  0.2318  0.6889
  342TIP3    H222518   6.547   1.731  15.082 -0.5795  0.4961  0.3822
  343TIP3   OH222519   3.599   3.408  12.059 -0.4645 -0.0572  0.2910
  343TIP3    H122520   3.671   3.385  12.000  0.0729 -1.9635  1.5917
  343TIP3    H222521   3.627   3.489  12.101  0.6851 -0.5008  0.3972
  344TIP3   OH222522   5.808   3.941   4.838 -0.7208 -0.1835  0.3286
  344TIP3    H122523   5.897   3.963   4.812 -1.0221 -0.4953 -1.0664
  344TIP3    H222524   5.811   3.938   4.934  0.2519  1.8967  0.4197
  345TIP3   OH222525   1.784   4.096  10.931  0.5502  0.2708 -0.0079
  345TIP3    H122526   1.706   4.065  10.885  0.4351 -0.3848  0.6149
  345TIP3    H222527   1.764   4.187  10.954 -2.0001 -1.0704  4.1584
  346TIP3   OH222528   5.159   3.986  12.896 -0.2788  0.1065 -0.4609
  346TIP3    H122529   5.234   3.968  12.953 -1.7860  3.1804  2.8568
  346TIP3    H222530   5.101   3.911  12.909  0.2211 -0.1178  0.5843
  347TIP3   OH222531   4.885   5.401   0.220 -0.6365  0.2268 -0.2241
  347TIP3    H122532   4.937   5.436   0.293 -2.9006  1.5793  0.8489
  347TIP3    H222533   4.921   5.445   0.143  1.2518 -0.6010  0.1286
  348TIP3   OH222534   4.840   4.119   1.746  0.2303 -0.0789  0.3007
  348TIP3    H122535   4.746   4.115   1.726  0.0368  0.2350  1.1066
  348TIP3    H222536   4.874   4.034   1.718 -0.2372 -0.0714 -0.2947
  349TIP3   OH222537   4.259   5.586   5.590 -0.5861 -0.4421 -0.0626
  349TIP3    H122538   4.184   5.615   5.642 -2.8219 -1.5186 -2.4928
  349TIP3    H222539   4.289   5.506   5.633 -2.1828 -1.1381 -0.1696
  350TIP3   OH222540   1.010   0.323  12.432 -0.1266 -0.4273  0.9504
  350TIP3    H122541   1.098   0.298  12.404  0.2757  0.2227  1.6022
  350TIP3    H222542   0.976   0.246  12.477  0.1710 -0.6347  0.8194
  351TIP3   OH222543   1.014   0.857   4.449  0.0370 -0.1061  0.2910
  351TIP3    H122544   0.985   0.822   4.534 -0.6572  1.3015  0.6697
  351TIP3    H222545   0.938   0.904   4.416  0.7041  0.4038 -0.5418
  352TIP3   OH222546   6.634   3.635  16.636 -0.0874 -0.3377  0.2330
  352TIP3    H122547   6.563   3.648  16.699  0.7717 -0.3235  1.2243
  352TIP3    H222548   6.714   3.630  16.690  0.4746 -2.2550 -0.6906
  353TIP3   OH222549   1.350   5.236   2.363  0.2721  0.1050  0.0009
  353TIP3    H122550   1.399   5.155   2.377  1.7507  1.1522  1.2344
  353TIP3    H222551   1.353   5.250   2.268  2.6614  0.2555  0.0302
  354TIP3   OH222552   3.622   2.066  12.449  0.1038 -0.4255  0.2147
  354TIP3    H122553   3.627   2.064  12.544  1.5602 -0.9661  0.1384
  354TIP3    H222554   3.689   2.128  12.422  0.2898 -0.9179 -0.4957
  355TIP3   OH222555   2.734   4.333   2.548  0.1650 -0.3744  0.2272
  355TIP3    H122556   2.640   4.330   2.533  0.0333  3.3390 -0.7992
  355TIP3    H222557   2.744   4.325   2.643 -1.1645 -0.7906  0.3511
  356TIP3   OH222558   6.171   2.048   0.060  0.2430  0.0933 -0.5786
  356TIP3    H122559   6.116   2.079  -0.012  0.8638  1.3223 -0.5426
  356TIP3    H222560   6.109   2.017   0.126 -0.3680  0.3705 -1.0140
  357TIP3   OH222561   4.171   4.901   2.983 -0.3696  0.2385  0.0338
  357TIP3    H122562   4.134   4.901   3.071  0.7872  2.1517  0.6031
  357TIP3    H222563   4.265   4.884   2.996 -0.5229 -1.6948 -1.0767
  358TIP3   OH222564   3.653   0.425  15.024  0.2132  0.1006 -0.2305
  358TIP3    H122565   3.667   0.515  15.051  0.0127 -0.3325  1.3884
  358TIP3    H222566   3.688   0.371  15.095 -2.4689 -1.0527  0.3506
  359TIP3   OH222567   5.305   3.483   3.906  0.3914 -0.3955  0.4721
  359TIP3    H122568   5.394   3.515   3.890  0.9908 -0.9415  2.4572
  359TIP3    H222569   5.277   3.530   3.984 -0.7109 -0.9150  0.4033
  360TIP3   OH222570   3.259   2.798  12.861  0.0980  0.0741 -0.2758
  360TIP3    H122571   3.266   2.704  12.841  0.8609  0.1359 -0.3078
  360TIP3    H222572   3.314   2.811  12.937 -2.0922  0.0130  1.4149
  361TIP3   OH222573   4.602   4.827   0.884  0.0516  0.3185 -0.1762
  361TIP3    H122574   4.523   4.776   0.898 -0.2552  0.8940  0.2238
  361TIP3    H222575   4.660   4.803   0.956  0.8232 -1.1656 -1.2347
  362TIP3   OH222576   1.899   4.965   5.388 -0.3119 -0.0477 -0.7054
  362TIP3    H122577   1.835   4.977   5.458 -1.6368  0.8189 -1.9835
  362TIP3    H222578   1.846   4.937   5.313  1.2797 -2.7952 -0.9365
  363TIP3   OH222579   3.143   3.210  15.666 -0.0307  0.3681  0.6731
  363TIP3    H122580   3.064   3.199  15.720  2.1183 -2.3654  3.6400
  363TIP3    H222581   3.215   3.209  15.729  2.4934  2.7619 -1.8879
  364TIP3   OH222582   5.471   3.496  14.944 -0.1435  0.3214  0.2822
  364TIP3    H122583   5.390   3.497  14.994 -0.7117 -2.2402 -0.4460
  364TIP3    H222584   5.449   3.539  14.862 -1.1018 -1.2594 -0.3206
  365TIP3   OH222585   2.235   5.194   4.879  0.2318 -0.2735 -0.0492
  365TIP3    H122586   2.177   5.230   4.947 -0.0253  2.0407 -1.3741
  365TIP3    H222587   2.176   5.162   4.811  0.5015 -0.6738 -0.1002
  366TIP3   OH222588   1.023   6.223  16.671 -0.0743  0.6427  0.6676
  366TIP3    H122589   1.085   6.274  16.722 -0.2095 -0.4571  2.0025
  366TIP3    H222590   0.989   6.158  16.732  1.0224 -1.8808 -1.2102
  367TIP3   OH222591   3.435   4.782   2.087 -0.5156 -0.4901  0.5889
  367TIP3    H122592   3.369   4.717   2.111 -1.4068 -0.1512 -0.8019
  367TIP3    H222593   3.489   4.791   2.165  0.1262 -3.4387  0.5940
  368TIP3   OH222594   4.782   4.770  14.156 -0.5479 -0.1906 -0.4594
  368TIP3    H122595   4.824   4.720  14.226 -0.0377  2.0756  0.9630
  368TIP3    H222596   4.730   4.836  14.201 -1.5084  0.3501 -2.2434
  369TIP3   OH222597   0.575   1.731  11.228 -0.6303 -0.0411  0.1498
  369TIP3    H122598   0.668   1.706  11.221 -0.8617 -0.9273  0.1586
  369TIP3    H222599   0.578   1.824  11.251  0.2645 -0.1483  0.5393
  370TIP3   OH222600   2.601   6.272   3.370  0.1382  0.0463  0.0705
  370TIP3    H122601   2.662   6.324   3.319 -1.7211  1.7185 -0.5441
  370TIP3    H222602   2.598   6.314   3.456 -0.2970  0.1119  0.0281
  371TIP3   OH222603   4.314   5.611   3.493 -0.6653 -0.2176  0.0536
  371TIP3    H122604   4.240   5.595   3.433 -2.0050  0.0137  1.5774
  371TIP3    H222605   4.274   5.616   3.580  1.2801 -0.9951  1.0560
  372TIP3   OH222606   1.114   6.156   1.858 -0.0127 -0.2746  0.6089
  372TIP3    H122607   1.063   6.155   1.777  1.0596 -0.2824 -0.0766
  372TIP3    H222608   1.071   6.224   1.912 -0.9379 -0.5068  0.1893
  373TIP3   OH222609   6.773   5.707  13.263  0.3933  0.0260  0.4386
  373TIP3    H122610   6.773   5.801  13.279  2.4791  0.0712  0.4740
  373TIP3    H222611   6.708   5.694  13.194 -0.3076  1.4047  0.8001
  374TIP3   OH222612   0.603   4.814  12.657 -0.0306 -0.1117  0.0333
  374TIP3    H122613   0.625   4.899  12.619 -0.8305  0.1019  0.0105
  374TIP3    H222614   0.571   4.835  12.745  2.3302 -0.6495  1.0764
  375TIP3   OH222615   2.834   6.377   1.250 -0.3975  0.1857  0.0937
  375TIP3    H122616   2.792   6.304   1.294 -2.7255 -0.0048 -2.2037
  375TIP3    H222617   2.798   6.455   1.293 -1.9981 -0.0149 -0.7837
  376TIP3   OH222618   0.019   0.847  16.843 -0.6701 -0.0590 -0.1087
  376TIP3    H122619  -0.008   0.926  16.889 -0.1702 -0.6927  1.3313
  376TIP3    H222620   0.114   0.853  16.837 -0.6521 -0.4188 -0.2471
  377TIP3   OH222621   6.594   3.038  16.382 -0.0930 -0.3668  0.5369
  377TIP3    H122622   6.639   3.069  16.304 -1.3150 -1.9145 -0.8601
  377TIP3    H222623   6.650   2.968  16.416  1.2384  1.3396  2.0439
  378TIP3   OH222624   5.719   6.211  16.112  0.0722  0.4247  0.3652
  378TIP3    H122625   5.742   6.303  16.096 -0.0280  0.2153 -1.2260
  378TIP3    H222626   5.727   6.170  16.026 -1.7823 -0.6362  0.6520
  379TIP3   OH222627   0.102   1.544  15.419  0.2228 -0.0636  0.1799
  379TIP3    H122628   0.152   1.491  15.357  2.1734 -1.4041  2.7528
  379TIP3    H222629   0.139   1.632  15.409  0.3146 -0.1859 -0.7114
  380TIP3   OH222630   0.392   4.535   1.916 -0.2506  0.3599  0.4511
  380TIP3    H122631   0.391   4.513   2.010 -1.3398  1.1320  0.6345
  380TIP3    H222632   0.300   4.534   1.890 -0.4948  4.4099  0.4517
  381TIP3   OH222633   1.782   6.535   4.678 -0.1859  0.0480 -0.9862
  381TIP3    H122634   1.719   6.481   4.630  1.2951  1.0401 -4.4300
  381TIP3    H222635   1.773   6.622   4.638 -2.0604  2.4485  3.8950
  382TIP3   OH222636   4.492   4.802  13.994 -0.0274 -0.5876  0.0873
  382TIP3    H122637   4.572   4.762  14.029 -0.1363 -0.9200 -0.0422
  382TIP3    H222638   4.470   4.748  13.918 -0.9705 -1.1307  0.7353
  383TIP3   OH222639   5.198   5.462  13.531 -0.2789 -0.2991 -0.3137
  383TIP3    H122640   5.204   5.493  13.621 -4.0151  1.2852 -0.4098
  383TIP3    H222641   5.223   5.369  13.536 -0.3799 -0.2636  2.3539
  384TIP3   OH222642   6.260   3.439  13.803 -0.1520 -0.0619  0.9461
  384TIP3    H122643   6.211   3.519  13.820 -0.2464 -0.2755  1.7139
  384TIP3    H222644   6.229   3.377  13.869 -0.4311 -0.8889  0.0603
  385TIP3   OH222645   2.673   4.113   1.002 -0.0627  0.5259 -0.0580
  385TIP3    H122646   2.616   4.133   1.076 -0.2013  0.0077 -0.0214
  385TIP3    H222647   2.615   4.117   0.926  0.0586  0.9567 -0.1310
  386TIP3   OH222648   6.213   5.812   3.435  0.1839 -0.1802 -0.1158
  386TIP3    H122649   6.173   5.774   3.357  0.7141 -2.3858  0.6025
  386TIP3    H222650   6.282   5.869   3.402 -1.2510  0.9641 -1.2737
  387TIP3   OH222651   0.687   4.386  14.404 -0.4426  0.1640 -0.5037
  387TIP3    H122652   0.661   4.428  14.486  0.6324  0.0825 -0.0917
  387TIP3    H222653   0.724   4.302  14.432  2.5410  1.2755 -0.7372
  388TIP3   OH222654   1.484   4.839  11.817  0.7677 -0.1053 -0.3768
  388TIP3    H122655   1.464   4.930  11.839 -0.9379 -0.5982  0.3020
  388TIP3    H222656   1.557   4.844  11.756 -0.4977  1.8485 -1.8575
  389TIP3   OH222657   1.371   3.917  12.793 -0.1880  0.1418  0.3649
  389TIP3    H122658   1.364   3.903  12.887 -1.6128  0.6149  0.3540
  389TIP3    H222659   1.296   3.972  12.771  0.7650  1.0055 -0.8719
  390TIP3   OH222660   4.523   6.313   1.528  0.0028 -0.4263 -0.7635
  390TIP3    H122661   4.546   6.383   1.589  0.2674 -1.1818  0.0151
  390TIP3    H222662   4.543   6.232   1.575 -3.2701 -1.1596 -0.3805
  391TIP3   OH222663   2.616   1.052   2.716 -0.1792  0.8504 -0.0052
  391TIP3    H122664   2.695   1.033   2.666 -0.7725  0.7089 -0.9223
  391TIP3    H222665   2.544   1.030   2.657 -1.0630 -3.0708  2.1976
  392TIP3   OH222666   6.675   0.797  11.416  0.2497  0.4327  0.4216
  392TIP3    H122667   6.632   0.818  11.499  2.2380  0.6522  1.4458
  392TIP3    H222668   6.750   0.743  11.440 -0.6953 -1.9700 -1.5226
  393TIP3   OH222669   0.348   3.745   5.162  0.0997 -0.6317 -0.0142
  393TIP3    H122670   0.265   3.761   5.116 -1.5043 -3.1022  1.7092
  393TIP3    H222671   0.386   3.670   5.116  0.1506 -1.0187  0.6470
  394TIP3   OH222672   5.369   1.410   4.883  0.5834 -0.3559 -0.1260
  394TIP3    H122673   5.335   1.499   4.893 -0.1441 -0.6063 -0.3167
  394TIP3    H222674   5.315   1.357   4.941  1.5986 -0.5407  0.6800
  395TIP3   OH222675   4.315   3.333   5.298 -0.5622 -0.3137  0.3903
  395TIP3    H122676   4.324   3.280   5.377 -0.2208  0.2266  0.7171
  395TIP3    H222677   4.402   3.372   5.286 -1.3806  1.9827  1.4450
  396TIP3   OH222678   1.926   6.424   5.696 -0.1445 -0.3361 -0.0393
  396TIP3    H122679   1.885   6.479   5.763 -0.1010 -1.8481  1.2627
  396TIP3    H222680   1.925   6.479   5.617  1.2117  2.1022  1.5155
  397TIP3   OH222681   2.911   1.879  17.148 -0.0132  0.0146 -0.2327
  397TIP3    H122682   2.911   1.791  17.187  0.7359  0.3810  0.6390
  397TIP3    H222683   2.966   1.871  17.071 -1.1695 -0.6240 -1.0267
  398TIP3   OH222684   1.584   2.200   2.604 -0.0445  0.1673 -0.5753
  398TIP3    H122685   1.535   2.225   2.682  2.1433 -2.2540  1.7797
  398TIP3    H222686   1.526   2.139   2.559  0.3036 -2.1110  1.7955
  399TIP3   OH222687   0.395   4.717   2.929 -0.1356  0.0119  0.6203
  399TIP3    H122688   0.471   4.760   2.890  0.0643  0.5962  1.6034
  399TIP3    H222689   0.325   4.727   2.864  0.8489 -1.3674 -0.7145
  400TIP3   OH222690   4.114   4.796   5.650  0.3688  0.2142 -0.1851
  400TIP3    H122691   4.079   4.773   5.737  1.3788  3.9604  1.3891
  400TIP3    H222692   4.131   4.711   5.609 -1.7217 -1.7592  2.5668
  401TIP3   OH222693   6.046   0.576  11.806  0.1165 -0.2862 -0.3096
  401TIP3    H122694   6.035   0.487  11.842 -3.5565 -0.2590 -0.9765
  401TIP3    H222695   6.031   0.566  11.712  0.4308  0.9467 -0.5066
  402TIP3   OH222696   6.697   4.854  11.231 -0.0350  0.3627 -0.4410
  402TIP3    H122697   6.780   4.815  11.202  0.3609  0.9244 -0.0734
  402TIP3    H222698   6.662   4.897  11.153 -0.4800 -0.6941 -0.8590
  403TIP3   OH222699   3.469   1.415  10.724 -0.8480 -0.3700  0.1852
  403TIP3    H122700   3.519   1.337  10.747  2.4554  2.2022  2.9254
  403TIP3    H222701   3.516   1.453  10.650 -0.7934  0.2904  0.5468
  404TIP3   OH222702   5.090   6.474  12.494  0.5867  0.5802 -0.2761
  404TIP3    H122703   5.068   6.567  12.493 -0.6563  0.3171  0.4267
  404TIP3    H222704   5.118   6.457  12.584 -1.5441 -0.2060  0.2921
  405TIP3   OH222705   3.857   6.521   4.915 -0.3450  0.1658 -0.5949
  405TIP3    H122706   3.775   6.570   4.919  0.4435  1.4724  2.9481
  405TIP3    H222707   3.830   6.431   4.894 -2.5211  0.8159 -0.8460
  406TIP3   OH222708   2.009   6.626   3.057 -0.5515 -0.1114  0.4222
  406TIP3    H122709   2.006   6.720   3.077 -2.5055  0.0293 -0.3072
  406TIP3    H222710   2.069   6.619   2.983  1.5845  0.1914  2.0260
  407TIP3   OH222711   0.150   2.027  15.903 -0.4837  0.4828 -0.1609
  407TIP3    H122712   0.212   2.032  15.829 -1.9832  2.5337 -1.4038
  407TIP3    H222713   0.071   2.070  15.870 -1.5712  0.5398  2.3340
  408TIP3   OH222714   4.560   2.978   1.817 -0.2819 -0.5498  0.2433
  408TIP3    H122715   4.493   2.922   1.777 -1.6021  0.4456  0.9715
  408TIP3    H222716   4.529   3.068   1.801  0.9742 -0.0495  0.4692
  409TIP3   OH222717   5.053   1.071   5.144 -0.6016 -0.0817  0.2096
  409TIP3    H122718   5.132   1.017   5.151 -0.3991  0.2493  0.5372
  409TIP3    H222719   5.083   1.153   5.106 -0.7819  0.0575  0.3629
  410TIP3   OH222720   4.139   6.785  12.325  0.2185  0.0462 -0.6510
  410TIP3    H122721   4.058   6.814  12.367  0.3448 -0.4605 -0.0397
  410TIP3    H222722   4.205   6.793  12.394  0.4181 -0.8588 -0.7293
  411TIP3   OH222723   3.030   2.900   2.841 -0.3382 -0.5360  0.1494
  411TIP3    H122724   3.020   2.989   2.876 -1.2682 -1.4029  2.2679
  411TIP3    H222725   3.120   2.876   2.862  0.7292  0.6686 -2.5449
  412TIP3   OH222726   0.883   2.192   0.377 -0.0444 -0.1262  0.3323
  412TIP3    H122727   0.906   2.280   0.407  1.0404 -0.5099  0.6625
  412TIP3    H222728   0.928   2.133   0.437 -1.1484 -0.9252  0.4116
  413TIP3   OH222729   0.695   0.419   0.452 -0.4336  0.2841 -0.0040
  413TIP3    H122730   0.621   0.480   0.448 -1.5722 -1.0456  0.1918
  413TIP3    H222731   0.664   0.347   0.507  0.2137 -1.3372 -1.6489
  414TIP3   OH222732   0.346   3.506   4.798 -0.1143  0.5574 -0.2195
  414TIP3    H122733   0.388   3.524   4.882  0.1425  1.5246 -0.5455
  414TIP3    H222734   0.404   3.546   4.733 -0.6609  0.4036 -0.8091
  415TIP3   OH222735   2.919   2.926  13.970 -0.4610 -0.0578 -0.0970
  415TIP3    H122736   2.942   2.985  14.042  0.5456  0.7185 -1.0143
  415TIP3    H222737   2.878   2.851  14.012 -0.3953  0.6303  1.2320
  416TIP3   OH222738   5.644   4.081  15.190 -0.5440  0.0111 -0.1297
  416TIP3    H122739   5.598   4.136  15.253  0.2727 -0.3908  0.8573
  416TIP3    H222740   5.699   4.141  15.141 -2.0492  0.4933 -1.3092
  417TIP3   OH222741   0.426   4.193   0.222  0.7378 -0.8587 -0.5225
  417TIP3    H122742   0.510   4.236   0.238  0.0362  0.1363  0.6739
  417TIP3    H222743   0.404   4.215   0.132  0.0585  2.0208  0.2343
  418TIP3   OH222744   4.383   4.620  15.350 -0.6151 -0.0936  0.1225
  418TIP3    H122745   4.307   4.564  15.364  1.1438 -2.9312 -0.8599
  418TIP3    H222746   4.426   4.624  15.436 -0.1241 -1.3300 -0.0420
  419TIP3   OH222747   5.320   0.151   4.977  0.1981 -0.4813  0.1340
  419TIP3    H122748   5.370   0.070   4.967 -1.2683 -1.7295  1.9972
  419TIP3    H222749   5.229   0.121   4.985 -0.3497  1.3076  1.1543
  420TIP3   OH222750   0.747   0.492   2.326  0.7310  0.0945  0.0649
  420TIP3    H122751   0.656   0.472   2.347  0.8974 -1.3495 -0.4756
  420TIP3    H222752   0.785   0.522   2.409 -0.8088  3.1432 -0.2316
  421TIP3   OH222753   0.131   3.990   1.877  0.3177 -0.2316  0.2612
  421TIP3    H122754   0.216   4.003   1.919  0.8545  1.3393 -1.1936
  421TIP3    H222755   0.067   4.022   1.940  0.9059 -0.2016  0.8431
  422TIP3   OH222756   6.074   4.421  14.902  0.4911 -0.3292 -0.1461
  422TIP3    H122757   6.112   4.378  14.825 -0.4564  1.6958 -1.8385
  422TIP3    H222758   5.997   4.467  14.869  0.7097  1.5911  1.7873
  423TIP3   OH222759   4.402   4.996   2.699 -0.5671 -0.5022 -0.1337
  423TIP3    H122760   4.310   4.977   2.679 -0.9406  0.7559  0.2711
  423TIP3    H222761   4.407   5.091   2.698  1.3238 -0.5282 -2.7177
  424TIP3   OH222762   3.467   2.173   4.504 -0.2665  0.0012 -0.5557
  424TIP3    H122763   3.559   2.198   4.505 -0.7101  1.8057 -1.0464
  424TIP3    H222764   3.423   2.241   4.555 -1.4151 -0.4360 -0.9245
  425TIP3   OH222765   0.116   4.231  15.902 -0.0366  0.5929 -0.2768
  425TIP3    H122766   0.035   4.264  15.940  0.3770  0.3505  0.8278
  425TIP3    H222767   0.186   4.265  15.958  0.5153 -0.6641 -0.1734
  426TIP3   OH222768   0.000   1.047  17.256  0.0590 -0.4053 -0.0741
  426TIP3    H122769  -0.049   1.049  17.338  0.4314 -0.6901  0.1578
  426TIP3    H222770   0.072   0.987  17.272 -0.7044 -1.6455 -1.0872
  427TIP3   OH222771   3.068   2.319   0.531  0.2677 -0.3491  0.6752
  427TIP3    H122772   3.145   2.375   0.521  0.3979 -0.7985 -1.3751
  427TIP3    H222773   2.994   2.380   0.529  0.4119 -0.1715 -1.4482
  428TIP3   OH222774   1.466   2.787  15.017 -0.0924  0.8145  0.0316
  428TIP3    H122775   1.435   2.833  15.095 -1.6332  0.2407 -0.2190
  428TIP3    H222776   1.515   2.712  15.051 -3.3251 -1.2209  0.6003
  429TIP3   OH222777   3.531   1.943   3.394 -0.1698 -0.5470  0.2811
  429TIP3    H122778   3.554   1.982   3.478 -0.8733 -1.5708  0.9824
  429TIP3    H222779   3.587   1.865   3.387 -0.3110 -0.6221 -0.0744
  430TIP3   OH222780   2.744   1.218   5.443  0.1210  0.1292  0.0630
  430TIP3    H122781   2.694   1.267   5.508 -0.8320 -0.7649  0.0419
  430TIP3    H222782   2.687   1.216   5.366  0.5524 -0.1842 -0.2554
  431TIP3   OH222783   6.109   6.638   0.709 -0.5836  0.7304  0.2058
  431TIP3    H122784   6.093   6.678   0.794 -1.3954  1.3262 -0.2150
  431TIP3    H222785   6.023   6.637   0.666 -0.4961 -0.9672 -0.0176
  432TIP3   OH222786   0.302   6.198   5.646 -0.1457  0.1705 -0.1398
  432TIP3    H122787   0.315   6.280   5.598 -1.1272 -0.2041 -1.0928
  432TIP3    H222788   0.390   6.171   5.671  0.1162  2.2361  1.4925
  433TIP3   OH222789   4.211   1.601   5.212  0.0724 -0.1745  0.1274
  433TIP3    H122790   4.201   1.517   5.167 -0.2247  0.1851 -0.4922
  433TIP3    H222791   4.305   1.611   5.222  0.1197 -0.4966  0.0382
  434TIP3   OH222792   6.782   4.069   0.546 -0.1058 -0.0123  0.4718
  434TIP3    H122793   6.699   4.059   0.593 -0.1125 -0.9263  0.2752
  434TIP3    H222794   6.821   4.148   0.583 -0.3836 -0.3881  1.5983
  435TIP3   OH222795   5.100   1.302  17.274 -0.5829  0.0402 -0.3231
  435TIP3    H122796   5.154   1.282  17.349  1.3347  2.0675 -1.0515
  435TIP3    H222797   5.049   1.223  17.259  0.7214 -1.2495  1.6204
  436TIP3   OH222798   4.056   4.552   5.529  0.4985  0.1934  0.1770
  436TIP3    H122799   3.980   4.494   5.515  1.4068 -0.9353 -0.1929
  436TIP3    H222800   4.119   4.498   5.576  1.0813  1.1249  0.4834
  437TIP3   OH222801   1.713   4.433  14.798  0.3012 -0.0459  0.7527
  437TIP3    H122802   1.722   4.337  14.795  0.5723  0.0049 -0.4809
  437TIP3    H222803   1.791   4.463  14.845  0.2283 -0.4154  1.1202
  438TIP3   OH222804   2.087   3.168   1.161 -0.2462 -0.4664 -0.2856
  438TIP3    H122805   2.082   3.073   1.150 -0.3525 -0.4518 -0.3622
  438TIP3    H222806   2.020   3.187   1.227  1.8112 -0.8219  2.0603
  439TIP3   OH222807   4.812   1.645   5.064  0.7619  0.2303  0.5881
  439TIP3    H122808   4.811   1.720   5.124 -0.0552  0.3917  0.3873
  439TIP3    H222809   4.847   1.681   4.982 -1.2056  0.8375 -0.0342
  440TIP3   OH222810   1.309   1.444   0.261 -0.5973  0.0748 -0.1780
  440TIP3    H122811   1.259   1.525   0.274  1.7720  1.4303  1.1586
  440TIP3    H222812   1.342   1.450   0.171 -2.9065 -0.9725 -1.1809
  441TIP3   OH222813   0.005   1.722   1.953 -0.4480  0.1763 -0.8606
  441TIP3    H122814   0.025   1.654   1.889 -2.8100 -1.7934  0.3093
  441TIP3    H222815   0.088   1.769   1.966  0.6687 -0.8938 -3.5082
  442TIP3   OH222816   5.595   5.928  15.233  0.2650  0.1177  0.8931
  442TIP3    H122817   5.664   5.867  15.208  0.0607  0.8226 -1.6110
  442TIP3    H222818   5.517   5.874  15.245  0.0464 -0.1821 -1.4559
  443TIP3   OH222819   1.064   2.807   3.565 -1.1260 -0.0703  0.1060
  443TIP3    H122820   1.065   2.732   3.505  0.1830 -1.2129  1.4518
  443TIP3    H222821   1.134   2.787   3.628  0.3732  3.0461 -0.3830
  444TIP3   OH222822   3.555   6.236  16.554 -0.0439  0.8635 -0.2303
  444TIP3    H122823   3.571   6.309  16.494 -1.7591  2.0538  0.6930
  444TIP3    H222824   3.625   6.243  16.619  0.8953  0.5145 -1.1761
  445TIP3   OH222825   5.198   0.040  13.422 -0.4584  0.4576  0.2460
  445TIP3    H122826   5.269   0.072  13.367 -0.1496 -0.6349 -0.0190
  445TIP3    H222827   5.151  -0.023  13.368  0.2895 -1.1834  1.4171
  446TIP3   OH222828   3.914   4.725   4.247 -0.5869 -0.0452 -0.2894
  446TIP3    H122829   3.904   4.717   4.342 -0.3869  0.3514 -0.2325
  446TIP3    H222830   3.861   4.654   4.211  1.7179 -2.1422  0.2131
  447TIP3   OH222831   6.277   2.885   2.540 -0.6120 -0.2957  0.7916
  447TIP3    H122832   6.276   2.975   2.571  1.6515 -0.0436  0.3054
  447TIP3    H222833   6.331   2.838   2.604 -0.9150 -1.0780  0.4900
  448TIP3   OH222834   5.500   6.399  10.821 -0.2948  0.1969  0.2763
  448TIP3    H122835   5.434   6.460  10.853 -0.0448 -0.4769  2.1947
  448TIP3    H222836   5.451   6.322  10.793 -0.4170  0.2310  0.3954
  449TIP3   OH222837   6.197   3.753  11.965  0.1451  0.2607  0.5479
  449TIP3    H122838   6.180   3.744  11.871  2.9860  2.9955 -0.4004
  449TIP3    H222839   6.112   3.778  12.003 -0.5845  1.5880 -1.7630
  450TIP3   OH222840   1.172   3.063  15.870 -0.3909  0.3384  0.8224
  450TIP3    H122841   1.145   2.971  15.873  0.4956 -0.0531 -1.3623
  450TIP3    H222842   1.091   3.112  15.857 -0.7540 -0.2260  0.9637
  451TIP3   OH222843   2.735   3.133   5.597  0.4436  0.4389 -0.1358
  451TIP3    H122844   2.701   3.132   5.687  0.9676 -0.2948  0.0654
  451TIP3    H222845   2.715   3.221   5.565 -1.1653  0.2247  0.1511
  452TIP3   OH222846   5.772   1.039   4.640 -0.4886  0.2465 -0.0856
  452TIP3    H122847   5.787   1.095   4.563 -0.8595  0.3807 -0.0613
  452TIP3    H222848   5.740   1.099   4.707  0.2160  0.1999  0.3064
  453TIP3   OH222849   0.551   5.803   1.196 -0.1524  0.2279 -0.3202
  453TIP3    H122850   0.469   5.849   1.175 -1.1257 -1.6027 -0.7208
  453TIP3    H222851   0.604   5.811   1.117  0.3422  1.9162  0.1396
  454TIP3   OH222852   0.720   5.584  11.785  0.0955 -0.0001  0.1341
  454TIP3    H122853   0.757   5.521  11.847  0.7649  0.5668  0.3273
  454TIP3    H222854   0.709   5.534  11.704  3.1099  0.2098 -0.5219
  455TIP3   OH222855   2.397   3.340   1.773  0.4339  0.4049  0.1937
  455TIP3    H122856   2.468   3.360   1.834  0.7835  0.7401 -0.3110
  455TIP3    H222857   2.441   3.306   1.695 -0.0289 -0.2980  0.2329
  456TIP3   OH222858   0.666   0.181   5.444 -0.2532 -0.1314  0.6940
  456TIP3    H122859   0.616   0.202   5.364 -0.6563  1.4395  1.3273
  456TIP3    H222860   0.755   0.209   5.424 -0.1416 -0.6235  0.4708
  457TIP3   OH222861   5.882   0.103  12.677  0.2112  0.0419  0.6576
  457TIP3    H122862   5.846   0.037  12.736  0.5003 -2.5606 -1.8514
  457TIP3    H222863   5.972   0.115  12.708  0.6477 -1.9456  0.3230
  458TIP3   OH222864   0.912   3.272   2.227 -0.6266 -0.4122  0.1060
  458TIP3    H122865   0.931   3.365   2.210 -1.0864 -0.0288  1.5800
  458TIP3    H222866   0.913   3.232   2.140 -0.8300  1.0456 -0.6050
  459TIP3   OH222867   3.735   5.282  12.950  0.0003 -0.0960  0.2103
  459TIP3    H122868   3.663   5.343  12.962 -1.0362 -1.2438  0.1232
  459TIP3    H222869   3.714   5.208  13.007  0.1612 -1.2318 -1.1341
  460TIP3   OH222870   5.166   0.674   6.227 -0.3157 -0.0897  0.5312
  460TIP3    H122871   5.099   0.706   6.288  0.1132  0.4115  0.7499
  460TIP3    H222872   5.133   0.590   6.196 -0.9623  0.0754  0.7699
  461TIP3   OH222873   2.479   6.365  13.651  0.1182 -0.1667 -0.0226
  461TIP3    H122874   2.546   6.310  13.692 -0.1844 -1.6299 -1.3855
  461TIP3    H222875   2.525   6.411  13.581 -0.2544 -1.1732 -0.9615
  462TIP3   OH222876   6.476   2.209   5.457 -0.0032  0.2450 -0.4840
  462TIP3    H122877   6.452   2.139   5.396 -0.5095 -0.7103  0.7847
  462TIP3    H222878   6.426   2.285   5.426 -0.0006 -0.1291 -1.4469
  463TIP3   OH222879   2.911   4.064  13.476 -0.5102  0.6561 -0.0309
  463TIP3    H122880   2.948   3.990  13.524  0.1742  1.1497  0.2247
  463TIP3    H222881   2.864   4.024  13.403 -0.8635 -0.0685  0.5707
  464TIP3   OH222882   6.559   5.755   4.374  0.1710 -0.2274 -0.2843
  464TIP3    H122883   6.575   5.756   4.279 -0.2574  1.1353 -0.3695
  464TIP3    H222884   6.468   5.728   4.383 -0.0080  0.3593 -0.3103
  465TIP3   OH222885   4.815   3.397  13.185  0.5748 -0.2480  0.6274
  465TIP3    H122886   4.734   3.346  13.193 -0.6835  1.5088 -0.3409
  465TIP3    H222887   4.881   3.344  13.229 -1.3267 -1.2186  2.4597
  466TIP3   OH222888   4.477   4.284  17.158 -0.3395  0.4617  0.0001
  466TIP3    H122889   4.549   4.327  17.203  0.0166 -0.5438  0.4254
  466TIP3    H222890   4.519   4.218  17.102 -0.8521  0.7985 -0.8061
  467TIP3   OH222891   4.235   5.316   5.099  0.2304  0.3222 -0.0631
  467TIP3    H122892   4.204   5.395   5.144  1.3411 -0.4553  2.2131
  467TIP3    H222893   4.162   5.255   5.104  0.0383  0.5411 -0.1415
  468TIP3   OH222894   2.641   5.807   1.838  0.0189  0.9533 -0.2414
  468TIP3    H122895   2.563   5.805   1.782 -0.2332 -2.9447 -0.0140
  468TIP3    H222896   2.617   5.756   1.915  2.2513  1.0845  0.6156
  469TIP3   OH222897   5.383   3.662   4.883  0.0253  0.7657 -0.1507
  469TIP3    H122898   5.457   3.640   4.826  0.8218  0.3459  0.9938
  469TIP3    H222899   5.311   3.607   4.851  0.3389  0.8130 -0.9705
  470TIP3   OH222900   0.186   4.882  16.336 -0.3492  0.2148 -0.0948
  470TIP3    H122901   0.094   4.904  16.323  0.1503  2.7523  0.1328
  470TIP3    H222902   0.231   4.920  16.261  0.8248  1.9880  1.3887
  471TIP3   OH222903   0.004   6.680  11.683 -0.2239 -0.4223 -0.3629
  471TIP3    H122904   0.044   6.753  11.731 -1.1326  0.7365 -1.2817
  471TIP3    H222905  -0.086   6.710  11.666 -0.1785 -1.1395 -2.0176
  472TIP3   OH222906   3.332   5.905   1.125 -0.0942  0.3127 -0.0457
  472TIP3    H122907   3.347   5.909   1.030 -4.4248  1.0248 -0.9356
  472TIP3    H222908   3.303   5.994   1.148 -0.4259 -0.1984  1.6637
  473TIP3   OH222909   4.788   3.941  11.594  0.0018 -0.1020  0.3545
  473TIP3    H122910   4.867   3.952  11.541 -0.1306 -0.2233  0.1315
  473TIP3    H222911   4.793   3.851  11.626 -0.7714 -0.5948 -0.8503
  474TIP3   OH222912   0.565   5.135   2.938 -0.7389 -0.2333 -0.3513
  474TIP3    H122913   0.635   5.075   2.912 -0.6380  0.1974 -1.1011
  474TIP3    H222914   0.484   5.089   2.917 -0.7354 -1.3343  1.8548
  475TIP3   OH222915   6.764   6.334   5.435  0.1427  0.4566 -0.1414
  475TIP3    H122916   6.782   6.242   5.454 -0.1765  1.0533  4.1562
  475TIP3    H222917   6.675   6.334   5.400  0.2361 -0.8788 -0.4390
  476TIP3   OH222918   0.582   5.109   5.169 -0.0512  0.0180 -0.3993
  476TIP3    H122919   0.547   5.191   5.202 -0.4457  0.0153 -0.8122
  476TIP3    H222920   0.667   5.100   5.213  0.1617  0.8200 -0.6306
  477TIP3   OH222921   6.104   4.030  12.110 -0.0861  0.0319  0.3286
  477TIP3    H122922   6.170   4.048  12.042  0.0087 -0.3012  0.3263
  477TIP3    H222923   6.068   3.944  12.085  0.1724 -0.2377  0.8716
  478TIP3   OH222924   2.817   5.972   3.245  0.3378 -0.1278  0.8469
  478TIP3    H122925   2.822   6.064   3.220  0.1743 -0.3930 -0.1670
  478TIP3    H222926   2.897   5.933   3.209 -0.0318 -0.5712  0.5067
  479TIP3   OH222927   6.633   6.526  14.258 -0.5845 -0.5763 -0.0444
  479TIP3    H122928   6.577   6.501  14.332 -0.1345 -0.1873  0.4385
  479TIP3    H222929   6.712   6.474  14.268 -0.2862 -0.1096  0.0811
  480TIP3   OH222930   6.461   2.126   2.111  0.6012 -0.6099 -0.3793
  480TIP3    H122931   6.482   2.163   2.026  0.4028 -0.9803 -0.5925
  480TIP3    H222932   6.544   2.126   2.158  0.5388  0.3813 -0.2637
  481TIP3   OH222933   2.849   1.261  14.385  0.3631 -0.3818 -0.0025
  481TIP3    H122934   2.830   1.207  14.462 -0.8194  1.1082  0.8047
  481TIP3    H222935   2.930   1.306  14.407 -0.7911  1.2622  1.1301
  482TIP3   OH222936   4.432   3.872   2.531 -0.3298  0.0870  0.1211
  482TIP3    H122937   4.465   3.802   2.586 -0.0431 -0.9741 -1.3517
  482TIP3    H222938   4.462   3.850   2.442 -2.5725  0.5836 -0.8342
  483TIP3   OH222939   1.636   1.362  12.531  0.1681 -0.3186 -0.0261
  483TIP3    H122940   1.690   1.418  12.587 -0.7903 -1.0630  1.7087
  483TIP3    H222941   1.696   1.293  12.501  1.0216  0.8281 -1.0805
  484TIP3   OH222942   5.281   3.523  13.278 -0.4041  0.1666 -0.0953
  484TIP3    H122943   5.246   3.474  13.352  0.7960  1.5620  1.4787
  484TIP3    H222944   5.247   3.612  13.291  1.5232  0.9210 -0.0025
  485TIP3   OH222945   1.747   2.427  10.460 -0.6339  0.3293 -0.1839
  485TIP3    H122946   1.785   2.405  10.545  0.1621 -0.1421 -0.6559
  485TIP3    H222947   1.773   2.356  10.402 -1.6113  0.3802 -0.7046
  486TIP3   OH222948   3.140   2.455   4.408  0.4480  0.5364  0.5499
  486TIP3    H122949   3.129   2.398   4.332 -0.2984 -0.0991  1.1233
  486TIP3    H222950   3.234   2.473   4.411  0.5659  0.0618 -0.1567
  487TIP3   OH222951   4.027   3.667   3.560 -0.5393  0.0930  0.1616
  487TIP3    H122952   4.012   3.615   3.639  1.0550 -0.1995  0.2897
  487TIP3    H222953   4.116   3.646   3.532 -1.0256  0.2413 -1.6927
  488TIP3   OH222954   5.383   6.212  11.219  0.4544 -0.0109 -0.1381
  488TIP3    H122955   5.466   6.191  11.175 -0.7030 -3.1515 -1.1349
  488TIP3    H222956   5.329   6.251  11.150  0.7542  1.0689  0.2347
  489TIP3   OH222957   1.070   0.667   1.564 -0.0885 -0.5031  0.1692
  489TIP3    H122958   1.035   0.587   1.603  0.2107  0.2977  2.2012
  489TIP3    H222959   1.160   0.644   1.539 -0.0771 -0.8569  0.5345
  490TIP3   OH222960   6.280   0.548   1.371 -0.0568  0.0260  0.1792
  490TIP3    H122961   6.372   0.572   1.359  0.4754 -1.7859  0.3189
  490TIP3    H222962   6.242   0.623   1.418  1.3204  0.8368  0.0648
  491TIP3   OH222963   3.025   0.653  11.123 -0.1500  0.1885 -0.0322
  491TIP3    H122964   2.940   0.649  11.167 -0.1843 -0.4553 -0.1414
  491TIP3    H222965   3.005   0.640  11.030  0.0983 -0.3628 -0.0154
  492TIP3   OH222966   2.341   1.900   3.274 -0.2333 -0.2454 -0.1309
  492TIP3    H122967   2.374   1.968   3.215  2.2580 -0.9553  0.3312
  492TIP3    H222968   2.363   1.932   3.362 -1.7867 -0.2782  0.2890
  493TIP3   OH222969   5.437   0.242   3.344 -0.3195  0.3779 -0.1887
  493TIP3    H122970   5.451   0.276   3.432  1.0800  0.2444 -0.3370
  493TIP3    H222971   5.482   0.305   3.286  1.4880 -1.1241 -0.5306
  494TIP3   OH222972   3.620   5.088  13.974  0.4584  0.1287 -0.2049
  494TIP3    H122973   3.667   5.139  14.040 -1.1002 -0.3021  1.3220
  494TIP3    H222974   3.682   5.021  13.946  1.3220  0.6440  0.4528
  495TIP3   OH222975   2.065   2.177   4.540 -0.2880  0.1500 -0.2643
  495TIP3    H122976   2.015   2.253   4.572 -2.2497 -0.6887 -1.1886
  495TIP3    H222977   1.998   2.112   4.520  1.0063 -0.3382 -3.5041
  496TIP3   OH222978   4.966   2.309  14.469 -0.7344 -0.6462  0.7308
  496TIP3    H122979   4.926   2.381  14.420  1.1187  2.2350  3.1167
  496TIP3    H222980   5.055   2.303  14.435 -0.7729 -1.6496  0.7782
  497TIP3   OH222981   2.146   2.097   5.323 -0.3529 -0.1740 -0.3456
  497TIP3    H122982   2.203   2.149   5.379  0.2780  0.4756 -1.5597
  497TIP3    H222983   2.104   2.035   5.382  2.5111 -1.5229  0.4335
  498TIP3   OH222984   4.416   3.885  16.165  0.4118  0.1347 -0.5593
  498TIP3    H122985   4.461   3.918  16.243 -2.6923 -0.7037  1.8071
  498TIP3    H222986   4.407   3.962  16.109  0.9864  1.2725  0.8279
  499TIP3   OH222987   1.284   4.392   2.420 -0.4289  0.0571 -0.1361
  499TIP3    H122988   1.338   4.382   2.342 -1.2448  0.7250 -0.8051
  499TIP3    H222989   1.199   4.421   2.387 -1.0267 -0.4062  0.9408
  500TIP3   OH222990   1.028   3.465   3.592  0.2949  0.1089 -0.2150
  500TIP3    H122991   0.982   3.382   3.576 -1.5191  0.8143  1.0628
  500TIP3    H222992   0.968   3.532   3.560  0.5830  1.0452  1.1347
  501TIP3   OH222993   3.699   2.135  13.702  0.2141 -0.7680  0.3341
  501TIP3    H122994   3.699   2.123  13.797 -1.4938 -0.3317  0.4147
  501TIP3    H222995   3.780   2.185  13.685  0.6341 -1.0086  1.5238
  502TIP3   OH222996   5.988   0.311   5.210  0.4978 -0.6136 -0.1725
  502TIP3    H122997   6.023   0.301   5.299  0.2955  1.5110  0.1941
  502TIP3    H222998   6.063   0.337   5.157  0.5196 -1.3958 -0.5387
  503TIP3   OH222999   1.431   0.790   1.651 -0.5505  0.2444  0.1864
  503TIP3    H123000   1.471   0.722   1.597 -0.0931 -0.7008  1.6531
  503TIP3    H223001   1.344   0.802   1.614 -1.2570 -2.3224  0.8245
  504TIP3   OH223002   2.468   6.776  15.766  0.4255 -0.3015 -0.3626
  504TIP3    H123003   2.555   6.803  15.795 -0.4888  0.4400  1.9517
  504TIP3    H223004   2.441   6.843  15.703  0.9811  0.2345 -0.0305
  505TIP3   OH223005   0.232   5.613  10.620  0.0591 -0.0603  0.1376
  505TIP3    H123006   0.222   5.706  10.601  1.4837  0.1737  0.4257
  505TIP3    H223007   0.307   5.585  10.568 -0.3207 -1.0412  0.0877
  506TIP3   OH223008   1.256   5.044   5.907  0.2675  0.1044  0.3512
  506TIP3    H123009   1.275   5.121   5.960 -0.7287  0.1820  0.6096
  506TIP3    H223010   1.210   5.078   5.830  0.1366 -0.1876  0.2965
  507TIP3   OH223011   4.291   1.013   2.523  0.3879 -0.0326  0.4263
  507TIP3    H123012   4.260   1.102   2.504  0.1047 -0.1040  0.5426
  507TIP3    H223013   4.310   0.975   2.437  1.4059  0.4560  0.4241
  508TIP3   OH223014   3.231   5.475   4.417 -0.4014 -0.2227  0.2838
  508TIP3    H123015   3.189   5.416   4.479  0.1396 -0.2137  0.6702
  508TIP3    H223016   3.318   5.436   4.403 -0.7615 -0.5929 -0.9910
  509TIP3   OH223017   0.107   1.618  17.257 -0.3219 -0.2739  0.1535
  509TIP3    H123018   0.013   1.605  17.268  0.0027 -1.4049  1.9668
  509TIP3    H223019   0.137   1.538  17.214  0.0598 -0.7515  1.2757
  510TIP3   OH223020   4.460   5.242  17.187  0.2718  0.5185 -0.4514
  510TIP3    H123021   4.390   5.198  17.139  0.1442  0.3127 -0.0784
  510TIP3    H223022   4.416   5.282  17.262  0.6783 -0.3742  0.2863
  511TIP3   OH223023   1.356   5.912   0.481  0.4650 -0.1513 -0.2682
  511TIP3    H123024   1.343   5.935   0.573 -0.7018 -0.2352 -0.3985
  511TIP3    H223025   1.378   5.995   0.438 -1.2099  0.3047 -0.2926
  512TIP3   OH223026   2.972   4.183   5.177  0.0701 -0.0388  0.1942
  512TIP3    H123027   3.000   4.265   5.218 -0.4621  0.6260 -0.7210
  512TIP3    H223028   3.045   4.122   5.192  1.1449  1.0537 -0.4378
  513TIP3   OH223029   5.638   5.519   4.999 -0.2756 -0.4232  0.3268
  513TIP3    H123030   5.651   5.527   4.904 -0.2190 -0.1035  0.3620
  513TIP3    H223031   5.580   5.592   5.022 -0.1824 -0.4226  0.5620
  514TIP3   OH223032   4.817   3.870   6.344  0.3630 -0.4518 -0.0358
  514TIP3    H123033   4.848   3.916   6.266 -0.1810 -0.5692 -0.3261
  514TIP3    H223034   4.727   3.845   6.323  1.1473 -3.1496 -0.5875
  515TIP3   OH223035   1.585   4.363   1.747  0.3572 -0.7541 -0.3149
  515TIP3    H123036   1.557   4.361   1.655  0.4891  0.8469 -0.4035
  515TIP3    H223037   1.637   4.442   1.755 -0.0769 -0.5998  1.2700
  516TIP3   OH223038   0.299   2.297   0.034  0.0918  0.0424  0.1667
  516TIP3    H123039   0.290   2.264  -0.056  0.0754 -2.0915  0.8797
  516TIP3    H223040   0.392   2.318   0.042  0.2419 -0.4568 -0.1538
  517TIP3   OH223041   1.480   1.284  15.262 -0.2705  0.5317 -0.1533
  517TIP3    H123042   1.396   1.265  15.221 -0.2136  0.4347 -0.2265
  517TIP3    H223043   1.500   1.374  15.235 -1.5324  1.5049  1.8870
  518TIP3   OH223044   0.353   1.491   4.435  0.1944 -0.2452 -0.1660
  518TIP3    H123045   0.329   1.414   4.486  0.1242 -0.2628 -0.2258
  518TIP3    H223046   0.290   1.558   4.462  0.8650  0.0844  0.6132
  519TIP3   OH223047   2.234   0.101  14.277  0.2258  0.2746  0.5331
  519TIP3    H123048   2.222   0.183  14.325 -0.2117  1.4548 -1.4495
  519TIP3    H223049   2.197   0.119  14.190 -2.9100 -3.0454  0.9234
  520TIP3   OH223050   0.291   4.651   5.162 -0.5402 -0.3998  0.4910
  520TIP3    H123051   0.375   4.641   5.116 -0.0655  0.9443  0.9896
  520TIP3    H223052   0.287   4.577   5.222  1.2413  0.4994  1.8222
  521TIP3   OH223053   5.607   4.141  13.187  0.2813 -0.3495  1.5787
  521TIP3    H123054   5.544   4.100  13.246 -0.5265 -2.4581 -0.6059
  521TIP3    H223055   5.677   4.077  13.179  1.2822  0.7072  1.6416
  522TIP3   OH223056   5.718   6.630  17.213 -0.4288  0.4961 -0.1431
  522TIP3    H123057   5.794   6.610  17.158 -1.3397 -0.6176 -1.0614
  522TIP3    H223058   5.700   6.723  17.196 -2.0927 -0.2794 -3.7338
  523TIP3   OH223059   3.706   4.664   5.373  0.3111  0.3290 -0.2415
  523TIP3    H123060   3.674   4.590   5.321  0.1103 -0.4275  0.9184
  523TIP3    H223061   3.644   4.734   5.356  0.4264  0.1937 -1.2599
  524TIP3   OH223062   6.420   4.868  11.243  0.0905 -0.8287  0.2953
  524TIP3    H123063   6.409   4.949  11.293  1.6747 -0.6987  0.4987
  524TIP3    H223064   6.515   4.853  11.243  0.1209 -1.0680 -2.2828
  525TIP3   OH223065   1.436   3.788   0.091 -0.1333  0.0165 -0.4055
  525TIP3    H123066   1.350   3.830   0.083 -0.5080 -0.5377  0.4710
  525TIP3    H223067   1.491   3.854   0.133 -0.0625  0.4447 -1.1489
  526TIP3   OH223068   3.826   2.179  16.174  0.5904  0.0445 -0.3303
  526TIP3    H123069   3.881   2.104  16.153 -0.5108 -0.3292 -2.0960
  526TIP3    H223070   3.878   2.255  16.148  1.7820 -0.0165  1.6260
  527TIP3   OH223071   3.515   1.610  11.927  0.7126  0.0822 -0.1628
  527TIP3    H123072   3.582   1.674  11.950 -0.4991  1.1922  0.4582
  527TIP3    H223073   3.474   1.645  11.848 -0.4552  0.5109  0.6003
  528TIP3   OH223074   4.352   3.058  12.728 -0.1552 -0.3037  0.3249
  528TIP3    H123075   4.432   3.110  12.731  0.2882 -1.0026  0.7993
  528TIP3    H223076   4.299   3.100  12.660 -0.2503  1.3931  1.3805
  529TIP3   OH223077   1.101   1.539  15.914  0.0873 -0.1220  0.0433
  529TIP3    H123078   1.104   1.566  15.823  2.2560  0.4879  0.2446
  529TIP3    H223079   1.092   1.443  15.911 -0.2266 -0.0713 -0.7771
  530TIP3   OH223080   5.913   3.135   0.062 -0.3212 -0.1178 -0.5266
  530TIP3    H123081   5.983   3.112  -0.000  0.2052  2.0993 -0.8432
  530TIP3    H223082   5.835   3.145   0.007 -0.5728 -1.1699 -0.3754
  531TIP3   OH223083   5.777   5.761  11.473  0.1168 -0.1473  0.5971
  531TIP3    H123084   5.757   5.835  11.415  1.0707 -0.3935 -0.0874
  531TIP3    H223085   5.767   5.795  11.561  1.6886  1.1680  0.3100
  532TIP3   OH223086   3.184   4.277   2.313 -0.0292  0.0816 -0.0401
  532TIP3    H123087   3.135   4.358   2.299  0.7388  0.8783  1.6615
  532TIP3    H223088   3.147   4.240   2.394 -1.5272 -2.2024 -1.6314
  533TIP3   OH223089   2.190   3.280  15.088  0.5745 -0.1604  0.0890
  533TIP3    H123090   2.261   3.281  15.152  1.6797  0.7967 -1.0875
  533TIP3    H223091   2.128   3.346  15.120  1.5238  0.9144 -0.2229
  534TIP3   OH223092   4.941   1.422   3.862 -0.4823 -0.2417 -0.0053
  534TIP3    H123093   4.982   1.387   3.783 -0.5772  3.3996 -1.9053
  534TIP3    H223094   5.002   1.401   3.932  1.2410 -0.8630 -1.6012
  535TIP3   OH223095   6.183   3.512   1.485  0.3393  0.2325 -0.4834
  535TIP3    H123096   6.241   3.561   1.543 -0.5209  0.9322 -0.1823
  535TIP3    H223097   6.235   3.437   1.457  1.2328  0.6039  0.1183
  536TIP3   OH223098   2.223   5.430   3.256  0.1770  0.0003  0.4922
  536TIP3    H123099   2.192   5.482   3.331 -2.6085  2.8872 -2.3302
  536TIP3    H223100   2.148   5.376   3.231 -0.1748  1.4748 -1.9858
  537TIP3   OH223101   5.939   4.467  12.533  0.1810 -0.2883  0.1495
  537TIP3    H123102   5.916   4.472  12.440  0.4968  0.7967  0.1098
  537TIP3    H223103   5.987   4.385  12.542 -0.2055 -0.6038 -0.5618
  538TIP3   OH223104   6.336   4.577   3.555  0.0136  0.0173 -0.1645
  538TIP3    H123105   6.413   4.529   3.526 -1.5406 -2.6319 -0.2126
  538TIP3    H223106   6.293   4.606   3.474 -0.0570 -0.2269 -0.2153
  539TIP3   OH223107   4.165   1.939  15.985  0.6367 -0.2055  0.1586
  539TIP3    H123108   4.111   1.958  16.061 -0.7498  0.7475 -0.9989
  539TIP3    H223109   4.244   1.991  15.997  0.7292 -0.5632  1.2263
  540TIP3   OH223110   6.101   2.123  15.196 -0.0136  0.2220  0.0633
  540TIP3    H123111   6.034   2.186  15.168 -0.8676 -0.3764  0.7060
  540TIP3    H223112   6.062   2.037  15.180  0.3185 -0.1344  1.0839
  541TIP3   OH223113   3.001   4.852  17.206 -0.0369  0.2911  0.8396
  541TIP3    H123114   2.935   4.857  17.274  0.4608  1.6461  1.2676
  541TIP3    H223115   2.952   4.833  17.126 -0.6644 -0.9634  1.4997
  542TIP3   OH223116   6.005   6.297  14.406 -0.6630 -0.0152 -0.6935
  542TIP3    H123117   6.048   6.314  14.490 -0.7908  0.0283 -0.6367
  542TIP3    H223118   6.077   6.290  14.343 -0.5825  0.2762 -0.6365
  543TIP3   OH223119   2.714   0.626   1.285  0.3616 -0.1997  0.1541
  543TIP3    H123120   2.702   0.602   1.193  1.1480 -2.9941  0.6839
  543TIP3    H223121   2.771   0.558   1.320 -0.1735  0.6113  2.7977
  544TIP3   OH223122   0.181   1.045  11.622 -0.2699  0.3716  0.1251
  544TIP3    H123123   0.142   1.091  11.695  1.3302  0.3872  1.0092
  544TIP3    H223124   0.272   1.030  11.648 -0.1729 -1.3630 -1.0356
  545TIP3   OH223125   3.526   2.380  12.523  0.7944 -0.0293  0.3993
  545TIP3    H123126   3.525   2.337  12.438  1.0119  0.3431  0.2066
  545TIP3    H223127   3.452   2.341  12.571  0.3857  0.0888 -0.1235
  546TIP3   OH223128   3.909   4.023   2.561  0.2664  0.5774  0.0834
  546TIP3    H123129   3.963   4.053   2.489  0.5876 -0.9442 -0.3511
  546TIP3    H223130   3.930   4.082   2.634 -0.5307  2.5333 -1.1815
  547TIP3   OH223131   5.149   3.679   1.900  0.3249 -0.1508  0.1406
  547TIP3    H123132   5.157   3.753   1.959 -0.0460 -0.7465  0.9587
  547TIP3    H223133   5.067   3.695   1.852  0.3639  0.0766  0.1497
  548TIP3   OH223134   0.387   5.408  12.123 -0.2343 -0.1572 -0.0270
  548TIP3    H123135   0.364   5.315  12.115 -0.6780  0.0667 -1.6355
  548TIP3    H223136   0.314   5.454  12.082  1.0085  0.7910 -1.2300
  549TIP3   OH223137   6.635   4.755  13.903 -0.9778 -0.1565  0.5386
  549TIP3    H123138   6.639   4.795  13.990 -2.0809  0.2573  0.4254
  549TIP3    H223139   6.606   4.827  13.845  2.1059  0.2692 -0.6573
  550TIP3   OH223140   1.977   5.042   5.680 -0.1594  0.0201  0.4652
  550TIP3    H123141   1.940   5.097   5.749  0.1308  1.4578 -0.5011
  550TIP3    H223142   2.069   5.067   5.675 -0.4004  0.7032 -1.1427
  551TIP3   OH223143   5.494   6.726   6.327 -0.1677  0.2905 -0.2484
  551TIP3    H123144   5.553   6.780   6.273  0.4399  0.4458  0.5618
  551TIP3    H223145   5.444   6.790   6.378 -2.3135  0.2618 -2.1615
  552TIP3   OH223146   3.122   1.163  15.812  0.3493 -0.3372  0.5216
  552TIP3    H123147   3.103   1.231  15.747 -0.6382  0.3523  1.5156
  552TIP3    H223148   3.207   1.189  15.849 -0.0397  0.3810  0.9237
  553TIP3   OH223149   3.760   0.518   4.484 -0.6650 -0.6421  0.1468
  553TIP3    H123150   3.789   0.465   4.558  0.0161 -2.0991 -1.0938
  553TIP3    H223151   3.683   0.473   4.450 -1.4290  0.4339  0.3904
  554TIP3   OH223152   1.585   4.711   1.103 -0.5691  0.2884  0.0249
  554TIP3    H123153   1.649   4.648   1.137  1.2040  1.1009 -1.5595
  554TIP3    H223154   1.510   4.658   1.077  0.7076 -1.1708 -0.9069
  555TIP3   OH223155   4.356   3.531  15.072 -0.2993 -0.2138 -0.0606
  555TIP3    H123156   4.362   3.435  15.075  1.5446 -0.1321 -0.2207
  555TIP3    H223157   4.368   3.552  14.979  1.2973  0.2507  0.2287
  556TIP3   OH223158   4.502   4.638   1.226 -0.1956 -0.0842 -0.8025
  556TIP3    H123159   4.469   4.563   1.175  0.8194 -0.2115 -1.3000
  556TIP3    H223160   4.595   4.620   1.237 -0.3756 -0.0306  1.1025
  557TIP3   OH223161   0.376   3.447  13.496 -0.2194 -0.7709  0.1988
  557TIP3    H123162   0.338   3.467  13.410  1.1504 -0.9908 -0.4782
  557TIP3    H223163   0.332   3.367  13.523 -0.4393 -0.8714 -0.4362
  558TIP3   OH223164   3.431   0.224   4.062  0.0568  0.1780 -0.0161
  558TIP3    H123165   3.373   0.196   4.133 -1.9130  2.3807 -0.5961
  558TIP3    H223166   3.512   0.249   4.106  0.1138 -1.6074  1.0088
  559TIP3   OH223167   4.080   4.282   4.751 -0.0279  0.0271  0.1948
  559TIP3    H123168   4.029   4.294   4.671 -1.8410 -1.2431  1.0967
  559TIP3    H223169   4.171   4.289   4.722 -0.5465 -2.0757 -2.3403
  560TIP3   OH223170   2.332   0.274  15.878  0.1791 -0.5653  0.5735
  560TIP3    H123171   2.381   0.264  15.959 -1.2895  0.3910  1.6210
  560TIP3    H223172   2.247   0.309  15.905 -0.3827 -0.3118 -1.3661
  561TIP3   OH223173   6.246   0.960  16.227  0.8277 -0.3746 -0.0562
  561TIP3    H123174   6.169   0.915  16.193  0.4354 -0.5139  0.9929
  561TIP3    H223175   6.318   0.928  16.172  0.1475 -0.1791 -1.0968
  562TIP3   OH223176   0.399   5.736  15.296  0.2440 -0.3498 -0.2438
  562TIP3    H123177   0.428   5.684  15.371  0.4723 -1.8421 -1.3223
  562TIP3    H223178   0.454   5.707  15.224  1.2677  2.3450 -0.6513
  563TIP3   OH223179   0.031   0.910  12.995  0.0420  0.3449  0.3812
  563TIP3    H123180  -0.040   0.969  13.021 -0.8792 -0.9468  0.9367
  563TIP3    H223181  -0.014   0.835  12.957  1.2340  0.5384 -1.5135
  564TIP3   OH223182   5.711   5.599   0.547  0.7059 -0.1881 -0.4055
  564TIP3    H123183   5.790   5.602   0.492 -0.1115  0.0598 -1.6105
  564TIP3    H223184   5.694   5.691   0.569  1.1233 -0.3017  0.4214
  565TIP3   OH223185   4.897   1.716   2.451 -0.4652 -0.5487 -0.5504
  565TIP3    H123186   4.870   1.803   2.421 -1.5170 -0.7496 -0.2277
  565TIP3    H223187   4.935   1.675   2.373 -0.0825  0.1466 -0.7365
  566TIP3   OH223188   6.308   0.639  12.670 -0.2059 -0.1130  0.2707
  566TIP3    H123189   6.326   0.640  12.576 -0.2294 -2.1580  0.2033
  566TIP3    H223190   6.384   0.596  12.709 -0.9598 -0.8353  0.9797
  567TIP3   OH223191   5.961   3.355  16.896 -0.1561  0.4230  0.7834
  567TIP3    H123192   5.971   3.277  16.950 -0.0697  0.5093  0.8952
  567TIP3    H223193   5.867   3.362  16.880 -0.1464  0.1941  0.6186
  568TIP3   OH223194   0.049   0.487  14.381 -0.3048 -0.0267 -0.3079
  568TIP3    H123195   0.036   0.544  14.305 -2.1478 -0.3589 -0.2931
  568TIP3    H223196   0.086   0.406  14.345 -4.1395 -1.4706 -1.4886
  569TIP3   OH223197   6.029   1.107   4.072  0.6925 -0.1806  0.1177
  569TIP3    H123198   5.937   1.126   4.055  0.7086 -0.1583  0.0569
  569TIP3    H223199   6.032   1.012   4.083  0.7239 -0.2217 -0.2528
  570TIP3   OH223200   1.392   2.636   0.154  0.3919 -0.4262  0.0028
  570TIP3    H123201   1.486   2.625   0.141  0.2446 -0.5355 -1.0723
  570TIP3    H223202   1.360   2.548   0.175  0.7844 -0.0767  2.3543
  571TIP3   OH223203   6.366   5.266  13.715  0.2032 -0.5413 -0.4827
  571TIP3    H123204   6.431   5.201  13.739  0.5289 -0.3970 -0.9642
  571TIP3    H223205   6.384   5.340  13.773 -0.6277 -1.1371  0.5673
  572TIP3   OH223206   4.951   5.364  15.314 -0.4090  0.0647 -0.1903
  572TIP3    H123207   4.875   5.391  15.262 -0.0243  1.1974 -0.1780
  572TIP3    H223208   5.011   5.438  15.310  0.1480 -0.3079  0.8741
  573TIP3   OH223209   3.649   1.302   4.000  0.5328  0.3394  0.1645
  573TIP3    H123210   3.702   1.286   3.922  1.3833  0.8704  0.6117
  573TIP3    H223211   3.672   1.230   4.059 -0.0678 -0.0312 -0.0488
  574TIP3   OH223212   2.752   4.402  10.501  0.0607  0.3779 -0.0432
  574TIP3    H123213   2.712   4.425  10.417 -0.2082  1.6470  0.4146
  574TIP3    H223214   2.844   4.389  10.481  0.0676  1.0596 -0.4711
  575TIP3   OH223215   6.017   2.090  15.499  0.0349 -0.0367  0.3133
  575TIP3    H123216   5.934   2.082  15.452  0.2668 -0.7275  0.0086
  575TIP3    H223217   6.076   2.133  15.437 -0.3755  1.4451  0.9013
  576TIP3   OH223218   6.066   1.560  16.480 -0.0735  0.2431 -0.0217
  576TIP3    H123219   6.077   1.488  16.542 -1.3815 -1.2738 -1.4624
  576TIP3    H223220   6.144   1.555  16.425  0.0439  0.1946  0.1472
  577TIP3   OH223221   5.226   0.291  14.298  0.2041  0.6334  0.3147
  577TIP3    H123222   5.317   0.312  14.318 -0.1470 -0.0301  3.0313
  577TIP3    H223223   5.178   0.313  14.378 -1.5140 -1.9881  0.1346
  578TIP3   OH223224   0.531   2.989   0.439  0.3356  0.3972 -0.0971
  578TIP3    H123225   0.626   2.991   0.455  0.3013  2.3701  0.0783
  578TIP3    H223226   0.496   3.058   0.495 -1.3279 -0.7286  0.3477
  579TIP3   OH223227   3.528   4.365  13.460 -0.3871 -0.4122 -0.1027
  579TIP3    H123228   3.618   4.330  13.460 -0.8178 -1.7543 -2.5075
  579TIP3    H223229   3.539   4.459  13.472  1.3306 -0.5938  0.0476
  580TIP3   OH223230   0.282   4.421   6.112  0.1257 -0.0987  0.2810
  580TIP3    H123231   0.278   4.449   6.204  0.0868 -2.0999  0.9400
  580TIP3    H223232   0.311   4.499   6.064 -0.1472  1.0784  1.9354
  581TIP3   OH223233   4.578   2.095  16.285  0.2170  0.1813  0.3896
  581TIP3    H123234   4.673   2.100  16.293  0.2544 -1.8670  2.3978
  581TIP3    H223235   4.563   2.045  16.205  1.0282 -2.1723  1.6067
  582TIP3   OH223236   4.121   1.151  11.634 -0.0323 -0.3418 -0.4918
  582TIP3    H123237   4.148   1.069  11.675 -0.4591 -0.9922 -1.4742
  582TIP3    H223238   4.190   1.169  11.569  0.0067  0.0318 -0.3527
  583TIP3   OH223239   0.557   4.123  14.730  0.3912 -0.2042 -0.6013
  583TIP3    H123240   0.505   4.053  14.690  0.2201  1.8964 -4.6412
  583TIP3    H223241   0.496   4.196  14.741  1.1667  0.2859  0.6753
  584TIP3   OH223242   3.509   3.248  16.333  0.8278  0.4818 -0.0762
  584TIP3    H123243   3.572   3.192  16.287  0.7934  0.6188 -0.2928
  584TIP3    H223244   3.555   3.331  16.346  0.8638  0.4160  0.2066
  585TIP3   OH223245   2.269   2.397  14.632  0.1150 -0.4636  0.1087
  585TIP3    H123246   2.362   2.385  14.649  0.6718  0.8852 -1.6850
  585TIP3    H223247   2.226   2.325  14.679  2.0177 -0.9344  1.2049
  586TIP3   OH223248   0.192   2.874   0.468  0.0869  0.5144  0.2570
  586TIP3    H123249   0.109   2.833   0.442  0.1910  0.6078 -0.2302
  586TIP3    H223250   0.199   2.952   0.414  0.5990  0.3916  0.1354
  587TIP3   OH223251   1.203   3.614  15.271  0.2907  0.1135  0.0057
  587TIP3    H123252   1.218   3.708  15.259  0.1518  0.1740  0.3002
  587TIP3    H223253   1.109   3.606  15.281  0.3007 -0.0613 -0.0499
  588TIP3   OH223254   2.586   5.786   4.408 -0.4914  0.8853  0.5910
  588TIP3    H123255   2.634   5.776   4.325 -1.7103  0.1122 -0.0484
  588TIP3    H223256   2.602   5.876   4.434 -0.3998  1.2609 -0.6977
  589TIP3   OH223257   4.264   6.038  16.393  0.1698  0.6943  0.0295
  589TIP3    H123258   4.305   6.123  16.411 -0.0376  1.1096 -1.3359
  589TIP3    H223259   4.189   6.035  16.452  1.4216  0.4641  1.6795
  590TIP3   OH223260   5.742   2.724   0.687  0.3060 -0.3509 -0.6908
  590TIP3    H123261   5.670   2.730   0.625 -0.9269  1.4889  0.8160
  590TIP3    H223262   5.809   2.783   0.651 -0.1658  0.2587 -0.5850
  591TIP3   OH223263   6.035   3.412   2.340 -0.1583 -0.1455  0.3646
  591TIP3    H123264   6.105   3.425   2.404 -0.4557  1.1658  0.4384
  591TIP3    H223265   6.019   3.317   2.342  1.2954 -0.4043  0.6619
  592TIP3   OH223266   0.234   2.981  10.925 -0.0548 -0.2314 -0.4312
  592TIP3    H123267   0.280   2.908  10.966 -1.5272 -1.7604 -1.3973
  592TIP3    H223268   0.163   3.002  10.986  0.0893  0.1064 -0.3767
  593TIP3   OH223269   3.537   5.700  16.013  0.5947  0.4859 -0.3219
  593TIP3    H123270   3.586   5.708  16.095 -0.7309  1.4806  0.4081
  593TIP3    H223271   3.490   5.617  16.021  1.0300  0.2331 -0.3897
  594TIP3   OH223272   4.089   0.154   5.754  0.0842  0.2404 -0.1403
  594TIP3    H123273   4.174   0.134   5.794  0.8864  0.7925 -1.4926
  594TIP3    H223274   4.025   0.138   5.824  1.2024 -1.1017  0.6295
  595TIP3   OH223275   5.301   4.445   0.018 -0.6697  0.0776  0.9337
  595TIP3    H123276   5.276   4.528   0.058  0.8323  1.6407 -1.1241
  595TIP3    H223277   5.377   4.466  -0.036 -1.1402 -2.3049 -0.8651
  596TIP3   OH223278   4.807   4.437   1.510 -0.5658  0.2764  0.4893
  596TIP3    H123279   4.773   4.390   1.586 -0.5971  0.6399  0.7010
  596TIP3    H223280   4.865   4.374   1.466  0.6860  0.5463  1.6806
  597TIP3   OH223281   6.299   4.984  14.904 -0.1649 -0.3975 -0.5684
  597TIP3    H123282   6.362   4.985  14.832  2.0432  0.8995  1.2363
  597TIP3    H223283   6.299   4.893  14.935  1.2231 -0.3185 -0.2991
  598TIP3   OH223284   4.988   0.306  12.535  0.6590  0.2003  0.3465
  598TIP3    H123285   4.925   0.291  12.464  0.3386  0.8298  0.4829
  598TIP3    H223286   4.962   0.391  12.571  2.2195  0.9571 -0.2448
  599TIP3   OH223287   0.518   3.825   3.456 -0.7662  0.5281  0.1393
  599TIP3    H123288   0.475   3.818   3.541 -2.2232  0.2795 -0.5854
  599TIP3    H223289   0.462   3.776   3.396  0.3622  0.4803 -0.9276
  600TIP3   OH223290   2.136   6.500  15.161  0.2766 -0.7438  0.0159
  600TIP3    H123291   2.211   6.445  15.183  1.3503  0.5689 -0.1674
  600TIP3    H223292   2.112   6.541  15.244  1.2836  0.5915 -0.3121
  601TIP3   OH223293   3.414   2.268  17.105 -0.1790  0.6130 -0.0594
  601TIP3    H123294   3.442   2.279  17.015 -1.4455  0.4950 -0.4835
  601TIP3    H223295   3.353   2.339  17.121  0.2454  0.8054  0.8064
  602TIP3   OH223296   1.701   4.934  14.210 -0.6519 -0.2767  0.1565
  602TIP3    H123297   1.683   4.906  14.120 -1.6036  2.2798 -0.5236
  602TIP3    H223298   1.676   4.858  14.264  1.3915 -2.4644 -1.7228
  603TIP3   OH223299   5.679   2.816   4.334 -0.0045 -0.3423  0.2658
  603TIP3    H123300   5.632   2.827   4.251  1.6270 -1.9710 -0.9515
  603TIP3    H223301   5.611   2.787   4.396 -1.2505  0.8950 -0.4549
  604TIP3   OH223302   3.578   5.958   4.306  0.0290 -0.7421 -0.1484
  604TIP3    H123303   3.547   5.876   4.266 -0.1602 -0.5716 -0.3595
  604TIP3    H223304   3.652   5.932   4.360  0.1891 -1.0054 -0.4856
  605TIP3   OH223305   5.453   6.472  14.839  0.5445 -0.3282 -0.2579
  605TIP3    H123306   5.547   6.474  14.853  0.4814 -0.8227  0.2825
  605TIP3    H223307   5.415   6.483  14.926  0.1341 -2.4630 -0.1133
  606TIP3   OH223308   2.005   0.882  13.222  0.9401 -0.0173  0.4949
  606TIP3    H123309   2.069   0.907  13.288  2.4914 -1.0548 -0.5505
  606TIP3    H223310   2.054   0.829  13.159 -0.7002  0.0731 -0.9531
  607TIP3   OH223311   4.431   0.588   1.649  0.0704  0.2109 -0.4751
  607TIP3    H123312   4.387   0.515   1.604  2.9563 -0.8511 -1.8452
  607TIP3    H223313   4.375   0.664   1.633 -1.8835 -1.2603 -0.9580
  608TIP3   OH223314   4.984   3.547   1.354 -0.0527 -0.1380  0.1765
  608TIP3    H123315   5.070   3.529   1.316 -0.8312  2.3223 -3.1352
  608TIP3    H223316   4.927   3.479   1.317 -0.3441  0.8692 -1.2989
  609TIP3   OH223317   6.589   1.150   3.649 -0.1316  0.0940  0.3557
  609TIP3    H123318   6.578   1.060   3.682  0.4503 -0.2180 -0.2755
  609TIP3    H223319   6.521   1.200   3.694 -1.2627 -0.9090 -0.1918
  610TIP3   OH223320   5.539   5.291  11.366  0.4504 -0.1374 -0.2112
  610TIP3    H123321   5.608   5.270  11.428  0.2432 -0.1586  0.0096
  610TIP3    H223322   5.500   5.372  11.399  2.3132  1.5926 -1.9115
  611TIP3   OH223323   4.960   4.579  12.526  0.0823 -0.3611 -0.1853
  611TIP3    H123324   4.898   4.506  12.531 -1.1006  0.5161 -1.2898
  611TIP3    H223325   4.996   4.587  12.614 -0.6348 -1.5217  0.2365
  612TIP3   OH223326   0.575   4.987  16.294  0.0935  0.2456  0.3833
  612TIP3    H123327   0.602   5.039  16.370  4.0499 -0.3510 -0.3607
  612TIP3    H223328   0.577   4.897  16.325  0.6507  0.0755 -0.1294
  613TIP3   OH223329   5.519   2.577   2.718  0.3765 -0.7489  0.2108
  613TIP3    H123330   5.591   2.534   2.765  0.0591 -0.8620  0.6034
  613TIP3    H223331   5.526   2.546   2.628  1.5982  0.2334 -0.0645
  614TIP3   OH223332   5.927   5.664   0.404  0.6625 -0.2586 -0.2474
  614TIP3    H123333   5.882   5.650   0.321  0.4699 -1.0018 -0.0294
  614TIP3    H223334   6.020   5.668   0.380  0.5008  1.5203 -0.7267
  615TIP3   OH223335   0.640   1.281  16.721 -0.3807  0.2722 -0.0984
  615TIP3    H123336   0.732   1.257  16.713 -0.7057 -1.1706  0.2199
  615TIP3    H223337   0.595   1.227  16.656 -1.0123  0.9497 -0.2434
  616TIP3   OH223338   0.889   6.096   2.602  0.3767  0.7007  0.7778
  616TIP3    H123339   0.907   6.025   2.663  0.4066  0.4514  0.4797
  616TIP3    H223340   0.943   6.077   2.525  2.7760  2.6785  1.8600
  617TIP3   OH223341   0.042   3.367  14.878 -0.1479  0.0467 -0.1566
  617TIP3    H123342   0.044   3.275  14.904 -0.5710  0.0156 -0.2351
  617TIP3    H223343   0.013   3.365  14.787 -3.9203  0.4699  0.8958
  618TIP3   OH223344   1.565   2.477  15.626  0.0716 -0.3284  0.3170
  618TIP3    H123345   1.559   2.551  15.565 -1.2286 -0.7468 -0.1090
  618TIP3    H223346   1.589   2.517  15.709  0.5427  0.4262 -0.1615
  619TIP3   OH223347   1.372   1.743   2.565 -0.1427 -0.0185  0.4726
  619TIP3    H123348   1.452   1.706   2.603  0.4640 -0.9631 -1.5929
  619TIP3    H223349   1.325   1.667   2.531 -0.9224  0.7327 -0.1693
  620TIP3   OH223350   0.477   1.143  15.412 -0.3261  0.2115  0.0061
  620TIP3    H123351   0.469   1.204  15.485  0.1814  1.9905 -1.3223
  620TIP3    H223352   0.569   1.148  15.386 -0.7615  0.7426 -1.5984
  621TIP3   OH223353   6.738   3.496   5.608  0.3067 -0.1009 -0.1362
  621TIP3    H123354   6.812   3.454   5.565  0.7838 -1.4773  1.9023
  621TIP3    H223355   6.737   3.585   5.573  1.9026 -0.5363 -1.4118
  622TIP3   OH223356   5.269   6.088  11.870  0.0710 -0.6488 -0.9880
  622TIP3    H123357   5.245   6.168  11.821  0.8953 -0.1676 -0.6230
  622TIP3    H223358   5.330   6.118  11.937 -0.0152 -1.5172 -0.5044
  623TIP3   OH223359   0.036   0.264   4.891  0.7234 -0.7721  0.1388
  623TIP3    H123360  -0.036   0.204   4.911  1.6107 -1.9449 -0.0927
  623TIP3    H223361   0.098   0.211   4.840  0.6423  0.8760 -1.8015
  624TIP3   OH223362   0.670   4.989   4.342  0.3394 -0.6137 -0.0593
  624TIP3    H123363   0.694   4.900   4.319  0.9817 -0.6244  0.6089
  624TIP3    H223364   0.741   5.043   4.307 -0.1738 -0.3323 -0.6881
  625TIP3   OH223365   6.190   2.907   1.755  0.3616  0.2120 -0.1710
  625TIP3    H123366   6.204   2.881   1.846  0.3470 -0.4510 -0.3585
  625TIP3    H223367   6.098   2.884   1.737  0.2782  0.6090 -0.2663
  626TIP3   OH223368   6.386   3.426   3.548  0.2720 -0.0456  0.2401
  626TIP3    H123369   6.293   3.442   3.537  0.0330  0.8403  2.8195
  626TIP3    H223370   6.397   3.411   3.642  2.7650  0.1222  0.0575
  627TIP3   OH223371   6.665   0.457  14.865 -0.0555 -0.2179 -0.5858
  627TIP3    H123372   6.694   0.487  14.779  0.2534  0.3719 -0.2887
  627TIP3    H223373   6.743   0.418  14.904  0.2453  0.9140  0.0174
  628TIP3   OH223374   5.799   5.524   0.791 -0.2325 -0.8131  0.5670
  628TIP3    H123375   5.767   5.571   0.714 -0.1745 -0.7227  0.5970
  628TIP3    H223376   5.746   5.444   0.795 -1.0001 -0.3018  1.0528
  629TIP3   OH223377   6.492   6.316   5.286  0.2557  0.0984  0.2479
  629TIP3    H123378   6.490   6.412   5.283 -0.8162  0.0816  0.0325
  629TIP3    H223379   6.408   6.289   5.249  0.6908 -0.9360 -0.0280
  630TIP3   OH223380   3.204   3.780   5.315 -0.0393  0.1000  0.4722
  630TIP3    H123381   3.226   3.699   5.269  0.0613 -0.7472  1.9460
  630TIP3    H223382   3.221   3.761   5.408  1.9659  2.4748  0.6980
  631TIP3   OH223383   2.541   4.202  16.421 -0.4623 -0.1612 -0.2803
  631TIP3    H123384   2.468   4.143  16.400 -0.8881  0.2395  0.0540
  631TIP3    H223385   2.531   4.276  16.361 -0.6353  0.1375  0.1105
  632TIP3   OH223386   4.131   2.111   4.868 -0.4239  0.2559  0.5627
  632TIP3    H123387   4.108   2.149   4.783 -1.8451  1.7443  1.5618
  632TIP3    H223388   4.186   2.036   4.846  1.3039  1.9848 -1.5881
  633TIP3   OH223389   3.739   4.718   2.877  0.1674 -0.1731 -0.3927
  633TIP3    H123390   3.649   4.704   2.847 -0.6692 -3.3874  2.9388
  633TIP3    H223391   3.733   4.792   2.938 -0.0384  0.1675 -0.8247
  634TIP3   OH223392   3.883   5.969  13.035 -0.1446 -0.2832 -0.2257
  634TIP3    H123393   3.834   5.917  13.099  1.1040  0.3507  1.3076
  634TIP3    H223394   3.879   6.058  13.068  1.1788 -0.0679 -0.5883
  635TIP3   OH223395   1.883   3.608   5.971  0.3241 -0.1727  0.4320
  635TIP3    H123396   1.834   3.584   6.050 -2.1227  2.0205 -0.2669
  635TIP3    H223397   1.853   3.696   5.950  1.9344 -0.1357 -2.1952
  636TIP3   OH223398   4.770   6.561  15.598  0.3032 -0.2486 -0.1791
  636TIP3    H123399   4.859   6.588  15.573 -0.7918  1.9831 -2.0753
  636TIP3    H223400   4.737   6.515  15.521  0.6556 -3.7453  1.5296
  637TIP3   OH223401   0.196   2.441   1.522 -0.3681  0.2160 -0.7391
  637TIP3    H123402   0.174   2.528   1.556 -1.3643 -0.3619  0.1279
  637TIP3    H223403   0.225   2.458   1.432  1.8092  1.7264  0.1534
  638TIP3   OH223404   0.436   2.402   3.786 -0.0963  0.5367  0.1002
  638TIP3    H123405   0.493   2.404   3.862  0.2024 -1.5016 -0.0189
  638TIP3    H223406   0.493   2.425   3.712  0.2864 -0.2404  0.1477
  639TIP3   OH223407   5.249   4.187  14.784  0.0509  0.2646  0.4457
  639TIP3    H123408   5.290   4.197  14.870  0.6337  1.7359  0.0365
  639TIP3    H223409   5.194   4.265  14.775 -1.0858 -0.5591  0.0366
  640TIP3   OH223410   4.192   5.393   1.776  0.4663  0.4042 -0.0627
  640TIP3    H123411   4.146   5.444   1.710  1.0104  1.7925  0.5744
  640TIP3    H223412   4.284   5.420   1.767  0.6634  0.0238  0.7262
  641TIP3   OH223413   6.645   1.611   3.322 -0.0342  0.0745 -0.0697
  641TIP3    H123414   6.643   1.686   3.262 -0.9826  1.0379  1.0929
  641TIP3    H223415   6.629   1.650   3.408 -0.1327 -1.4282  0.6223
  642TIP3   OH223416   1.223   6.300   5.009 -0.3017 -0.4781 -0.0879
  642TIP3    H123417   1.174   6.309   5.090 -1.0322  0.7181 -0.6324
  642TIP3    H223418   1.309   6.267   5.036 -0.0453  1.2285  1.3166
  643TIP3   OH223419   0.876   6.623  11.653 -0.1075  0.3548  0.7840
  643TIP3    H123420   0.932   6.569  11.708 -1.0657  0.8763  2.3370
  643TIP3    H223421   0.930   6.699  11.631  0.5363 -0.2217  0.3567
  644TIP3   OH223422   4.041   3.842   4.576 -0.4376 -0.7839 -0.3696
  644TIP3    H123423   4.064   3.808   4.662 -0.8151  0.3621  0.1946
  644TIP3    H223424   4.116   3.821   4.521 -0.1085 -1.3416  0.2766
  645TIP3   OH223425   1.077   0.509  14.837  0.3224  0.0084  0.1632
  645TIP3    H123426   1.015   0.577  14.811 -0.5357 -0.8703 -0.1427
  645TIP3    H223427   1.132   0.551  14.903 -0.9096  0.6714  0.8097
  646TIP3   OH223428   6.356   4.908   2.716 -0.2599  0.4281 -0.2335
  646TIP3    H123429   6.271   4.866   2.729 -0.6496  1.2122 -0.2063
  646TIP3    H223430   6.374   4.952   2.799  0.6157 -0.4971  0.0857
  647TIP3   OH223431   6.061   6.047   0.357 -0.1187 -0.3221  0.4323
  647TIP3    H123432   5.990   6.014   0.301 -0.1452  1.2845 -0.5373
  647TIP3    H223433   6.059   6.142   0.345  1.5219 -0.1560  1.2323
  648TIP3   OH223434   6.392   5.935   3.290 -0.5059  0.1502  0.1903
  648TIP3    H123435   6.473   5.883   3.287  2.0963  3.8370 -1.3712
  648TIP3    H223436   6.382   5.969   3.201 -2.5439  1.5404  0.8809
  649TIP3   OH223437   2.808   4.638  13.043  0.5650 -0.2192  0.4029
  649TIP3    H123438   2.893   4.595  13.045  0.2799 -0.8955 -0.7512
  649TIP3    H223439   2.828   4.728  13.017  0.9130 -0.4749 -0.2485
  650TIP3   OH223440   5.559   5.494  14.987  0.0201  0.7486 -0.0285
  650TIP3    H123441   5.477   5.450  14.966  1.0774 -1.4601  0.1550
  650TIP3    H223442   5.558   5.575  14.935 -2.2691  0.8204  0.0478
  651TIP3   OH223443   3.057   5.414  12.430  0.2091 -0.5734 -0.0506
  651TIP3    H123444   2.998   5.372  12.367 -0.3002  1.7661 -1.2591
  651TIP3    H223445   3.145   5.393  12.398 -0.0338 -0.7004 -0.6506
  652TIP3   OH223446   3.543   2.172   2.174 -0.4175 -0.0654  0.0220
  652TIP3    H123447   3.508   2.251   2.132  1.7968 -0.0250 -1.9606
  652TIP3    H223448   3.479   2.104   2.154  0.0873  0.1765 -2.7686
  653TIP3   OH223449   6.151   0.640   0.165 -0.4977 -0.2867  0.1714
  653TIP3    H123450   6.130   0.656   0.257 -0.3666  1.5925 -0.0826
  653TIP3    H223451   6.211   0.711   0.141  0.9749 -1.7889 -0.8876
  654TIP3   OH223452   1.227   1.934   4.830  0.3308  0.0863 -0.2838
  654TIP3    H123453   1.323   1.941   4.832  0.3401 -0.2290  0.9839
  654TIP3    H223454   1.200   2.003   4.769  1.4240 -0.6762 -1.6853
  655TIP3   OH223455   1.677   6.453  14.568  0.3762 -0.2507 -0.0248
  655TIP3    H123456   1.656   6.428  14.658 -2.3801  2.1748  0.1717
  655TIP3    H223457   1.759   6.501  14.576  0.5743 -0.7320  1.0683
  656TIP3   OH223458   1.532   5.193  13.452  0.0490  0.1918 -1.0069
  656TIP3    H123459   1.447   5.149  13.451 -0.5419  1.2709 -2.5370
  656TIP3    H223460   1.586   5.141  13.512 -1.6405 -0.5917 -0.1024
  657TIP3   OH223461   4.742   4.389  16.057 -0.3920 -0.2662  0.3131
  657TIP3    H123462   4.832   4.419  16.048  0.2440 -1.7369  1.2811
  657TIP3    H223463   4.706   4.441  16.129 -0.1127 -0.0769  0.3171
  658TIP3   OH223464   2.078   1.880   1.509  0.0260 -0.1775 -0.7259
  658TIP3    H123465   2.120   1.871   1.423 -2.2608 -3.1163 -1.6941
  658TIP3    H223466   1.995   1.922   1.491 -0.4951 -0.8651  0.0051
  659TIP3   OH223467   2.364   4.232   4.760  0.1316 -0.4720  0.4989
  659TIP3    H123468   2.395   4.176   4.831  1.6818 -1.5186 -0.9064
  659TIP3    H223469   2.348   4.172   4.687  0.1472  0.7163 -0.5292
  660TIP3   OH223470   4.184   5.169  11.009  0.0312 -0.5972 -0.2193
  660TIP3    H123471   4.187   5.239  10.944  0.1415 -0.2777  0.1266
  660TIP3    H223472   4.126   5.103  10.972 -1.7757  0.6031  0.3801
  661TIP3   OH223473   4.204   4.479   1.902  0.0354 -0.2089 -0.3101
  661TIP3    H123474   4.108   4.482   1.896  0.1058 -0.2219 -2.2714
  661TIP3    H223475   4.228   4.567   1.929 -0.4756  0.4380 -1.8353
  662TIP3   OH223476   4.593   1.386   0.652  0.3786 -0.2218 -0.4825
  662TIP3    H123477   4.532   1.454   0.681  0.1651  0.1433 -1.7201
  662TIP3    H223478   4.678   1.430   0.649  0.6258 -0.5915  0.7443
  663TIP3   OH223479   1.680   5.586  16.460  0.2872 -0.0349  0.2401
  663TIP3    H123480   1.684   5.571  16.365 -2.4236 -1.2150  0.2415
  663TIP3    H223481   1.671   5.499  16.498 -1.2382  0.5716  1.3596
  664TIP3   OH223482   3.437   2.823   3.673 -0.0216 -0.0215  0.4697
  664TIP3    H123483   3.447   2.889   3.604 -2.1113 -0.0055  0.1229
  664TIP3    H223484   3.491   2.750   3.643  1.7345  1.1939  0.4877
  665TIP3   OH223485   3.597   2.306   0.970 -0.4489  0.2845 -0.2837
  665TIP3    H123486   3.555   2.382   1.009 -0.1462  1.2298 -1.7212
  665TIP3    H223487   3.648   2.341   0.896 -1.8369 -1.4819 -2.2190
  666TIP3   OH223488   4.858   3.809   3.599 -0.1781 -0.0359  0.4469
  666TIP3    H123489   4.856   3.862   3.679  0.3939 -0.2981  0.6403
  666TIP3    H223490   4.827   3.723   3.626 -1.6605  0.3329  0.0125
  667TIP3   OH223491   3.810   2.815   5.360  0.5714  0.4762 -0.3524
  667TIP3    H123492   3.724   2.774   5.345  1.3926 -1.5363  0.1887
  667TIP3    H223493   3.872   2.743   5.358  2.1341  1.7301  0.5265
  668TIP3   OH223494   2.970   2.437   1.489 -0.1895 -0.0811 -0.1227
  668TIP3    H123495   3.034   2.433   1.418 -1.0989 -0.3165 -0.9577
  668TIP3    H223496   2.947   2.345   1.505  0.7881 -0.1247  1.2339
  669TIP3   OH223497   6.631   2.905  15.380 -0.5752  0.1203 -0.3976
  669TIP3    H123498   6.588   2.982  15.417 -1.6440 -0.3944 -0.5362
  669TIP3    H223499   6.560   2.843  15.363  0.2178 -0.7404 -0.6809
  670TIP3   OH223500   4.638   6.035  14.217  0.0090  0.4454 -0.3077
  670TIP3    H123501   4.588   6.078  14.286  0.5943  0.5193  0.0873
  670TIP3    H223502   4.610   5.944  14.220 -0.6866  0.6444 -0.6392
  671TIP3   OH223503   5.734   4.335   0.484  0.3305 -0.0156 -0.8001
  671TIP3    H123504   5.660   4.369   0.433 -0.5725  0.9842  1.0760
  671TIP3    H223505   5.731   4.240   0.470 -0.1936  0.1770 -2.1543
  672TIP3   OH223506   4.704   4.342  15.420  0.1733 -0.2754  0.0323
  672TIP3    H123507   4.748   4.400  15.359  0.9924 -0.9481 -0.0293
  672TIP3    H223508   4.618   4.383  15.434 -0.5123 -0.6734 -2.4451
  673TIP3   OH223509   5.258   3.817  17.169 -0.0503  0.4502 -0.4532
  673TIP3    H123510   5.206   3.835  17.247 -0.9651 -1.6622 -0.5070
  673TIP3    H223511   5.208   3.858  17.097  0.5333  1.9562 -0.0364
  674TIP3   OH223512   0.203   5.625  15.904 -0.1384  0.0371 -0.4859
  674TIP3    H123513   0.237   5.637  15.993 -1.8204 -0.7704  0.3118
  674TIP3    H223514   0.119   5.670  15.904 -0.6295 -0.8341 -1.3527
  675TIP3   OH223515   5.725   0.724   1.989 -0.2852  0.1108  0.2323
  675TIP3    H123516   5.682   0.753   2.069 -0.9336 -1.1930  0.3716
  675TIP3    H223517   5.819   0.725   2.011 -0.4532 -0.2115  1.0021
  676TIP3   OH223518   1.275   6.210   2.714  0.2090 -0.0270  0.3933
  676TIP3    H123519   1.333   6.191   2.788  1.9633 -0.5599 -1.0683
  676TIP3    H223520   1.273   6.129   2.663 -0.2389  0.6159 -0.6428
  677TIP3   OH223521   6.434   4.494  10.963 -0.1437  0.1318 -0.6861
  677TIP3    H123522   6.369   4.544  11.013  0.3632  2.0674 -1.8317
  677TIP3    H223523   6.492   4.561  10.925 -0.1963 -1.2013 -3.4198
  678TIP3   OH223524   5.663   0.423  14.710 -0.5621  0.0390  0.0263
  678TIP3    H123525   5.738   0.414  14.652  0.4497  0.3346  1.2307
  678TIP3    H223526   5.609   0.347  14.691  1.0088 -1.2522  0.4448
  679TIP3   OH223527   6.332   3.853  10.468  0.3832  0.2340 -0.1491
  679TIP3    H123528   6.239   3.843  10.488  0.7472 -3.0274  0.5338
  679TIP3    H223529   6.361   3.926  10.523 -1.6017  0.8227  0.1794
  680TIP3   OH223530   0.784   3.998   4.917  0.3594  0.5217  0.0389
  680TIP3    H123531   0.857   4.060   4.908  0.3080  0.5795  0.0200
  680TIP3    H223532   0.740   4.023   4.997  0.8368 -0.0177  0.4837
  681TIP3   OH223533   1.291   2.843  14.130 -0.4824  0.4150  0.6566
  681TIP3    H123534   1.269   2.854  14.223 -0.8280  0.6107  0.5533
  681TIP3    H223535   1.386   2.857  14.126 -0.1690 -1.2494  1.2360
  682TIP3   OH223536   2.326   4.535  13.992 -0.2006  0.0333 -0.1282
  682TIP3    H123537   2.287   4.548  13.906 -1.4203  0.4605  0.4724
  682TIP3    H223538   2.351   4.624  14.021 -2.5787  0.3460  1.2130
  683TIP3   OH223539   6.080   3.002   6.364  0.4893 -0.1021 -0.0952
  683TIP3    H123540   6.032   2.990   6.446 -0.5549 -2.2319 -0.9529
  683TIP3    H223541   6.172   2.989   6.387  0.2563 -0.1915  0.8129
  684TIP3   OH223542   4.189   1.914  16.746 -0.4897 -0.5158 -0.9334
  684TIP3    H123543   4.201   1.838  16.690 -0.8054 -0.9562 -0.4143
  684TIP3    H223544   4.270   1.964  16.736  0.7296 -2.0977  0.4787
  685TIP3   OH223545   3.061   4.468   3.530  0.3168  0.5783  0.1139
  685TIP3    H123546   3.091   4.378   3.517 -0.9073  0.3102 -1.1507
  685TIP3    H223547   3.101   4.517   3.459 -3.0228 -0.0467 -2.4856
  686TIP3   OH223548   5.499   4.242   2.778 -0.3364  0.7322  0.2921
  686TIP3    H123549   5.410   4.225   2.750  0.3134 -1.1246 -0.8082
  686TIP3    H223550   5.512   4.187   2.855  0.1291  0.2992 -0.0888
  687TIP3   OH223551   6.589   6.026  16.892  0.2112  0.7151 -0.4517
  687TIP3    H123552   6.504   6.068  16.879  0.1089  0.5921 -0.1790
  687TIP3    H223553   6.607   5.983  16.808 -0.7312 -0.5883 -0.0282
  688TIP3   OH223554   0.452   6.079   4.871 -0.1764  0.2978  0.0120
  688TIP3    H123555   0.422   6.161   4.830 -0.4608  0.8360  1.2513
  688TIP3    H223556   0.424   6.011   4.810 -1.1091  1.0282 -0.4183
  689TIP3   OH223557   2.733   0.838   0.953  0.2183 -0.0385 -0.2253
  689TIP3    H123558   2.724   0.840   1.048  1.5529  1.2978 -0.0877
  689TIP3    H223559   2.643   0.839   0.920 -0.3200  2.8180  1.0198
  690TIP3   OH223560   0.706   2.570   5.025 -0.6222  0.0243  0.0004
  690TIP3    H123561   0.642   2.499   5.039 -1.1364  0.4517 -0.1619
  690TIP3    H223562   0.678   2.612   4.944  0.6252 -0.5811 -0.7661
  691TIP3   OH223563   5.096   3.853   2.459  0.0591 -0.4753  0.2936
  691TIP3    H123564   5.122   3.794   2.388 -0.3099 -0.9204  0.5220
  691TIP3    H223565   5.139   3.818   2.537  2.0724  1.1381 -0.0124
  692TIP3   OH223566   4.595   2.201   0.084  0.1592 -0.2396 -0.5028
  692TIP3    H123567   4.503   2.227   0.091 -0.2186 -1.7588  1.0541
  692TIP3    H223568   4.600   2.120   0.135  2.8863  1.1643  1.7137
  693TIP3   OH223569   0.753   0.604  12.605 -0.0707  0.0071 -0.0164
  693TIP3    H123570   0.800   0.686  12.619  0.7662 -0.7036  1.7047
  693TIP3    H223571   0.664   0.623  12.633  0.1116  0.3503  0.3479
  694TIP3   OH223572   5.258   2.498   5.069 -0.1533 -0.0826  0.1646
  694TIP3    H123573   5.225   2.409   5.081  0.8144 -0.5553 -0.5816
  694TIP3    H223574   5.241   2.541   5.153  0.3362 -1.2964  0.9126
  695TIP3   OH223575   5.862   1.208   0.830 -0.7025  0.2448 -0.0796
  695TIP3    H123576   5.787   1.156   0.804  0.4676 -1.0884 -0.9287
  695TIP3    H223577   5.900   1.239   0.747  0.2251  0.0843  0.2721
  696TIP3   OH223578   6.258   4.522  12.004  0.1915 -0.1362 -0.2866
  696TIP3    H123579   6.180   4.576  11.992  0.1132  0.0891  1.0553
  696TIP3    H223580   6.224   4.434  12.022  0.1658  0.1759  1.3933
  697TIP3   OH223581   6.758   0.340  16.177 -0.0072  0.2513  0.0996
  697TIP3    H123582   6.814   0.268  16.202 -0.4679 -0.0779  0.1893
  697TIP3    H223583   6.780   0.357  16.085 -2.1603 -2.1781 -0.9993
  698TIP3   OH223584   5.152   5.544  15.307 -0.2209  0.4384  0.3648
  698TIP3    H123585   5.188   5.555  15.219  0.8036 -0.5967  0.6322
  698TIP3    H223586   5.115   5.629  15.328 -0.9710  0.5502 -1.2778
  699TIP3   OH223587   3.287   6.192   2.067 -0.0223 -1.0025  0.4395
  699TIP3    H123588   3.340   6.233   2.136 -0.8913 -2.1143  1.8468
  699TIP3    H223589   3.349   6.136   2.019  0.3882 -1.1132  1.0770
  700TIP3   OH223590   6.127   5.487  16.735  0.3940 -0.2635 -0.1279
  700TIP3    H123591   6.078   5.567  16.754 -0.9420 -1.0122 -0.3504
  700TIP3    H223592   6.199   5.488  16.799  0.2955  1.0101 -0.0039
  701TIP3   OH223593   3.364   5.974  11.776 -0.3322  0.1435  0.2221
  701TIP3    H123594   3.357   5.878  11.779  1.0220  0.0397  0.9750
  701TIP3    H223595   3.302   6.005  11.842 -1.0383 -0.1911 -0.2736
  702TIP3   OH223596   0.514   5.923  13.187  0.2318  0.1205 -0.0232
  702TIP3    H123597   0.551   6.009  13.165  0.8305 -0.5026 -1.5102
  702TIP3    H223598   0.500   5.928  13.282  1.8163  1.2671  0.2001
  703TIP3   OH223599   3.147   6.769  10.789 -0.3835 -0.2094  0.5494
  703TIP3    H123600   3.225   6.790  10.840 -1.2205  1.5074  1.2111
  703TIP3    H223601   3.118   6.684  10.823 -0.3319  0.4132  2.2266
  704TIP3   OH223602   5.263   5.929  15.854  0.4950  0.3443  0.1523
  704TIP3    H123603   5.237   5.943  15.945  1.0725  0.6242  0.2800
  704TIP3    H223604   5.357   5.911  15.858  1.3104  3.7047 -0.6340
  705TIP3   OH223605   4.044   3.386  16.200  0.7742 -0.3550  0.8349
  705TIP3    H123606   4.089   3.306  16.226  1.0964 -0.0051  1.3666
  705TIP3    H223607   4.057   3.391  16.106  0.2805 -1.2191  0.7101
  706TIP3   OH223608   1.550   1.528   1.479 -0.0743  0.7266 -0.2457
  706TIP3    H123609   1.584   1.536   1.390  3.7224 -2.8433  0.5372
  706TIP3    H223610   1.580   1.607   1.523  0.1575  1.3898 -1.5477
  707TIP3   OH223611   2.704   1.828  16.168 -0.1444 -0.0916  0.1148
  707TIP3    H123612   2.624   1.856  16.123  0.2741 -0.4602 -0.8881
  707TIP3    H223613   2.713   1.888  16.242 -0.7370  0.6627 -0.4197
  708TIP3   OH223614   2.064   5.367  13.662  0.6531  0.4250  0.3174
  708TIP3    H123615   2.009   5.382  13.739  0.4847  0.5977  0.1641
  708TIP3    H223616   2.123   5.442  13.659  1.1568  0.0468  0.7025
  709TIP3   OH223617   6.432   0.988   2.237  0.4609  0.4202  1.0535
  709TIP3    H123618   6.355   1.023   2.191 -0.3697  0.1494  2.1998
  709TIP3    H223619   6.407   0.986   2.329  1.3197 -1.0234  1.2999
  710TIP3   OH223620   3.099   2.623  13.388  0.2507 -0.4765 -0.5614
  710TIP3    H123621   3.073   2.714  13.378  2.7433  0.3187 -0.4320
  710TIP3    H223622   3.104   2.589  13.299  1.3941  0.1892 -0.7747
  711TIP3   OH223623   3.897   4.175  15.334 -0.2961  0.4378 -0.0753
  711TIP3    H123624   3.850   4.095  15.311  0.0601  0.3910 -0.6439
  711TIP3    H223625   3.906   4.222  15.252 -0.2639  0.9397  0.2133
  712TIP3   OH223626   2.445   4.118   5.268 -0.0008 -0.3989  0.0110
  712TIP3    H123627   2.519   4.059   5.251  2.0383  1.5198  1.6550
  712TIP3    H223628   2.480   4.205   5.250 -2.9231  0.4309 -2.3520
  713TIP3   OH223629   1.867   5.666   4.987  0.6037  0.0283 -0.4305
  713TIP3    H123630   1.883   5.753   4.950  1.4236  1.1458  2.2674
  713TIP3    H223631   1.806   5.681   5.059  2.2752 -1.2457  1.3654
  714TIP3   OH223632   5.240   5.059  17.019  0.1097 -0.2660  0.5248
  714TIP3    H123633   5.162   5.028  17.063 -0.2988 -0.6332 -0.4278
  714TIP3    H223634   5.242   5.153  17.036 -1.0107 -0.1084 -0.1244
  715TIP3   OH223635   3.481   1.261   1.363 -0.4274  0.3479  0.0595
  715TIP3    H123636   3.558   1.295   1.318 -0.0721 -1.9152 -1.1726
  715TIP3    H223637   3.517   1.215   1.439 -0.1282 -3.0998 -1.9531
  716TIP3   OH223638   0.477   2.304   2.388  0.0859  0.3593  0.2335
  716TIP3    H123639   0.405   2.339   2.336  0.7992 -0.5293 -1.4683
  716TIP3    H223640   0.439   2.228   2.433 -0.4179  0.8133  0.5783
  717TIP3   OH223641   5.055   2.136   3.233 -0.4349  1.3483  0.3370
  717TIP3    H123642   5.119   2.159   3.166 -0.5823  1.7940  0.3488
  717TIP3    H223643   5.050   2.040   3.229  0.4454  1.2820  0.5343
  718TIP3   OH223644   2.561   1.582   2.666 -0.3445  0.0235 -0.1731
  718TIP3    H123645   2.651   1.560   2.643  0.6411  3.3879 -0.1527
  718TIP3    H223646   2.547   1.541   2.751  1.3658 -0.1922  0.0420
  719TIP3   OH223647   5.468   3.585  16.611 -0.6935  0.0541  0.4487
  719TIP3    H123648   5.544   3.638  16.633 -0.8556  0.0346  1.0704
  719TIP3    H223649   5.408   3.646  16.567  0.2615 -0.2539 -1.3760
  720TIP3   OH223650   6.587   1.490   4.415 -0.1313  0.2885 -0.2128
  720TIP3    H123651   6.661   1.543   4.385 -0.3501  1.0103  0.4930
  720TIP3    H223652   6.622   1.401   4.421  0.6740  0.6124  0.0670
  721TIP3   OH223653   4.364   3.217  15.129  0.3628 -0.6404  0.3801
  721TIP3    H123654   4.359   3.129  15.093  2.0566 -0.4128 -0.5386
  721TIP3    H223655   4.450   3.220  15.172 -0.8405 -0.3397  2.9994
  722TIP3   OH223656   0.053   5.839   0.082 -0.5797 -0.0386 -0.0551
  722TIP3    H123657   0.014   5.760   0.043 -0.8562  0.0196  0.1010
  722TIP3    H223658  -0.016   5.875   0.137 -0.9703  1.1209 -1.2551
  723TIP3   OH223659   3.890   0.858  14.030  0.5883  0.5774  0.6451
  723TIP3    H123660   3.833   0.885  13.958 -0.0321 -1.1553  0.4448
  723TIP3    H223661   3.972   0.905  14.014  1.7067 -2.1304 -3.1697
  724TIP3   OH223662   5.166   4.795  10.474 -0.6349  0.4936  0.2593
  724TIP3    H123663   5.178   4.712  10.428 -1.3220 -0.5770  1.9307
  724TIP3    H223664   5.074   4.794  10.501 -0.2284  1.0057  1.7555
  725TIP3   OH223665   1.562   0.544  13.276  0.6629 -0.2796 -0.0210
  725TIP3    H123666   1.544   0.508  13.189 -1.1114  0.0431  0.1843
  725TIP3    H223667   1.623   0.481  13.315  0.5910 -1.0354 -1.0611
  726TIP3   OH223668   3.052   1.014  10.925  0.6945 -0.1989 -0.1352
  726TIP3    H123669   3.137   1.026  10.965 -0.1766  0.7742  1.5352
  726TIP3    H223670   3.061   0.935  10.872  2.7476  0.1757 -0.4225
  727TIP3   OH223671   5.339   0.943   5.167  0.7594  0.2205  0.4979
  727TIP3    H123672   5.414   0.967   5.111  0.2061  0.2780 -0.2299
  727TIP3    H223673   5.333   1.015   5.230 -1.5915  2.8193 -2.3495
  728TIP3   OH223674   5.243   5.956   5.213  0.5028  0.0992  0.1404
  728TIP3    H123675   5.304   5.961   5.287 -1.1117 -2.1598  1.7304
  728TIP3    H223676   5.194   6.038   5.217  1.2205  0.5106  0.8271
  729TIP3   OH223677   0.764   6.532  14.597  0.1745  0.3986  0.2164
  729TIP3    H123678   0.789   6.616  14.637 -0.7468  1.2264 -0.8773
  729TIP3    H223679   0.703   6.556  14.527 -0.3277 -1.2158  0.0585
  730TIP3   OH223680   4.256   0.534   0.397  0.3022  0.0392  0.4938
  730TIP3    H123681   4.342   0.510   0.432 -0.2009 -1.9744  0.4411
  730TIP3    H223682   4.240   0.470   0.327 -0.0808  2.0656 -1.3757
  731TIP3   OH223683   3.116   1.363   0.985 -0.0996  0.3338 -1.0733
  731TIP3    H123684   3.204   1.360   1.022 -0.1226  1.9716 -0.8079
  731TIP3    H223685   3.059   1.337   1.058  0.1613 -0.9882 -1.3228
  732TIP3   OH223686   4.658   6.221   0.281 -0.2843 -0.3272  0.2984
  732TIP3    H123687   4.563   6.221   0.267 -0.2707  0.5970  0.1389
  732TIP3    H223688   4.694   6.198   0.195 -0.3478 -0.2071  0.2402
  733TIP3   OH223689   0.632   2.784  15.773 -0.1724 -0.0726 -0.4616
  733TIP3    H123690   0.544   2.746  15.774  0.2378 -1.1125  1.6405
  733TIP3    H223691   0.618   2.878  15.782 -1.1197  0.1831 -3.3746
  734TIP3   OH223692   0.293   6.713   1.169  0.0596  0.5016  0.1980
  734TIP3    H123693   0.339   6.648   1.114  0.6832  1.4346 -0.4113
  734TIP3    H223694   0.363   6.767   1.204 -0.5360  1.6220 -0.3098
  735TIP3   OH223695   2.436   0.712  15.072 -0.6592  0.5519  0.1623
  735TIP3    H123696   2.345   0.684  15.058 -1.0885  1.4629  1.0429
  735TIP3    H223697   2.472   0.719  14.984 -0.9112 -1.4590 -0.1679
  736TIP3   OH223698   6.385   2.807   2.773  0.4069  0.1046 -0.1392
  736TIP3    H123699   6.472   2.827   2.807  0.4900 -1.4209  0.6583
  736TIP3    H223700   6.327   2.816   2.848 -0.2525  1.6774 -0.7941
  737TIP3   OH223701   4.448   0.766   0.228 -0.2385 -0.1360  0.0419
  737TIP3    H123702   4.472   0.675   0.210 -0.3024 -0.4272  1.3466
  737TIP3    H223703   4.530   0.815   0.222 -0.2563 -0.2077 -0.9937
  738TIP3   OH223704   5.030   0.477   5.737  0.1842  0.0796  0.0022
  738TIP3    H123705   4.948   0.429   5.725 -1.3069  2.0380  1.6122
  738TIP3    H223706   5.080   0.459   5.657 -0.7469 -3.0632 -0.0144
  739TIP3   OH223707   0.982   2.086   0.094  0.4858 -0.2360 -0.0879
  739TIP3    H123708   0.960   2.150   0.162 -2.2221 -0.3808 -0.6891
  739TIP3    H223709   0.944   2.004   0.126 -1.1649 -0.2283 -1.8390
  740TIP3   OH223710   2.894   6.475   4.169  0.0050  0.2280  0.6075
  740TIP3    H123711   2.856   6.387   4.171  0.4809 -0.1646 -2.5633
  740TIP3    H223712   2.856   6.519   4.245 -0.8290 -2.4530  1.8734
  741TIP3   OH223713   1.473   5.726  11.701  0.1433  0.7001 -0.0296
  741TIP3    H123714   1.428   5.724  11.617  0.4904  0.7169 -0.2215
  741TIP3    H223715   1.405   5.746  11.765 -0.1062  0.7859 -0.3200
  742TIP3   OH223716   3.486   1.626  16.385  0.1800 -0.1088  0.0168
  742TIP3    H123717   3.410   1.683  16.372  0.0158 -0.1894  0.6246
  742TIP3    H223718   3.506   1.594  16.297 -0.4764 -0.0667 -0.1552
  743TIP3   OH223719   6.019   5.389   0.128 -0.2013  0.5225  0.4088
  743TIP3    H123720   6.087   5.322   0.131 -1.3178 -0.6684  0.3612
  743TIP3    H223721   6.056   5.460   0.075  0.3847 -0.8095 -1.0340
  744TIP3   OH223722   3.940   2.221   3.614  0.4094 -1.2805  0.4151
  744TIP3    H123723   3.871   2.252   3.672  0.8841  1.2307 -0.2480
  744TIP3    H223724   4.017   2.273   3.638  0.6643 -0.2734 -2.2650
  745TIP3   OH223725   0.928   1.234  11.893  0.5310 -0.3318 -0.1827
  745TIP3    H123726   1.023   1.240  11.880  0.7699 -0.9321  1.1026
  745TIP3    H223727   0.908   1.141  11.883  0.1155 -0.2422 -0.2131
  746TIP3   OH223728   2.071   0.044  15.539 -0.4785  0.0964 -0.0897
  746TIP3    H123729   2.097   0.057  15.448  0.4849 -0.4520  0.0965
  746TIP3    H223730   2.116   0.113  15.587 -1.1269  0.4944 -0.0451
  747TIP3   OH223731   2.034   4.385  11.678  0.3849  0.3475 -0.0721
  747TIP3    H123732   1.987   4.385  11.594  0.9708  1.6072 -0.4248
  747TIP3    H223733   1.973   4.425  11.739  0.2852  0.2205 -0.0866
  748TIP3   OH223734   6.348   1.893  16.281 -0.1509 -0.9513 -0.9865
  748TIP3    H123735   6.353   1.832  16.207  0.6033  1.2321 -2.8559
  748TIP3    H223736   6.260   1.881  16.316 -0.5892 -1.9477 -2.3401
  749TIP3   OH223737   1.993   3.664  11.719  0.1620 -0.2614  0.1096
  749TIP3    H123738   2.006   3.570  11.725  0.0594 -0.1625  2.4051
  749TIP3    H223739   1.920   3.683  11.777 -0.2303  1.1707 -0.7985
  750TIP3   OH223740   0.220   1.886  11.715  0.2566 -0.2408  0.0409
  750TIP3    H123741   0.274   1.956  11.751  1.3506 -0.9326 -0.2307
  750TIP3    H223742   0.130   1.921  11.720  0.8717  1.7098 -1.3006
  751TIP3   OH223743   6.461   5.473   4.314  0.6798  0.6807 -0.6241
  751TIP3    H123744   6.407   5.548   4.337  1.8322  1.4117 -0.2097
  751TIP3    H223745   6.514   5.504   4.240  0.5129 -0.0297 -1.0492
  752TIP3   OH223746   6.573   2.058   4.669 -0.4607  0.0470  0.4117
  752TIP3    H123747   6.591   1.964   4.658  1.0840  0.0011  2.7375
  752TIP3    H223748   6.643   2.101   4.620 -0.5783 -0.0154  0.1866
  753TIP3   OH223749   4.512   3.221   1.180  0.7995  0.2315 -0.0579
  753TIP3    H123750   4.447   3.224   1.249  1.8887 -0.8650  1.0615
  753TIP3    H223751   4.478   3.280   1.112 -0.7131  0.6478  1.0184
  754TIP3   OH223752   1.147   5.363  15.378  0.5158 -0.4994  0.1037
  754TIP3    H123753   1.172   5.359  15.285  0.0744 -1.1304  0.0060
  754TIP3    H223754   1.219   5.409  15.420 -0.1467  1.5193 -0.8443
  755TIP3   OH223755   5.032   0.882   1.679 -0.1403 -0.0738  0.2882
  755TIP3    H123756   4.985   0.951   1.726  1.7439  0.9059  0.8576
  755TIP3    H223757   5.029   0.807   1.738  1.0562  0.7429  1.4694
  756TIP3   OH223758   0.333   4.935   3.221 -0.0813  0.0440 -0.8348
  756TIP3    H123759   0.386   5.013   3.203  0.6870  0.2115  1.8532
  756TIP3    H223760   0.389   4.861   3.196 -0.8476  0.2501 -3.4860
  757TIP3   OH223761   5.301   6.373   1.981  0.1014 -0.2148  0.3367
  757TIP3    H123762   5.244   6.428   2.036  1.4082 -1.2272  2.8884
  757TIP3    H223763   5.374   6.431   1.957  0.3949 -0.2178  1.1874
  758TIP3   OH223764   3.848   2.766   2.508  0.2092  0.0881 -0.2396
  758TIP3    H123765   3.928   2.741   2.553  0.2246 -0.6952 -0.6830
  758TIP3    H223766   3.858   2.730   2.420 -0.2700  0.6934 -0.5478
  759TIP3   OH223767   3.116   0.358  15.825  0.7118 -0.0348  0.1799
  759TIP3    H123768   3.119   0.291  15.756  1.2311 -0.3741  0.5264
  759TIP3    H223769   3.201   0.353  15.867 -0.1735 -0.9951  1.9497
  760TIP3   OH223770   1.931   0.422   5.758 -1.2695  0.2015 -0.1502
  760TIP3    H123771   1.839   0.412   5.784 -0.8636 -0.0105  1.3451
  760TIP3    H223772   1.976   0.351   5.805 -0.2769  0.6362 -0.4314
  761TIP3   OH223773   1.820   1.346  15.662  0.0004  0.5973  0.2276
  761TIP3    H123774   1.766   1.267  15.671 -0.4963  1.0655  1.6721
  761TIP3    H223775   1.869   1.333  15.581 -0.5851 -0.8797  0.0859
  762TIP3   OH223776   2.370   2.437  11.318 -0.0537 -0.0602 -0.3942
  762TIP3    H123777   2.283   2.455  11.281  0.3449 -1.2316 -2.0403
  762TIP3    H223778   2.431   2.463  11.249  0.8671  0.0813  0.4586
  763TIP3   OH223779   5.642   0.095   4.063  0.7851 -0.5034  0.1829
  763TIP3    H123780   5.686   0.049   3.993  0.3947 -0.4757 -0.0840
  763TIP3    H223781   5.661   0.188   4.047  0.7621 -0.5030  0.1566
  764TIP3   OH223782   1.173   5.347  10.851 -0.4189  0.8835  0.0778
  764TIP3    H123783   1.228   5.282  10.807 -2.8046 -0.3561 -1.3161
  764TIP3    H223784   1.150   5.306  10.935  2.2993  2.2893  1.6438
  765TIP3   OH223785   4.853   1.592   1.513  0.6197 -0.4022  0.4180
  765TIP3    H123786   4.911   1.547   1.452 -0.4761 -0.7082 -0.4353
  765TIP3    H223787   4.846   1.681   1.478 -1.4614 -1.0671 -1.0222
  766TIP3   OH223788   1.153   0.331  15.533 -0.5060 -0.3409  0.3054
  766TIP3    H123789   1.237   0.372  15.551 -1.5193  1.0149  2.3859
  766TIP3    H223790   1.172   0.265  15.466  2.1706 -0.0656  0.6840
  767TIP3   OH223791   0.672   5.161  14.408  0.0596 -0.1550  0.0253
  767TIP3    H123792   0.681   5.250  14.441 -1.4189  0.1938 -0.4480
  767TIP3    H223793   0.661   5.107  14.486  2.3233 -0.1592  0.4161
  768TIP3   OH223794   0.957   3.491  15.477  0.5167  0.0459  0.0401
  768TIP3    H123795   0.909   3.548  15.416  0.2119 -0.6081 -0.3476
  768TIP3    H223796   0.893   3.425  15.503  1.0290 -0.4782  0.0014
  769TIP3   OH223797   3.012   6.563  14.595 -0.4449 -0.0182  0.9906
  769TIP3    H123798   3.006   6.654  14.626 -0.5592 -0.4800  2.4293
  769TIP3    H223799   2.998   6.510  14.674  0.3070 -1.2888  0.3061
  770TIP3   OH223800   1.806   2.096  16.105 -0.0790  0.1623 -0.2219
  770TIP3    H123801   1.812   2.015  16.155 -1.9074 -0.0074 -0.1855
  770TIP3    H223802   1.798   2.165  16.170  0.8883  0.3176 -0.2599
  771TIP3   OH223803   5.598   3.042   0.385  0.1617 -0.2428 -0.1780
  771TIP3    H123804   5.685   3.076   0.362  0.2426 -1.4458 -1.8540
  771TIP3    H223805   5.577   2.980   0.314 -2.2868  0.3751 -0.0855
  772TIP3   OH223806   0.392   2.582  13.346 -0.0534  0.1616 -0.5942
  772TIP3    H123807   0.430   2.495  13.337 -2.3362 -0.8535 -1.2164
  772TIP3    H223808   0.308   2.567  13.390  0.1788  2.2594  0.6970
  773TIP3   OH223809   2.756   1.455   1.373 -0.0550  0.3007  0.3489
  773TIP3    H123810   2.816   1.381   1.386  0.5809  0.5516 -0.9540
  773TIP3    H223811   2.690   1.445   1.442  0.4829 -1.0039  0.7089
  774TIP3   OH223812   6.239   6.718  16.469  0.8550 -1.0029 -0.6218
  774TIP3    H123813   6.283   6.717  16.554 -1.3452  1.1452  0.6701
  774TIP3    H223814   6.287   6.784  16.418  0.0861  0.2700  0.2530
  775TIP3   OH223815   3.995   4.743  13.885 -0.2375  0.4751  0.0161
  775TIP3    H123816   4.040   4.791  13.955 -1.1030  0.3900  0.6431
  775TIP3    H223817   4.009   4.651  13.907  0.3329  0.4366 -0.4807
  776TIP3   OH223818   2.409   1.223  11.128 -0.4885 -0.4803 -0.6282
  776TIP3    H123819   2.352   1.300  11.123 -0.8747 -0.6322  0.9435
  776TIP3    H223820   2.483   1.244  11.071 -0.1758  1.4162  0.4054
  777TIP3   OH223821   3.966   2.232  12.947 -0.6855 -0.2604  0.0744
  777TIP3    H123822   3.989   2.300  12.884  1.0758 -2.6163 -2.0252
  777TIP3    H223823   4.045   2.220  13.000 -0.9060 -0.7860  0.2989
  778TIP3   OH223824   4.718   6.240  14.014 -0.1663 -0.5315 -0.0483
  778TIP3    H123825   4.787   6.294  14.052 -0.2413 -0.6288  0.2307
  778TIP3    H223826   4.704   6.170  14.078  0.0035 -0.9412 -0.4550
  779TIP3   OH223827   6.529   2.271  14.948  0.3097 -0.3107 -0.2752
  779TIP3    H123828   6.434   2.272  14.959  0.2803  2.7730  0.0947
  779TIP3    H223829   6.558   2.191  14.991 -2.1007 -1.4279 -0.5704
  780TIP3   OH223830   4.362   3.092  16.638 -0.3895  0.1183 -0.2115
  780TIP3    H123831   4.407   3.049  16.565 -2.4697 -0.0256 -1.4863
  780TIP3    H223832   4.270   3.092  16.613 -0.9108  2.0449  1.4484
  781TIP3   OH223833   6.345   2.607   3.080 -0.0297  0.7948  0.3312
  781TIP3    H123834   6.433   2.616   3.118 -0.1640 -0.3594  0.9400
  781TIP3    H223835   6.353   2.536   3.017 -0.3039  1.3480 -0.3397
  782TIP3   OH223836   3.362   1.018  13.576  0.0735 -0.6735 -0.2216
  782TIP3    H123837   3.399   0.992  13.491 -0.8300 -0.7315 -0.6090
  782TIP3    H223838   3.437   1.054  13.624  0.5043 -0.1480 -1.2394
  783TIP3   OH223839   1.790   3.193   0.999  0.0210 -0.4412 -0.1032
  783TIP3    H123840   1.811   3.107   1.034  0.3973 -0.0528  0.6456
  783TIP3    H223841   1.794   3.252   1.074  1.3105  0.4860 -0.8379
  784TIP3   OH223842   6.546   2.914   3.801  0.1973  0.1158  0.8478
  784TIP3    H123843   6.607   2.987   3.800 -0.3979  0.6685 -1.4954
  784TIP3    H223844   6.459   2.954   3.795 -0.0972 -0.7098 -1.5446
  785TIP3   OH223845   0.887   6.052   3.581 -0.1455 -0.9569  0.7404
  785TIP3    H123846   0.835   5.974   3.561 -0.8658 -0.8818  2.1884
  785TIP3    H223847   0.824   6.114   3.618  0.9126 -0.7546  2.2763
  786TIP3   OH223848   5.106   0.571   3.238 -0.5454 -0.0244 -0.5145
  786TIP3    H123849   5.084   0.655   3.199 -1.7560  0.3271  0.8260
  786TIP3    H223850   5.045   0.562   3.312 -0.7376 -2.2616 -0.8646
  787TIP3   OH223851   0.874   6.670   6.249  0.6270  0.4964 -0.8258
  787TIP3    H123852   0.883   6.594   6.307 -0.4524 -0.0445 -1.3241
  787TIP3    H223853   0.953   6.669   6.195  0.9806  0.1840 -0.3118
  788TIP3   OH223854   3.348   1.267  16.482  0.4974  0.1202  0.1742
  788TIP3    H123855   3.274   1.306  16.529  0.0111  0.4370 -0.8254
  788TIP3    H223856   3.335   1.172  16.492  0.9761  0.1722  1.5238
  789TIP3   OH223857   4.550   0.986   1.811 -0.0527  0.0819  0.3322
  789TIP3    H123858   4.571   0.957   1.722 -0.2146  1.5023 -0.1868
  789TIP3    H223859   4.541   0.904   1.860 -0.0555 -0.7390 -0.9653
  790TIP3   OH223860   0.992   6.815   2.344 -0.8478  0.3578  0.3832
  790TIP3    H123861   1.068   6.837   2.398  0.2113  0.8081 -1.2212
  790TIP3    H223862   0.952   6.900   2.323 -0.2618  0.3439 -0.8864
  791TIP3   OH223863   0.549   2.807  16.328 -0.7653  0.6150 -0.5786
  791TIP3    H123864   0.551   2.778  16.419 -0.8386  2.1934 -0.0489
  791TIP3    H223865   0.535   2.901  16.333 -1.0783  0.6830 -2.2396
  792TIP3   OH223866   2.920   2.113   1.952  0.3760  0.0568 -0.1062
  792TIP3    H123867   2.914   2.175   2.025 -1.4763  0.1328 -0.2755
  792TIP3    H223868   3.004   2.132   1.911  0.6307  1.2602  0.9086
  793TIP3   OH223869   0.228   5.162   3.848 -0.0368 -0.3162 -0.4599
  793TIP3    H123870   0.289   5.104   3.893  0.9802  0.9173 -0.1734
  793TIP3    H223871   0.236   5.246   3.895  0.9542  0.9962 -2.7875
  794TIP3   OH223872   3.602   6.157   4.094 -0.2963 -0.0836 -0.7660
  794TIP3    H123873   3.533   6.181   4.032 -1.9314 -0.3992  0.8449
  794TIP3    H223874   3.565   6.083   4.143  0.1430  1.2833  1.7824
  795TIP3   OH223875   2.489   0.647   2.258  0.1059 -0.8560  0.1021
  795TIP3    H123876   2.539   0.720   2.223 -1.3747  0.7840  1.2312
  795TIP3    H223877   2.511   0.644   2.351 -0.7403 -1.0660  0.3091
  796TIP3   OH223878   1.551   3.047   4.189 -0.0856 -0.4067  0.0512
  796TIP3    H123879   1.624   3.067   4.131 -0.5401  0.1122 -0.3544
  796TIP3    H223880   1.509   2.970   4.149 -0.3541 -0.0946 -0.2726
  797TIP3   OH223881   3.171   3.851   2.913  0.3442 -0.3070 -0.4551
  797TIP3    H123882   3.249   3.801   2.935  2.8825  2.5383 -2.1868
  797TIP3    H223883   3.156   3.907   2.989 -0.1144 -0.8996 -0.0958
  798TIP3   OH223884   1.828   2.739   2.556 -0.1569  0.2199  0.4510
  798TIP3    H123885   1.885   2.753   2.632  0.0324 -0.9263  0.5395
  798TIP3    H223886   1.760   2.806   2.565 -1.9595 -1.7521  3.3935
  799TIP3   OH223887   1.419   0.723   4.529 -0.2456 -0.2367 -0.2614
  799TIP3    H123888   1.396   0.641   4.485 -3.3243  1.9609 -3.3115
  799TIP3    H223889   1.462   0.776   4.461 -1.4117  1.8258  0.5084
  800TIP3   OH223890   1.702   6.080  11.128 -0.2483 -0.2155 -0.0836
  800TIP3    H123891   1.795   6.091  11.147 -0.3429  2.4285 -0.7730
  800TIP3    H223892   1.672   6.167  11.103 -3.0585 -0.8563  0.6662
  801TIP3   OH223893   3.598   0.555   5.088  0.2609 -0.0452  0.2224
  801TIP3    H123894   3.585   0.524   4.998 -1.8730 -2.1469  1.1200
  801TIP3    H223895   3.562   0.643   5.089  1.0536  0.3246 -1.1285
  802TIP3   OH223896   5.241   3.814   3.511  0.2876  0.2421 -0.3047
  802TIP3    H123897   5.272   3.903   3.527 -1.3125  0.7217  0.3776
  802TIP3    H223898   5.165   3.825   3.453 -0.2052 -0.6148  0.1479
  803TIP3   OH223899   6.074   2.866  12.654  0.7249  0.1317 -0.1831
  803TIP3    H123900   6.090   2.960  12.665  0.9296  0.1043 -0.2502
  803TIP3    H223901   6.075   2.852  12.559 -2.0159  0.5403 -0.3618
  804TIP3   OH223902   4.003   0.499  14.761 -0.1653  0.3838 -0.0941
  804TIP3    H123903   3.994   0.516  14.855 -0.3784 -0.2565  0.0097
  804TIP3    H223904   4.087   0.452  14.753 -0.0293  0.6524 -0.2549
  805TIP3   OH223905   5.694   0.473   1.867  0.0068 -0.5302  0.5054
  805TIP3    H123906   5.721   0.563   1.885  2.6324 -1.3500  1.0138
  805TIP3    H223907   5.764   0.436   1.813 -0.7899 -2.4082  0.6501
  806TIP3   OH223908   4.626   6.048  15.068  0.1111 -0.3008  0.3665
  806TIP3    H123909   4.582   6.130  15.046  2.2919  0.8729  0.1016
  806TIP3    H223910   4.605   5.989  14.995  0.0794  0.6711 -0.4310
  807TIP3   OH223911   3.575   6.753   3.488  0.2546  0.6174 -0.3187
  807TIP3    H123912   3.544   6.770   3.577  0.7913  0.4906 -0.1010
  807TIP3    H223913   3.620   6.833   3.462 -0.3974  0.8632 -0.6964
  808TIP3   OH223914   4.242   1.465   3.051  0.4508  0.4360 -0.6032
  808TIP3    H123915   4.202   1.546   3.017  0.1734 -0.5439 -2.8231
  808TIP3    H223916   4.173   1.426   3.105  0.4282  1.4315  0.1294
  809TIP3   OH223917   3.510   0.835   5.042 -0.8222  0.4184  0.3897
  809TIP3    H123918   3.422   0.848   5.007 -1.2859  0.2663  1.4482
  809TIP3    H223919   3.544   0.923   5.054 -0.4708  0.4712 -0.8467
  810TIP3   OH223920   3.740   4.997   0.324 -0.2428 -0.1761  0.4492
  810TIP3    H123921   3.747   5.091   0.308 -0.9213 -0.0874  0.6272
  810TIP3    H223922   3.795   4.981   0.400  0.0403  0.0396  0.2935
  811TIP3   OH223923   6.357   5.822  11.482  0.1925  0.0623 -0.1766
  811TIP3    H123924   6.366   5.769  11.561  1.0155  0.1378 -0.2156
  811TIP3    H223925   6.440   5.812  11.436  0.2598  1.1389 -0.3305
  812TIP3   OH223926   0.806   6.533  11.008  0.3065 -0.3251  0.0133
  812TIP3    H123927   0.793   6.496  11.096  0.2417  1.4631  0.7992
  812TIP3    H223928   0.731   6.500  10.958 -0.9465  0.4536  1.2844
  813TIP3   OH223929   1.780   5.231   3.550 -0.0175 -0.0992 -0.5106
  813TIP3    H123930   1.806   5.261   3.464  1.4211 -1.4328 -0.5792
  813TIP3    H223931   1.782   5.135   3.544  0.4810 -0.2249  1.0940
  814TIP3   OH223932   6.360   0.164  17.057  0.0395  0.0029  0.3252
  814TIP3    H123933   6.412   0.241  17.080 -1.0629  0.6306  0.7910
  814TIP3    H223934   6.321   0.136  17.139  0.3767 -1.0475  0.1549
  815TIP3   OH223935   2.123   4.061   1.687 -0.6327  0.2818  0.4741
  815TIP3    H123936   2.219   4.058   1.681 -0.6699 -1.2510  0.2035
  815TIP3    H223937   2.104   4.150   1.717  0.8336  0.8401 -0.1145
  816TIP3   OH223938   6.817   6.129   5.979  0.5704  0.8466 -0.5452
  816TIP3    H123939   6.828   6.079   5.898 -1.4969  0.8321 -0.8615
  816TIP3    H223940   6.859   6.076   6.047  2.9932  1.2003 -1.6660
  817TIP3   OH223941   5.693   3.084  14.828  0.4732  0.4824  0.3112
  817TIP3    H123942   5.636   3.124  14.893  0.6383  2.1270 -0.5005
  817TIP3    H223943   5.753   3.029  14.878 -0.8915 -0.1385  1.2984
  818TIP3   OH223944   2.782   4.321  11.268 -0.0577  0.4841 -0.0213
  818TIP3    H123945   2.852   4.275  11.314  0.9755  0.3033 -1.6917
  818TIP3    H223946   2.735   4.368  11.336  0.7892 -0.5569  1.3273
  819TIP3   OH223947   6.697   5.782   2.379 -0.0830 -0.0047  0.2199
  819TIP3    H123948   6.760   5.841   2.339  0.5828 -1.6143 -1.2574
  819TIP3    H223949   6.670   5.724   2.307 -2.1199 -0.3223  1.1599
  820TIP3   OH223950   0.796   5.176   3.624 -0.0167 -0.3112  0.0182
  820TIP3    H123951   0.761   5.116   3.558 -1.2439 -0.5155  0.8085
  820TIP3    H223952   0.792   5.262   3.583 -1.1785 -0.3783 -0.0476
  821TIP3   OH223953   3.106   1.749   1.656 -0.4218 -0.2995  0.6177
  821TIP3    H123954   3.026   1.749   1.708 -0.4245  0.8222  0.6304
  821TIP3    H223955   3.147   1.665   1.676 -1.6215 -0.9267  0.5508
  822TIP3   OH223956   1.724   2.495   0.542 -0.3892  0.0558 -0.3879
  822TIP3    H123957   1.743   2.587   0.523 -1.1780  0.0792 -1.1279
  822TIP3    H223958   1.728   2.490   0.638  0.8474  0.5787 -0.3985
  823TIP3   OH223959   2.980   5.923  13.130  0.3641  0.0598  0.2381
  823TIP3    H123960   3.046   5.977  13.174  0.6557 -1.3009  1.5642
  823TIP3    H223961   2.935   5.983  13.071  1.3969  1.4863  0.8463
  824TIP3   OH223962   4.130   4.157  14.426  0.3873 -0.1667  0.5552
  824TIP3    H123963   4.114   4.081  14.481  0.3155  0.7457  1.8360
  824TIP3    H223964   4.117   4.232  14.484  0.6528  0.8229 -0.6196
  825TIP3   OH223965   4.283   2.266  12.357  0.6130  0.1215 -0.3735
  825TIP3    H123966   4.308   2.203  12.424  0.6975  1.5265  0.9889
  825TIP3    H223967   4.342   2.248  12.284  1.3110 -0.7217  0.3791
  826TIP3   OH223968   5.310   3.172   5.329  0.0301 -0.0777  0.1008
  826TIP3    H123969   5.234   3.117   5.345  0.4593 -0.9937 -0.9010
  826TIP3    H223970   5.351   3.134   5.251  1.0878  0.8516  0.1852
  827TIP3   OH223971   0.332   4.831   1.895 -0.1135  0.0859 -0.0989
  827TIP3    H123972   0.363   4.759   1.951 -1.6574 -0.6684 -0.1394
  827TIP3    H223973   0.411   4.866   1.854  0.9721  0.1255  1.9144
  828TIP3   OH223974   3.163   3.879  14.926  0.3158  0.0765  0.5037
  828TIP3    H123975   3.210   3.961  14.908  0.4179 -0.1582 -0.3664
  828TIP3    H223976   3.231   3.813  14.932  0.1476 -0.1886 -0.3109
  829TIP3   OH223977   5.272   0.898  15.374 -0.2171  0.3698  0.4812
  829TIP3    H123978   5.207   0.846  15.326 -1.5354  1.0795  1.4354
  829TIP3    H223979   5.347   0.902  15.315 -0.0867 -2.4786  0.3094
  830TIP3   OH223980   5.573   3.183  15.057 -0.6093 -0.3704  0.5269
  830TIP3    H123981   5.562   3.277  15.074  1.0342  0.3941 -2.0451
  830TIP3    H223982   5.638   3.154  15.121 -0.7025  0.3940  0.9745
  831TIP3   OH223983   5.191   0.544  17.072 -0.5143 -0.2052 -0.5205
  831TIP3    H123984   5.237   0.623  17.099  0.1655 -0.0619 -1.9793
  831TIP3    H223985   5.099   0.565  17.082 -0.3132  0.2286  0.5348
  832TIP3   OH223986   0.826   0.070   3.338 -0.0210 -0.2555 -0.5837
  832TIP3    H123987   0.805   0.065   3.245  1.0349 -0.0971 -0.8489
  832TIP3    H223988   0.875   0.153   3.347 -1.5030  0.5602  0.4080
  833TIP3   OH223989   5.113   0.620   3.617  0.3929 -0.2910 -0.6669
  833TIP3    H123990   5.207   0.638   3.612  0.2381  0.5417 -0.6484
  833TIP3    H223991   5.108   0.530   3.649  1.1800 -0.1323 -0.0536
  834TIP3   OH223992   5.684   2.377  13.965  0.1704 -0.6481 -0.0010
  834TIP3    H123993   5.700   2.353  13.874  0.0812 -1.2280  0.1300
  834TIP3    H223994   5.679   2.472  13.965 -0.4032 -0.6727 -0.6929
  835TIP3   OH223995   3.928   3.919   1.540 -0.1495 -0.0554 -0.3656
  835TIP3    H123996   3.991   3.860   1.582  0.2748  0.1221 -0.7442
  835TIP3    H223997   3.945   3.908   1.446  0.2873  1.0413 -0.4331
  836TIP3   OH223998   2.601   1.624   6.184 -0.2406  0.0738  0.1777
  836TIP3    H123999   2.588   1.645   6.092  1.9104  0.5086 -0.0878
  836TIP3    H224000   2.648   1.700   6.219 -0.9258 -0.1341  1.6078
  837TIP3   OH224001   5.427   3.501  12.709 -0.2339 -0.1822 -0.1721
  837TIP3    H124002   5.369   3.485  12.784 -0.3273 -1.3525 -0.4617
  837TIP3    H224003   5.409   3.428  12.650 -0.0073  0.6069 -1.2467
  838TIP3   OH224004   5.812   0.892   5.788 -0.4237  0.0497 -0.1664
  838TIP3    H124005   5.884   0.950   5.763 -1.3401  1.7910  1.0456
  838TIP3    H224006   5.781   0.856   5.705 -0.0869  1.6471 -1.0401
  839TIP3   OH224007   4.297   2.689  16.699  0.0152 -0.0743  0.4228
  839TIP3    H124008   4.389   2.675  16.677 -0.2581  0.1283 -0.9446
  839TIP3    H224009   4.274   2.617  16.757  1.1153  0.0613  1.0621
  840TIP3   OH224010   4.679   5.203   3.205  0.4497  0.5236 -0.3859
  840TIP3    H124011   4.772   5.211   3.184  0.5505 -0.6366 -0.4862
  840TIP3    H224012   4.674   5.121   3.254 -0.4523  0.8448  0.0651
  841TIP3   OH224013   0.335   3.303  16.614  0.2927 -0.2645  0.4346
  841TIP3    H124014   0.337   3.209  16.601  0.9223 -0.3554  1.1123
  841TIP3    H224015   0.419   3.324  16.654  1.0445  0.8909 -1.6005
  842TIP3   OH224016   3.668   6.788   2.191 -0.0491 -0.6693 -0.1828
  842TIP3    H124017   3.671   6.763   2.099  0.0054  1.6273 -0.8672
  842TIP3    H224018   3.745   6.745   2.230 -0.5642 -2.3853 -0.9561
  843TIP3   OH224019   0.426   2.967   1.354 -0.6044  0.3504  0.7004
  843TIP3    H124020   0.428   2.883   1.399  0.7481  0.2865  0.5647
  843TIP3    H224021   0.410   3.031   1.424 -0.8702  0.0527  0.9147
  844TIP3   OH224022   1.333   2.402  13.525 -0.2243  0.7457  0.0486
  844TIP3    H124023   1.330   2.313  13.491  1.2919  1.0636 -1.0540
  844TIP3    H224024   1.247   2.438  13.505 -1.0077 -0.5929  0.9190
  845TIP3   OH224025   3.279   6.341   5.514  0.3588 -0.0679 -0.4565
  845TIP3    H124026   3.361   6.333   5.564  0.3034  0.8895 -0.2036
  845TIP3    H224027   3.266   6.254   5.476 -0.2144 -1.2375  2.1529
  846TIP3   OH224028   1.726   5.324  16.319 -0.0822  0.0599  0.0642
  846TIP3    H124029   1.634   5.340  16.342  0.1865  1.7695  0.0229
  846TIP3    H224030   1.740   5.375  16.240  1.0128  0.1286  0.2910
  847TIP3   OH224031   1.162   6.259   1.382 -0.5109 -0.1681 -0.0413
  847TIP3    H124032   1.248   6.225   1.356 -0.1610  0.3775  0.3629
  847TIP3    H224033   1.178   6.352   1.399 -0.9893 -0.2459  0.8801
  848TIP3   OH224034   0.225   0.293  10.697  0.9258  0.0942 -0.6723
  848TIP3    H124035   0.169   0.355  10.650 -0.4230  0.6590  1.5412
  848TIP3    H224036   0.227   0.216  10.641  1.0496  1.4092 -2.5785
  849TIP3   OH224037   0.902   0.952  12.901 -0.1918  0.1785 -0.4507
  849TIP3    H124038   0.811   0.981  12.902 -0.7468 -1.3742  1.9741
  849TIP3    H224039   0.940   0.988  12.981  1.3792  0.7881 -1.4080
  850TIP3   OH224040   6.346   2.633   3.620  0.3791  0.1257  0.4841
  850TIP3    H124041   6.259   2.604   3.593  0.4449  0.9352 -0.6771
  850TIP3    H224042   6.335   2.726   3.641  0.5029 -0.2795  2.6148
  851TIP3   OH224043   5.672   1.195   1.973 -0.2708 -0.0769 -0.0248
  851TIP3    H124044   5.664   1.169   1.881 -1.8055  0.2365 -0.0128
  851TIP3    H224045   5.734   1.267   1.973  0.7299 -0.9113 -0.6331
  852TIP3   OH224046   4.644   3.140   5.952 -0.3760 -0.2284 -0.3441
  852TIP3    H124047   4.581   3.072   5.930 -0.2581 -0.2186 -0.7299
  852TIP3    H224048   4.721   3.120   5.898 -1.3502  1.8547 -2.7428
  853TIP3   OH224049   3.782   3.904  15.372 -0.2567 -0.2718 -0.0479
  853TIP3    H124050   3.788   3.921  15.466  2.7619 -0.5981 -0.0579
  853TIP3    H224051   3.787   3.808  15.364  1.7275 -0.1809 -0.5313
  854TIP3   OH224052   1.299   4.227   4.343 -0.3042  0.0060 -0.4895
  854TIP3    H124053   1.226   4.187   4.390 -0.8067  0.2932 -1.0065
  854TIP3    H224054   1.327   4.160   4.280  0.3091 -0.3453  0.1472
  855TIP3   OH224055   2.508   3.964  14.497  0.3688  0.2909 -0.7007
  855TIP3    H124056   2.490   3.990  14.407 -0.5909  0.8906 -0.3531
  855TIP3    H224057   2.429   3.919  14.526  1.4301 -1.7589 -0.7946
  856TIP3   OH224058   2.099   1.694  13.775  0.2039  0.1999 -0.2951
  856TIP3    H124059   2.130   1.637  13.845  0.9112 -0.4480 -1.1100
  856TIP3    H224060   2.044   1.637  13.720 -0.4504  0.7302 -0.2047
  857TIP3   OH224061   5.800   3.025   5.206  0.2647 -0.5901  0.6227
  857TIP3    H124062   5.739   2.999   5.137 -0.1154 -1.1485  1.1522
  857TIP3    H224063   5.743   3.042   5.282  0.7303 -0.6591  0.9918
  858TIP3   OH224064   1.046   4.296   3.421  0.4602  0.9180 -0.1010
  858TIP3    H124065   1.011   4.207   3.419 -0.7667  1.2422  2.6286
  858TIP3    H224066   0.971   4.353   3.402  0.8808  1.4373 -0.2505
  859TIP3   OH224067   2.186   3.385   0.687  0.3431 -0.0276 -0.1667
  859TIP3    H124068   2.118   3.452   0.699 -0.1201 -0.5681  0.3178
  859TIP3    H224069   2.193   3.343   0.773 -1.1948 -2.2903 -1.0522
  860TIP3   OH224070   6.268   4.815  12.166  0.3243  0.3954 -0.0258
  860TIP3    H124071   6.325   4.788  12.094  0.7478  0.1079  0.4154
  860TIP3    H224072   6.208   4.879  12.126  0.9559  0.7103 -0.4884
  861TIP3   OH224073   6.455   5.823  12.683 -0.2494 -0.5852 -0.0075
  861TIP3    H124074   6.402   5.771  12.742  1.0020  0.9107  2.6086
  861TIP3    H224075   6.396   5.889  12.648 -0.9704 -1.4132 -0.3928
  862TIP3   OH224076   3.762   6.298   0.013 -0.3960 -0.0593  0.0611
  862TIP3    H124077   3.710   6.242   0.071 -0.4730  1.6983  1.8007
  862TIP3    H224078   3.849   6.300   0.054  0.6630 -1.6127 -1.8965
  863TIP3   OH224079   2.413   2.129  16.606 -0.3082  0.1305 -0.0632
  863TIP3    H124080   2.429   2.104  16.697 -0.9083 -0.5452 -0.1313
  863TIP3    H224081   2.414   2.224  16.607 -1.8239  0.1789  0.9702
  864TIP3   OH224082   5.489   3.505   0.964 -0.2307 -0.1630  0.5307
  864TIP3    H124083   5.466   3.581   1.017 -0.2980 -0.6096  1.1463
  864TIP3    H224084   5.425   3.438   0.988 -0.0687 -0.4727  0.1167
  865TIP3   OH224085   6.409   6.813   5.951 -0.1106  0.1866 -0.1239
  865TIP3    H124086   6.473   6.843   6.015  0.9295 -0.2056 -0.9562
  865TIP3    H224087   6.363   6.741   5.995  0.1388  0.3546  0.4186
  866TIP3   OH224088   6.351   3.764   4.772  0.5099  0.4685  0.3848
  866TIP3    H124089   6.310   3.844   4.742 -0.9606 -1.0111 -1.8810
  866TIP3    H224090   6.445   3.778   4.758  0.1808  1.3965 -1.1444
  867TIP3   OH224091   6.758   1.264   3.448  0.3457 -0.6654  0.2438
  867TIP3    H124092   6.772   1.342   3.501  0.8706 -1.4133  1.2468
  867TIP3    H224093   6.710   1.204   3.505 -1.9126 -0.3459 -1.2012
  868TIP3   OH224094   0.738   1.009   3.264 -0.2124 -0.7251  0.1716
  868TIP3    H124095   0.707   1.097   3.282 -2.8038 -1.3422 -0.9049
  868TIP3    H224096   0.823   1.022   3.220  0.2207  1.1190  1.4369
  869TIP3   OH224097   3.819   5.532  12.725  0.1250 -0.2507 -0.0315
  869TIP3    H124098   3.743   5.510  12.779  0.8993  0.4661  1.4118
  869TIP3    H224099   3.850   5.616  12.759  1.0046 -0.0553 -1.2243
  870TIP3   OH224100   6.500   6.495  13.806  0.1838  0.4808  0.7545
  870TIP3    H124101   6.462   6.456  13.727 -0.8125  2.6191  0.1012
  870TIP3    H224102   6.582   6.535  13.775 -0.7469  2.2855  0.4927
  871TIP3   OH224103   3.423   0.612   4.038  0.5289 -0.2719 -0.3362
  871TIP3    H124104   3.447   0.537   3.983  0.3425 -0.8304  0.3239
  871TIP3    H224105   3.477   0.684   4.005  0.2485 -0.5207 -1.3998
  872TIP3   OH224106   1.143   1.842  10.954  0.1956 -0.1204  0.1642
  872TIP3    H124107   1.118   1.791  10.877  3.6392 -1.9226  0.0454
  872TIP3    H224108   1.182   1.922  10.918  0.3095 -0.1939  0.1267
  873TIP3   OH224109   1.241   6.344   3.659  0.0892 -0.3571  0.6562
  873TIP3    H124110   1.173   6.368   3.721  0.4714 -1.1179  1.4009
  873TIP3    H224111   1.321   6.384   3.693 -0.1859  1.8117 -1.0184
  874TIP3   OH224112   2.005   6.496   0.071  0.2908  0.6064  1.1673
  874TIP3    H124113   1.912   6.471   0.069  0.4829 -0.0779  0.0976
  874TIP3    H224114   2.050   6.417   0.101  0.8067 -0.1293 -1.3151
  875TIP3   OH224115   0.094   4.293  10.648 -0.7682 -0.1761  0.1305
  875TIP3    H124116   0.006   4.267  10.678 -1.2406  1.6690  0.4617
  875TIP3    H224117   0.099   4.387  10.667  2.1185 -0.6088  2.2041
  876TIP3   OH224118   0.805   5.638   5.428  0.0642  0.1153  0.3190
  876TIP3    H124119   0.881   5.696   5.433 -0.2441  0.5087  0.4593
  876TIP3    H224120   0.744   5.683   5.369 -0.6952  0.5366  1.4004
  877TIP3   OH224121   4.658   0.046   3.416  0.2741  0.2298  0.1515
  877TIP3    H124122   4.568   0.026   3.391  0.2085  0.3305  0.3057
  877TIP3    H224123   4.710  -0.024   3.375  0.2188  0.6303 -0.6238
  878TIP3   OH224124   5.307   1.459  15.422 -0.2613  0.4035  0.5060
  878TIP3    H124125   5.393   1.426  15.395 -0.2880  0.6676  0.0918
  878TIP3    H224126   5.323   1.506  15.504 -0.3071 -1.1088  1.4332
  879TIP3   OH224127   2.786   2.939   4.752 -0.0108 -0.6202  0.1963
  879TIP3    H124128   2.858   2.927   4.691 -0.3990  0.1357 -0.4216
  879TIP3    H224129   2.750   2.851   4.764  0.5357 -0.8822 -0.0862
  880TIP3   OH224130   4.251   6.624   3.525  0.8065 -0.0523  0.5115
  880TIP3    H124131   4.220   6.670   3.603  1.6306 -0.6874  1.2346
  880TIP3    H224132   4.330   6.579   3.554 -0.0902 -2.1220 -0.1026
  881TIP3   OH224133   5.859   2.917  14.961  0.3795  0.1268  0.0308
  881TIP3    H124134   5.832   2.884  15.046 -0.9964  1.1780  0.0406
  881TIP3    H224135   5.953   2.903  14.958  0.6234  0.9696  2.1436
  882TIP3   OH224136   2.650   1.241   0.428 -0.0537 -0.0999 -0.2392
  882TIP3    H124137   2.615   1.170   0.376 -4.6154  1.0868  0.8124
  882TIP3    H224138   2.656   1.315   0.368  1.3540 -0.4059 -0.5229
  883TIP3   OH224139   2.691   2.753   2.080 -0.4728  0.5857 -0.3197
  883TIP3    H124140   2.779   2.748   2.117 -0.4998  1.1067 -0.1740
  883TIP3    H224141   2.677   2.668   2.038  1.2308  1.5259 -2.9513
  884TIP3   OH224142   4.532   4.164   0.926  0.3393  0.1516  0.0430
  884TIP3    H124143   4.517   4.076   0.960 -0.7347  1.1092  2.2906
  884TIP3    H224144   4.445   4.198   0.906  0.7125  0.8291 -0.4815
  885TIP3   OH224145   0.700   2.930   6.144 -0.0627 -0.1442  0.1243
  885TIP3    H124146   0.693   2.867   6.072  1.7685  0.7731 -0.9450
  885TIP3    H224147   0.786   2.912   6.182  0.4696  1.6239 -0.1692
  886TIP3   OH224148   5.003   3.727  15.058 -0.0529  0.4787 -0.4471
  886TIP3    H124149   4.942   3.661  15.025  0.5745 -0.2741 -0.1294
  886TIP3    H224150   4.985   3.805  15.005  1.4884 -0.8968 -3.2302
  887TIP3   OH224151   6.338   4.798   3.720  0.1986 -0.3899 -0.1597
  887TIP3    H124152   6.337   4.714   3.675  1.1304  0.0051 -0.9375
  887TIP3    H224153   6.428   4.829   3.713 -0.3243  1.1138 -0.7195
  888TIP3   OH224154   4.927   1.493   4.833 -0.2376 -0.1004 -0.1970
  888TIP3    H124155   4.851   1.550   4.843  1.0562  1.7502 -0.5609
  888TIP3    H224156   5.002   1.552   4.834  1.3226 -1.9923  1.5215
  889TIP3   OH224157   5.656   1.642   5.086 -0.4722 -0.0326 -0.1838
  889TIP3    H124158   5.738   1.593   5.083  0.3266  1.1297  1.1143
  889TIP3    H224159   5.657   1.684   5.172 -2.0171  0.7174 -0.4996
  890TIP3   OH224160   1.859   5.967   3.885 -0.6648  0.3650 -0.0185
  890TIP3    H124161   1.790   5.916   3.929 -0.1395  0.2726  0.7136
  890TIP3    H224162   1.819   5.994   3.802 -0.3566 -2.8233 -1.3391
  891TIP3   OH224163   6.185   2.833   3.785  0.5790  0.1438 -0.5810
  891TIP3    H124164   6.173   2.750   3.832  2.4319 -0.4472 -1.0302
  891TIP3    H224165   6.109   2.841   3.729 -0.3475 -0.5016  0.5420
  892TIP3   OH224166   0.432   1.952   1.175 -0.0713 -0.4679  0.1219
  892TIP3    H124167   0.398   1.986   1.257  1.4377  2.7299 -0.4274
  892TIP3    H224168   0.463   1.863   1.196 -0.7118 -0.1562  2.6854
  893TIP3   OH224169   4.391   4.384   1.125  0.4172  0.7635  0.2266
  893TIP3    H124170   4.312   4.411   1.172  0.0513  0.8167 -0.4141
  893TIP3    H224171   4.360   4.324   1.058  1.2049 -1.1270  1.4782
  894TIP3   OH224172   0.251   4.654   6.300  0.4184 -0.0770 -0.5006
  894TIP3    H124173   0.326   4.712   6.314 -0.9383  1.4070  1.0608
  894TIP3    H224174   0.182   4.712   6.267 -1.3151 -0.4865  2.0912
  895TIP3   OH224175   1.251   3.730   2.193  0.3283 -0.5239  0.5310
  895TIP3    H124176   1.161   3.765   2.198 -0.1304 -1.4485 -0.7291
  895TIP3    H224177   1.257   3.669   2.265 -0.8848 -2.1935 -0.7075
  896TIP3   OH224178   5.955   3.769   0.200  0.1791 -0.1579 -0.2641
  896TIP3    H124179   5.977   3.842   0.258  1.1496 -0.3381 -0.3774
  896TIP3    H224180   6.000   3.789   0.118 -0.3896 -0.3816 -0.6335
  897TIP3   OH224181   5.220   1.151  13.417  0.3698  0.4307 -0.2782
  897TIP3    H124182   5.214   1.151  13.321 -0.0485 -1.0525 -0.2714
  897TIP3    H224183   5.221   1.059  13.441  0.1544  0.7872  1.1736
  898TIP3   OH224184   6.045   6.075  16.837  0.4600  0.4070 -0.3647
  898TIP3    H124185   5.959   6.105  16.809  0.2569  0.4613  0.3225
  898TIP3    H224186   6.090   6.053  16.755  0.1290  1.2700 -0.7928
  899TIP3   OH224187   1.095   5.859   1.561 -0.3762  0.2628 -0.4014
  899TIP3    H124188   1.047   5.931   1.602 -0.1825  0.3543 -0.3387
  899TIP3    H224189   1.035   5.825   1.495 -0.8919 -0.1982  0.2811
  900TIP3   OH224190   3.685   2.069  10.712 -0.2075 -0.0739 -0.1689
  900TIP3    H124191   3.728   2.135  10.768 -0.6210  0.1172 -0.0738
  900TIP3    H224192   3.614   2.035  10.766  0.2083 -0.8459 -0.0904
  901TIP3   OH224193   4.783   4.383  14.428  0.1383 -0.3953  0.2621
  901TIP3    H124194   4.698   4.359  14.465 -0.2675  0.7643  0.1196
  901TIP3    H224195   4.830   4.300  14.421 -0.7080 -0.9620  1.0178
  902TIP3   OH224196   4.285   0.241   2.794 -0.0023 -0.1689 -0.0379
  902TIP3    H124197   4.373   0.204   2.802  0.5724  1.0946 -0.2613
  902TIP3    H224198   4.274   0.257   2.700  0.5859  2.0854  0.2364
  903TIP3   OH224199   3.748   3.547  10.839  0.1541  0.8153 -0.0178
  903TIP3    H124200   3.806   3.581  10.907  0.7005 -0.4241  0.1748
  903TIP3    H224201   3.763   3.603  10.763  2.7239 -0.3167 -0.4570
  904TIP3   OH224202   2.584   1.813  13.216 -0.1171  0.2039  0.6286
  904TIP3    H124203   2.625   1.889  13.175 -1.0355  1.9028  2.6711
  904TIP3    H224204   2.649   1.780  13.278 -0.0332 -0.2009  0.3352
  905TIP3   OH224205   0.225   2.415   1.225  0.7750 -0.3510 -0.1411
  905TIP3    H124206   0.136   2.382   1.237  0.9110 -0.6103  0.1766
  905TIP3    H224207   0.218   2.479   1.155  0.2569 -0.0246  0.2085
  906TIP3   OH224208   2.385   2.101  13.592  0.4141 -0.0186  0.6223
  906TIP3    H124209   2.383   2.017  13.638 -0.3571  0.7424  2.0790
  906TIP3    H224210   2.301   2.141  13.613  1.1584  1.5302  0.8073
  907TIP3   OH224211   1.122   5.682   1.222 -0.2959  0.0624 -0.7798
  907TIP3    H124212   1.085   5.615   1.164 -0.6227  0.1097 -0.6269
  907TIP3    H224213   1.116   5.644   1.309 -1.4977  0.7286 -0.5591
  908TIP3   OH224214   5.073   4.572   0.534 -1.2705 -0.2148 -0.4248
  908TIP3    H124215   5.062   4.479   0.514 -0.7129 -0.2267 -0.6693
  908TIP3    H224216   5.106   4.611   0.454  1.6412 -0.3882  0.5652
  909TIP3   OH224217   0.298   1.183   1.330 -0.1341 -0.2070  0.4663
  909TIP3    H124218   0.236   1.125   1.285 -0.5721  1.0402 -0.5889
  909TIP3    H224219   0.355   1.123   1.379 -1.0813 -1.4769  0.0720
  910TIP3   OH224220   4.098   6.290  15.552 -0.1653  0.6442  0.6586
  910TIP3    H124221   4.102   6.371  15.501  0.7525  0.3675  0.2765
  910TIP3    H224222   4.037   6.234  15.505  1.2439  0.0992 -0.5873
  911TIP3   OH224223   4.008   0.351  11.447  0.2187 -0.3999  0.7021
  911TIP3    H124224   3.923   0.350  11.490 -0.0519  0.3915  0.2020
  911TIP3    H224225   3.989   0.370  11.355  1.0156  0.9495  0.7967
  912TIP3   OH224226   2.344   5.676   4.499 -0.5582  0.6656  0.0338
  912TIP3    H124227   2.271   5.698   4.443 -1.2738 -0.9200  0.2798
  912TIP3    H224228   2.422   5.691   4.445 -1.1605  0.6047 -0.8640
  913TIP3   OH224229   1.367   4.231  15.520 -0.6287 -0.4115  0.3870
  913TIP3    H124230   1.355   4.144  15.481  0.2013 -0.1663 -0.4849
  913TIP3    H224231   1.445   4.222  15.575  0.0371 -0.0040 -0.4608
  914TIP3   OH224232   1.333   1.931   1.081 -0.2146  0.0658 -0.5158
  914TIP3    H124233   1.409   1.875   1.095 -0.3529  0.2672  1.2212
  914TIP3    H224234   1.258   1.871   1.083 -0.2171  0.0673 -0.5710
  915TIP3   OH224235   3.829   4.624  13.685 -0.1666 -0.0396 -0.1230
  915TIP3    H124236   3.874   4.693  13.734 -0.2686  0.5049 -0.7692
  915TIP3    H224237   3.776   4.579  13.750  1.1133 -0.5348  0.6047
  916TIP3   OH224238   0.847   0.802   0.741  0.3711  0.6863  0.1313
  916TIP3    H124239   0.776   0.788   0.678  1.1288 -1.8045 -0.2684
  916TIP3    H224240   0.920   0.750   0.708  0.1802 -2.4761  3.9828
  917TIP3   OH224241   0.919   5.517   0.874 -0.6633  0.0484 -0.3070
  917TIP3    H124242   0.948   5.588   0.816 -2.0499 -0.2904 -1.4716
  917TIP3    H224243   0.866   5.562   0.941 -1.9341  0.0932 -1.3139
  918TIP3   OH224244   4.505   1.692   0.520  0.2000  0.1517  0.0330
  918TIP3    H124245   4.434   1.644   0.561  1.6365 -2.0798  0.0644
  918TIP3    H224246   4.497   1.674   0.427  2.1640 -2.3864  0.2403
  919TIP3   OH224247   4.403   5.116   1.985  0.5599 -0.1653 -0.9349
  919TIP3    H124248   4.435   5.155   2.066 -0.4404 -0.3002 -0.4506
  919TIP3    H224249   4.324   5.167   1.964  0.9890  0.0897 -2.0142
  920TIP3   OH224250   6.530   4.703  16.481  0.3072  0.0738 -0.0097
  920TIP3    H124251   6.471   4.648  16.532 -1.3239  0.2077 -1.6331
  920TIP3    H224252   6.518   4.673  16.390  1.0964  1.5822 -0.6452
  921TIP3   OH224253   2.151   1.030   1.224  0.1351  0.5949  0.2175
  921TIP3    H124254   2.166   1.115   1.265  1.3545  0.8240 -0.6423
  921TIP3    H224255   2.136   1.050   1.132  0.7942 -0.1353 -0.0652
  922TIP3   OH224256   3.288   0.105  16.451 -0.5696 -0.0722  0.4373
  922TIP3    H124257   3.202   0.143  16.434 -1.3363 -1.6055  0.6939
  922TIP3    H224258   3.347   0.180  16.456 -2.1041  1.1281  1.5740
  923TIP3   OH224259   4.696   4.612  14.896  0.2012 -0.4451 -0.0085
  923TIP3    H124260   4.679   4.530  14.850  0.7987 -0.9136  0.5851
  923TIP3    H224261   4.792   4.619  14.899  0.1537  0.6499 -0.7095
  924TIP3   OH224262   4.250   2.883  15.950 -0.1279  0.2700  0.3292
  924TIP3    H124263   4.325   2.823  15.950  0.8725  1.4361  1.6834
  924TIP3    H224264   4.191   2.849  15.883  0.9920 -1.4667  0.1734
  925TIP3   OH224265   5.615   0.871  13.568  0.6678  0.3572  0.8716
  925TIP3    H124266   5.662   0.945  13.608  1.7813  0.0668  0.1310
  925TIP3    H224267   5.650   0.794  13.613  1.7130  0.0530 -0.4237
  926TIP3   OH224268   6.690   0.151   4.450 -0.1063  0.0564 -0.2126
  926TIP3    H124269   6.632   0.224   4.426 -0.8286 -0.4551 -0.0359
  926TIP3    H224270   6.770   0.194   4.479  0.0842  0.7518 -1.6763
  927TIP3   OH224271   6.419   6.810  11.403  0.0871  0.0742 -0.3592
  927TIP3    H124272   6.397   6.801  11.496 -2.0896  3.1422 -0.4182
  927TIP3    H224273   6.356   6.753  11.358 -0.9536  0.9294 -0.0333
  928TIP3   OH224274   5.878   1.944   4.516  0.5653 -0.0408  0.6284
  928TIP3    H124275   5.962   1.954   4.471  0.5202 -2.4233 -0.1435
  928TIP3    H224276   5.892   1.871   4.577 -0.2921  1.0861  2.2680
  929TIP3   OH224277   2.601   2.258   2.386 -0.4912 -0.0910 -0.1416
  929TIP3    H124278   2.523   2.202   2.388 -1.5626  1.2680 -1.2932
  929TIP3    H224279   2.667   2.206   2.342 -1.0128 -0.9625  0.0832
  930TIP3   OH224280   5.319   2.713  12.459  0.4285  0.2876 -0.5143
  930TIP3    H124281   5.390   2.757  12.412  2.0595 -0.5370  1.0407
  930TIP3    H224282   5.354   2.627  12.479 -1.0244 -0.1299  0.3511
  931TIP3   OH224283   3.969   4.315   0.521 -0.1134 -0.6542 -0.1124
  931TIP3    H124284   3.977   4.262   0.442 -0.5703 -0.0658 -0.5655
  931TIP3    H224285   4.009   4.399   0.498  0.0849 -0.6034  0.4057
  932TIP3   OH224286   2.342   1.695   0.435 -0.2296 -0.0567 -0.0003
  932TIP3    H124287   2.417   1.649   0.396 -0.1267 -1.2105  1.4844
  932TIP3    H224288   2.282   1.709   0.362  0.3410 -1.3606 -0.7441
  933TIP3   OH224289   3.704   2.121  14.324 -0.3637 -0.1671  0.4337
  933TIP3    H124290   3.775   2.061  14.300 -0.4027 -0.2889  0.6213
  933TIP3    H224291   3.633   2.099  14.264 -0.0853  0.2718 -0.0702
  934TIP3   OH224292   3.348   0.173  17.036 -0.5801  0.4540  0.5845
  934TIP3    H124293   3.330   0.193  17.128 -0.9751  0.2627  0.5505
  934TIP3    H224294   3.444   0.167  17.032 -0.6008 -0.5252  1.1962
  935TIP3   OH224295   6.296   5.607   4.062  0.0646  0.4286  0.2046
  935TIP3    H124296   6.206   5.581   4.081 -0.1855  0.8722 -0.3289
  935TIP3    H224297   6.292   5.702   4.047  0.7536  0.5839  0.9257
  936TIP3   OH224298   4.175   3.743   3.136 -0.4328  0.0933  0.0155
  936TIP3    H124299   4.090   3.700   3.134 -0.3101 -0.2098  0.8298
  936TIP3    H224300   4.228   3.689   3.195 -0.1466  1.1115  0.7272
  937TIP3   OH224301   6.509   0.706  17.146 -0.6683  0.0112  0.6942
  937TIP3    H124302   6.468   0.783  17.106 -1.5147 -0.7269  0.1032
  937TIP3    H224303   6.546   0.739  17.227  0.3569  1.3817 -0.2769
  938TIP3   OH224304   0.422   0.144   4.764 -0.1333 -0.4521  0.4757
  938TIP3    H124305   0.491   0.085   4.731 -0.1213 -0.2204  0.0780
  938TIP3    H224306   0.360   0.086   4.807 -0.6284 -0.8820 -0.7699
  939TIP3   OH224307   6.326   1.707  16.092 -0.0501 -0.2924  0.3955
  939TIP3    H124308   6.395   1.642  16.103  1.3450  1.0215 -0.2118
  939TIP3    H224309   6.245   1.659  16.105  0.9916 -1.7230  2.0119
  940TIP3   OH224310   6.471   4.234  11.721  0.1815 -0.0179 -0.5425
  940TIP3    H124311   6.552   4.185  11.739  1.2564  1.1243 -1.9512
  940TIP3    H224312   6.438   4.197  11.639 -0.6246 -0.3311 -0.0840
  941TIP3   OH224313   3.888   4.029  11.725 -0.4843 -0.4251 -0.3637
  941TIP3    H124314   3.883   4.103  11.665  0.6977 -0.0979 -0.0863
  941TIP3    H224315   3.797   3.998  11.732 -0.8016  0.1859 -1.4726
  942TIP3   OH224316   1.123   5.101   2.373 -0.0495  0.4261 -0.1351
  942TIP3    H124317   1.208   5.144   2.372  0.0086  0.6160  2.8840
  942TIP3    H224318   1.062   5.167   2.341  0.7526  0.7609 -1.0021
  943TIP3   OH224319   2.370   3.970  11.166  0.1372 -0.3678 -0.0944
  943TIP3    H124320   2.350   3.990  11.075 -0.1101  1.3031  0.3007
  943TIP3    H224321   2.427   3.893  11.162  1.6236  0.7395 -1.7752
  944TIP3   OH224322   0.921   2.978  14.145  0.8002  0.6279  0.4097
  944TIP3    H124323   0.906   2.932  14.228  1.4502  0.6941  0.5676
  944TIP3    H224324   0.868   3.057  14.152  2.2037  1.5371  1.5393
  945TIP3   OH224325   0.030   0.182  15.516 -0.2277 -0.8411  0.8896
  945TIP3    H124326   0.063   0.264  15.479 -0.6043 -0.0299  2.2862
  945TIP3    H224327  -0.052   0.165  15.469  0.6436 -1.3184 -0.5413
  946TIP3   OH224328   0.147   3.624  11.336 -0.2442 -0.2883 -0.1872
  946TIP3    H124329   0.190   3.670  11.264 -0.4992  1.5791  0.7877
  946TIP3    H224330   0.206   3.636  11.411 -0.3185 -1.5989  0.1051
  947TIP3   OH224331   2.264   5.130   1.690 -0.3741  0.0340  0.3829
  947TIP3    H124332   2.296   5.067   1.625 -2.4534 -1.1344  0.4121
  947TIP3    H224333   2.259   5.212   1.642  0.0752 -0.3596 -0.3567
  948TIP3   OH224334   1.098   0.005  16.058  0.6329  0.2366  0.3694
  948TIP3    H124335   1.089  -0.070  16.117 -1.2987  1.0684  1.1823
  948TIP3    H224336   1.179   0.047  16.087  0.7086 -0.4290  1.1872
  949TIP3   OH224337   5.848   6.365  15.186  0.3815  0.1654 -0.0792
  949TIP3    H124338   5.879   6.398  15.270  0.6229  0.6705 -0.3595
  949TIP3    H224339   5.827   6.273  15.202  2.0410 -0.2080  0.1145
  950TIP3   OH224340   1.065   1.543  13.918  0.7262  0.0122  0.1640
  950TIP3    H124341   1.102   1.608  13.857 -3.2555 -0.0014 -2.6407
  950TIP3    H224342   1.020   1.596  13.984  0.4526  0.0966 -0.0874
  951TIP3   OH224343   0.728   4.081   0.470 -0.5191  0.2585  0.1930
  951TIP3    H124344   0.726   4.101   0.564 -0.1510  0.6748  0.1161
  951TIP3    H224345   0.705   4.164   0.428 -1.5524 -0.1402 -0.0658
  952TIP3   OH224346   4.090   6.045   2.485  0.1199 -0.0933 -0.0486
  952TIP3    H124347   4.126   6.126   2.449  0.3779 -0.2249 -0.0847
  952TIP3    H224348   4.042   6.073   2.563 -0.0607  0.1346 -0.2384
  953TIP3   OH224349   3.811   1.689   1.097 -0.5173  0.4931  0.0065
  953TIP3    H124350   3.726   1.732   1.108 -0.7716  0.1872 -0.7165
  953TIP3    H224351   3.832   1.701   1.004  0.4462  0.9583  0.2677
  954TIP3   OH224352   0.406   0.684  15.235 -0.7480 -0.2646 -0.5441
  954TIP3    H124353   0.408   0.594  15.268 -1.2931  0.3051  1.1624
  954TIP3    H224354   0.488   0.693  15.186 -0.4409 -1.5356 -0.2964
  955TIP3   OH224355   2.599   0.329   4.277  0.4179  0.0244 -0.4618
  955TIP3    H124356   2.549   0.300   4.201 -1.3123 -0.9299  0.9519
  955TIP3    H224357   2.617   0.249   4.326  1.7331  0.5903  0.0051
  956TIP3   OH224358   3.855   1.739  12.883  0.5588 -0.2731 -0.6118
  956TIP3    H124359   3.794   1.806  12.912  1.6274  1.2815 -1.7568
  956TIP3    H224360   3.890   1.773  12.800  2.1016 -1.6407 -0.5767
  957TIP3   OH224361   1.389   5.108  12.151 -0.3021 -0.0346 -0.1325
  957TIP3    H124362   1.351   5.194  12.136 -1.7884 -0.5771  0.3868
  957TIP3    H224363   1.430   5.115  12.238  0.3137  0.3826 -0.4494
  958TIP3   OH224364   5.214   1.146  14.934  0.4290 -0.2750 -0.1393
  958TIP3    H124365   5.178   1.228  14.969  1.0383  0.6973 -1.7132
  958TIP3    H224366   5.180   1.079  14.994 -1.6365  0.8907  0.1179
  959TIP3   OH224367   4.613   3.548  16.550 -0.2969 -0.5215  0.1829
  959TIP3    H124368   4.642   3.579  16.636  1.0666 -2.0619  0.3268
  959TIP3    H224369   4.619   3.452  16.555 -0.3858 -0.6598 -1.5548
  960TIP3   OH224370   2.784   1.630  14.042 -0.1029 -0.4578  0.1246
  960TIP3    H124371   2.846   1.570  14.001 -1.2257 -0.6573 -1.3858
  960TIP3    H224372   2.706   1.625  13.986 -0.9001  0.9789  1.0552
  961TIP3   OH224373   0.800   4.877  16.526  0.3476 -0.2702 -0.3789
  961TIP3    H124374   0.767   4.793  16.494  0.8459 -0.6874  0.1706
  961TIP3    H224375   0.853   4.854  16.602  2.3655  0.3038 -1.5254
  962TIP3   OH224376   2.669   4.430  12.465 -0.0936  0.0840 -0.3319
  962TIP3    H124377   2.668   4.511  12.516  1.9022  0.1089 -0.2537
  962TIP3    H224378   2.593   4.381  12.495  0.3315  0.6359  1.7949
  963TIP3   OH224379   2.976   6.450  10.864  0.0054 -0.7010  0.0923
  963TIP3    H124380   2.970   6.466  10.770 -2.7856 -0.9873  0.1300
  963TIP3    H224381   3.042   6.382  10.874  0.8910 -0.1235 -1.5644
  964TIP3   OH224382   1.493   6.072  10.857 -0.0839  0.8304  0.3050
  964TIP3    H124383   1.517   6.138  10.793 -0.2402  2.5760  1.9694
  964TIP3    H224384   1.485   6.119  10.940 -1.2333 -1.0863  1.3818
  965TIP3   OH224385   6.382   4.448   5.120 -0.0927 -0.8122 -0.4180
  965TIP3    H124386   6.443   4.386   5.080 -0.6798 -0.9714 -1.0770
  965TIP3    H224387   6.393   4.435   5.215  1.0390 -0.6943 -0.5120
  966TIP3   OH224388   5.821   5.429  16.981 -0.0706  0.6631  0.5587
  966TIP3    H124389   5.866   5.346  16.967 -1.0986  0.6803 -4.8544
  966TIP3    H224390   5.892   5.493  16.992  0.8786 -0.3185  0.3322
  967TIP3   OH224391   4.161   3.562  17.136 -0.0688  0.3659 -0.1042
  967TIP3    H124392   4.071   3.591  17.151  0.4930  1.4541  1.3852
  967TIP3    H224393   4.158   3.515  17.052 -1.5508  2.3728 -1.2454
  968TIP3   OH224394   2.476   5.844   0.391  0.5760 -0.1539  0.1842
  968TIP3    H124395   2.380   5.849   0.393  0.5691  0.2940 -0.8577
  968TIP3    H224396   2.498   5.789   0.466 -0.3333  1.8238  2.0181
  969TIP3   OH224397   6.142   4.295   0.855 -0.2216  0.0374  0.0100
  969TIP3    H124398   6.047   4.293   0.867 -0.3525  0.1769 -0.8978
  969TIP3    H224399   6.178   4.265   0.939 -1.0070  2.1283  1.1617
  970TIP3   OH224400   3.602   4.840   4.864 -0.3423  0.0742  0.1039
  970TIP3    H124401   3.650   4.764   4.830 -0.6039  0.2252 -0.6269
  970TIP3    H224402   3.553   4.806   4.939 -1.4260 -0.7827 -0.9493
  971TIP3   OH224403   5.867   5.480   5.876  0.0896 -0.1096  0.4676
  971TIP3    H124404   5.866   5.548   5.945 -0.7325  1.3744 -0.9321
  971TIP3    H224405   5.929   5.513   5.811 -2.3597  0.7999 -1.5790
  972TIP3   OH224406   6.396   3.574   6.288 -0.4022 -0.6959  0.2803
  972TIP3    H124407   6.439   3.544   6.209  0.7674  2.9880 -0.6960
  972TIP3    H224408   6.463   3.570   6.356 -0.1234 -0.0379  0.0550
  973TIP3   OH224409   4.630   2.271   4.036  0.1766 -0.3201 -0.0165
  973TIP3    H124410   4.537   2.262   4.016  0.3241 -3.0113  0.1373
  973TIP3    H224411   4.673   2.210   3.976  1.7068 -0.2380  0.9404
  974TIP3   OH224412   4.769   1.290  11.640 -0.6801  0.3359 -0.1056
  974TIP3    H124413   4.704   1.360  11.647  0.2372  1.4429 -1.9188
  974TIP3    H224414   4.724   1.221  11.592 -1.2559  0.0769  0.7753
  975TIP3   OH224415   2.282   5.415   1.529  0.3382 -0.4821  0.9577
  975TIP3    H124416   2.290   5.376   1.442 -0.1549  1.8156 -0.1897
  975TIP3    H224417   2.320   5.502   1.520 -0.2497  0.0236  2.9028
  976TIP3   OH224418   1.453   0.478  14.585 -0.0230 -0.9400 -0.6229
  976TIP3    H124419   1.457   0.566  14.622  1.3503 -0.9690 -0.6520
  976TIP3    H224420   1.362   0.451  14.596  0.1437 -0.6853  2.1198
  977TIP3   OH224421   3.175   1.265  12.214 -0.1041 -0.4474  0.0305
  977TIP3    H124422   3.079   1.275  12.214 -0.0091  0.6506  0.5648
  977TIP3    H224423   3.198   1.258  12.307  0.4537  0.7597 -0.0002
  978TIP3   OH224424   3.937   5.553  15.907 -0.7342  0.1785  0.0851
  978TIP3    H124425   3.994   5.501  15.850 -0.3257  0.7843 -0.0652
  978TIP3    H224426   3.972   5.642  15.902  1.2339 -0.2109  3.6435
  979TIP3   OH224427   3.895   2.676  11.895  0.3800 -0.5495 -0.1288
  979TIP3    H124428   3.903   2.678  11.991  1.7330 -0.3244 -0.2174
  979TIP3    H224429   3.839   2.601  11.877  1.3216 -1.5183  0.8004
  980TIP3   OH224430   2.653   2.322  14.984  0.3059 -0.2266 -0.3146
  980TIP3    H124431   2.558   2.317  14.976  0.3607 -0.0572 -1.0867
  980TIP3    H224432   2.686   2.266  14.914  0.7836 -0.2124 -0.1070
  981TIP3   OH224433   3.165   2.414   0.875  0.2433  0.5302  0.5032
  981TIP3    H124434   3.119   2.331   0.885  1.1094  0.0750  0.8291
  981TIP3    H224435   3.252   2.398   0.912 -0.3887  2.3183  3.0704
  982TIP3   OH224436   2.780   1.948  13.087 -0.4100  0.5922 -0.9131
  982TIP3    H124437   2.785   1.945  12.991  0.7029  0.6571 -0.8639
  982TIP3    H224438   2.760   2.039  13.108 -2.9234  0.1751 -1.1454
  983TIP3   OH224439   1.598   1.098  12.714 -0.1599  0.4421 -0.3734
  983TIP3    H124440   1.608   1.179  12.663  0.1047  0.5708 -0.1168
  983TIP3    H224441   1.518   1.111  12.764  1.3444  1.7487  1.8517
  984TIP3   OH224442   4.216   1.951   0.795  0.0751 -0.0957  0.1006
  984TIP3    H124443   4.148   1.893   0.761 -1.5963  0.7586  1.8027
  984TIP3    H224444   4.235   1.917   0.882 -1.3186  2.1063  1.3467
  985TIP3   OH224445   6.064   2.409   6.575  0.7747 -0.0006 -0.4339
  985TIP3    H124446   6.099   2.416   6.486  1.7232  1.0400 -0.0062
  985TIP3    H224447   6.056   2.314   6.590  4.2146 -0.4081 -0.3329
  986TIP3   OH224448   5.453   2.428  11.745  0.3062  0.0293 -0.3665
  986TIP3    H124449   5.531   2.373  11.744 -0.6898 -1.4382 -1.1935
  986TIP3    H224450   5.454   2.473  11.660 -0.0854 -0.5294 -0.6770
  987TIP3   OH224451   6.060   4.343   3.039 -0.3992  0.2832  0.0613
  987TIP3    H124452   5.975   4.300   3.038 -1.0065  1.4527 -0.3312
  987TIP3    H224453   6.063   4.392   2.957  0.3436  0.8510  0.4154
  988TIP3   OH224454   1.952   4.532   3.770 -0.0706 -0.5914  0.0257
  988TIP3    H124455   1.961   4.452   3.718 -0.3066  0.2776 -1.3853
  988TIP3    H224456   1.859   4.555   3.763 -0.5210 -1.3798  2.2844
  989TIP3   OH224457   6.245   1.096  13.788  0.1950 -0.9505  0.3946
  989TIP3    H124458   6.336   1.067  13.795  0.8325  0.6013 -0.9324
  989TIP3    H224459   6.215   1.062  13.703  0.9604  2.0154 -1.2057
  990TIP3   OH224460   0.847   4.393  16.527 -0.2043  0.1132 -0.5555
  990TIP3    H124461   0.871   4.446  16.604  0.7888  0.4566 -1.0794
  990TIP3    H224462   0.876   4.305  16.549  2.3198  0.6291 -1.4303
  991TIP3   OH224463   2.588   6.493  11.091  0.2565 -0.0925 -0.0457
  991TIP3    H124464   2.582   6.542  11.172 -0.9392 -0.9623  0.4234
  991TIP3    H224465   2.656   6.427  11.107 -0.4576 -0.7103  0.5174
  992TIP3   OH224466   6.690   2.036   1.327  0.5187 -0.1017 -0.1823
  992TIP3    H124467   6.756   2.010   1.263  0.4074  0.5147 -0.5614
  992TIP3    H224468   6.739   2.076   1.398  0.5812  0.0078 -0.2872
  993TIP3   OH224469   1.134   2.984  16.563  0.1050 -0.1528 -0.3302
  993TIP3    H124470   1.129   2.995  16.658 -0.1880 -0.6381 -0.2891
  993TIP3    H224471   1.117   3.071  16.528 -0.7512 -0.1703  0.0317
  994TIP3   OH224472   3.982   4.378  11.231  0.0541  0.1438 -0.0866
  994TIP3    H124473   4.023   4.395  11.147 -0.7898 -1.3589 -0.8523
  994TIP3    H224474   4.056   4.358  11.290  0.5621 -0.4888 -0.9121
  995TIP3   OH224475   6.704   1.939  13.015  0.4257 -0.2713  0.2333
  995TIP3    H124476   6.654   1.987  12.948  0.8257  0.0046  0.1297
  995TIP3    H224477   6.651   1.862  13.033  0.0435 -0.0695 -0.0039
  996TIP3   OH224478   2.777   4.628   4.313  0.1347  0.0289 -0.3041
  996TIP3    H124479   2.692   4.619   4.357 -0.9143  0.0547 -2.2343
  996TIP3    H224480   2.816   4.705   4.354 -0.3212 -0.5207  1.2720
  997TIP3   OH224481   1.301   1.863   3.844  0.4971  0.1082 -0.3885
  997TIP3    H124482   1.278   1.779   3.805  1.2861 -1.8546  2.9636
  997TIP3    H224483   1.388   1.883   3.809  0.4531 -0.6512 -0.9570
  998TIP3   OH224484   3.577   5.619  17.179 -0.0114 -0.1640 -0.2988
  998TIP3    H124485   3.539   5.534  17.200 -0.3765 -0.6143 -2.5363
  998TIP3    H224486   3.525   5.682  17.230  1.2107 -1.3043  2.5465
  999TIP3   OH224487   6.513   2.945  13.131 -0.3088  0.0247  1.4412
  999TIP3    H124488   6.568   3.020  13.108 -1.3649  0.5866  0.6458
  999TIP3    H224489   6.561   2.870  13.098  0.3177  0.4421  1.3854
 1000TIP3   OH224490   6.584   1.600   2.020  0.5852 -0.2630  0.0554
 1000TIP3    H124491   6.538   1.620   1.938  0.3683 -0.7553  0.0578
 1000TIP3    H224492   6.661   1.657   2.018 -0.0238  0.5759  0.0602
 1001TIP3   OH224493   1.311   1.165   0.191 -0.0803 -0.3499 -0.1852
 1001TIP3    H124494   1.309   1.163   0.096  0.9235  1.2730 -0.2841
 1001TIP3    H224495   1.332   1.257   0.213  1.5975 -1.0609  1.5374
 1002TIP3   OH224496   2.546   0.056  11.204 -0.5984  0.0844  0.3157
 1002TIP3    H124497   2.462   0.057  11.249  0.0824  0.8058  1.6115
 1002TIP3    H224498   2.592  -0.021  11.239 -0.6548 -0.2460 -0.3075
 1003TIP3   OH224499   3.259   0.539  10.330 -0.2621  0.4181 -0.1886
 1003TIP3    H124500   3.192   0.477  10.360 -0.1678 -1.0188 -2.6279
 1003TIP3    H224501   3.337   0.517  10.381 -0.3061 -1.3796 -0.8187
 1004TIP3   OH224502   6.321   2.981  11.320 -0.3223 -0.4202  0.5185
 1004TIP3    H124503   6.302   2.951  11.409 -0.8543  0.2247  0.6269
 1004TIP3    H224504   6.238   3.013  11.287  0.2673  1.1724  0.5086
 1005TIP3   OH224505   3.516   2.335  11.560 -0.3951 -0.3427  0.1358
 1005TIP3    H124506   3.589   2.398  11.556  0.2008 -0.9656  0.9748
 1005TIP3    H224507   3.524   2.294  11.645 -1.5311 -0.6877  0.0912
 1006TIP3   OH224508   0.535   1.738   3.430  0.4290  0.3796 -0.8383
 1006TIP3    H124509   0.531   1.820   3.382 -1.4948  0.0916 -1.2409
 1006TIP3    H224510   0.593   1.756   3.504 -0.0475  2.1273 -0.8648
 1007TIP3   OH224511   1.751   2.581  13.034  0.6299 -0.0229 -0.0783
 1007TIP3    H124512   1.734   2.554  12.944  0.3429  1.1203 -0.3804
 1007TIP3    H224513   1.729   2.674  13.036  0.1873 -0.1316  1.2862
 1008TIP3   OH224514   5.763   2.399  15.544 -0.2482 -0.7470 -0.0341
 1008TIP3    H124515   5.716   2.462  15.599 -0.8750  1.0776 -2.4624
 1008TIP3    H224516   5.849   2.439  15.532 -0.5398 -0.4698 -1.3317
 1009TIP3   OH224517   0.023   3.048  11.456 -0.1802 -0.6476  0.0952
 1009TIP3    H124518  -0.014   2.961  11.468 -2.9841  0.4451  0.0573
 1009TIP3    H224519   0.118   3.035  11.460 -0.4923 -3.7594 -0.5624
 1010TIP3   OH224520   2.435   5.913   2.301 -0.2049  0.2393  0.4426
 1010TIP3    H124521   2.444   5.962   2.382 -0.2528  0.5808  0.2454
 1010TIP3    H224522   2.524   5.904   2.268 -0.3788  2.7323 -0.9914
 1011TIP3   OH224523   1.693   1.834   4.037 -0.1963 -0.4118  0.1128
 1011TIP3    H124524   1.603   1.866   4.036 -0.0371  0.0823  0.9500
 1011TIP3    H224525   1.692   1.762   4.100  0.2424  0.3839  1.0593
 1012TIP3   OH224526   0.861   1.747  11.396  0.3261  0.5679 -0.1654
 1012TIP3    H124527   0.911   1.799  11.459  0.4970 -0.5056  0.6182
 1012TIP3    H224528   0.924   1.686  11.360  0.0112  0.5303 -0.6580
 1013TIP3   OH224529   3.226   3.613   2.594  0.2759  0.1333 -0.1232
 1013TIP3    H124530   3.166   3.558   2.544 -0.9577  1.8055 -0.5727
 1013TIP3    H224531   3.191   3.702   2.584  1.2284  0.8038  1.9472
 1014TIP3   OH224532   5.629   0.934  15.833 -0.1145  0.0822 -0.1831
 1014TIP3    H124533   5.566   1.001  15.807 -1.2642 -0.9080 -0.0262
 1014TIP3    H224534   5.636   0.943  15.928  0.4848  0.6052 -0.2694
 1015TIP3   OH224535   1.299   4.908  12.375 -0.2960 -0.0986  0.4334
 1015TIP3    H124536   1.320   4.970  12.445 -0.8438  0.7431 -0.1383
 1015TIP3    H224537   1.350   4.830  12.397  1.4281  0.9888  0.4493
 1016TIP3   OH224538   2.676   4.696  11.803  0.7836 -0.5591  0.0277
 1016TIP3    H124539   2.732   4.706  11.727  1.2069 -0.3072  0.3652
 1016TIP3    H224540   2.698   4.771  11.859 -1.2643  0.6863 -0.6869
 1017TIP3   OH224541   6.485   2.781  16.492  0.1177  0.2484  0.3648
 1017TIP3    H124542   6.538   2.825  16.558  0.2140 -0.0535  0.4913
 1017TIP3    H224543   6.543   2.771  16.416 -0.0655  0.8067  0.1493
 1018TIP3   OH224544   1.864   4.711   0.899  0.3382  0.4391 -0.1787
 1018TIP3    H124545   1.836   4.791   0.855 -1.1815  0.2478  0.3686
 1018TIP3    H224546   1.935   4.739   0.957 -0.6936  1.5680  0.5910
 1019TIP3   OH224547   4.179   1.866   5.776 -0.4125  0.1025 -0.1539
 1019TIP3    H124548   4.275   1.871   5.775 -0.2704 -1.3672 -3.0260
 1019TIP3    H224549   4.150   1.954   5.752  0.2880  0.1187 -0.9798
 1020TIP3   OH224550   1.323   0.457   2.310  0.2838  0.3180 -0.1305
 1020TIP3    H124551   1.249   0.406   2.342 -0.6337  0.7870 -1.4173
 1020TIP3    H224552   1.388   0.392   2.283  0.2021 -0.1035  0.6567
 1021TIP3   OH224553   2.413   0.315   1.271  0.3448  0.4879  0.5567
 1021TIP3    H124554   2.508   0.313   1.275  0.4714  1.3369 -1.2904
 1021TIP3    H224555   2.389   0.405   1.293  0.2082  1.1022 -1.8092
 1022TIP3   OH224556   3.145   4.206   4.528 -0.4940 -0.5240 -0.3444
 1022TIP3    H124557   3.237   4.216   4.553 -1.3508  0.8239  2.7105
 1022TIP3    H224558   3.145   4.133   4.466  2.6264 -0.4381 -0.5910
 1023TIP3   OH224559   2.571   4.698  14.227  0.3434 -0.7507 -0.3612
 1023TIP3    H124560   2.477   4.720  14.224  0.6671  0.8862  0.3974
 1023TIP3    H224561   2.576   4.612  14.186 -1.5165 -0.9400 -0.3065
 1024TIP3   OH224562   2.711   5.856  12.322  0.6190  0.5358 -0.4927
 1024TIP3    H124563   2.663   5.904  12.254 -3.7396 -2.6297 -0.0844
 1024TIP3    H224564   2.763   5.792  12.274  0.1213  0.4629 -0.9508
 1025TIP3   OH224565   2.577   2.972   1.635 -0.1604 -0.3055  0.0943
 1025TIP3    H124566   2.668   3.002   1.638 -0.0161 -0.7182 -0.1476
 1025TIP3    H224567   2.582   2.881   1.606 -0.5749 -0.6962  1.1755
 1026TIP3   OH224568   2.477   6.755   5.896 -0.6044 -0.3509  1.0960
 1026TIP3    H124569   2.566   6.780   5.871 -0.3507 -0.8663  1.4645
 1026TIP3    H224570   2.463   6.671   5.854 -1.6305  0.5827 -0.5359
 1027TIP3   OH224571   1.086   5.229  16.502 -0.0679 -0.2633 -1.1853
 1027TIP3    H124572   1.170   5.213  16.545  1.5504  2.1139 -3.2430
 1027TIP3    H224573   1.082   5.164  16.432  0.6317  0.3570 -1.8110
 1028TIP3   OH224574   0.249   3.797  16.208 -0.1968 -0.6672  0.0138
 1028TIP3    H124575   0.342   3.780  16.195  0.9467  3.5731  1.0229
 1028TIP3    H224576   0.217   3.820  16.120  0.3659  0.3101  0.0564
 1029TIP3   OH224577   4.474   1.345  13.332  0.8453 -0.5025 -0.1759
 1029TIP3    H124578   4.469   1.411  13.401  0.1131 -0.2786 -0.4320
 1029TIP3    H224579   4.479   1.262  13.378 -1.5724 -0.5109  0.2060
 1030TIP3   OH224580   2.024   6.238  16.822  0.1742  0.1668 -0.2414
 1030TIP3    H124581   2.062   6.291  16.893  0.2314  0.7224 -0.6790
 1030TIP3    H224582   1.935   6.220  16.851  0.9215 -1.6858  1.0961
 1031TIP3   OH224583   3.551   4.495   2.152 -0.0709  0.7268 -0.2837
 1031TIP3    H124584   3.540   4.481   2.246  1.4150 -1.1437 -0.3251
 1031TIP3    H224585   3.477   4.449   2.113 -1.1619  2.2052 -0.0512
 1032TIP3   OH224586   2.810   4.261  13.669 -0.1138 -0.0464  0.4877
 1032TIP3    H124587   2.853   4.238  13.751 -3.1269  1.3379  2.6824
 1032TIP3    H224588   2.848   4.202  13.604  1.6139 -2.0314  3.0912
 1033TIP3   OH224589   5.005   0.275  11.662  0.7550 -0.1305  0.2145
 1033TIP3    H124590   5.073   0.230  11.612  1.1799 -0.1246  0.7809
 1033TIP3    H224591   5.050   0.307  11.740  0.3845  0.9900 -0.0198
 1034TIP3   OH224592   3.613   2.097   0.721 -0.2721 -0.2913  0.0459
 1034TIP3    H124593   3.646   2.015   0.685  0.3859 -0.8034  1.7380
 1034TIP3    H224594   3.522   2.079   0.743  0.1169 -0.9053  1.2707
 1035TIP3   OH224595   1.251   1.613   5.646  0.2291 -0.3299  0.1516
 1035TIP3    H124596   1.179   1.672   5.670  0.8088  0.8785 -0.9372
 1035TIP3    H224597   1.283   1.647   5.562  2.1185 -0.7838  0.6379
 1036TIP3   OH224598   0.696   3.367   4.492  0.3588  0.3036 -0.7234
 1036TIP3    H124599   0.778   3.319   4.488  1.4387  1.9522  0.3487
 1036TIP3    H224600   0.713   3.448   4.443 -0.1371  1.2860  0.6703
 1037TIP3   OH224601   2.312   3.435   5.624  0.5919  0.3388  0.1411
 1037TIP3    H124602   2.241   3.465   5.567 -0.0897  0.5874  1.0949
 1037TIP3    H224603   2.296   3.341   5.634 -0.0170  0.5142  0.9009
 1038TIP3   OH224604   1.478   0.719  14.746 -0.2454 -0.6092  0.5671
 1038TIP3    H124605   1.557   0.773  14.755 -0.2777 -0.6078  0.8837
 1038TIP3    H224606   1.420   0.751  14.815 -1.4770  0.9838 -1.1289
 1039TIP3   OH224607   4.057   4.509  13.321 -0.0004  1.3175 -0.4962
 1039TIP3    H124608   4.045   4.438  13.258 -1.8798 -0.0889  1.3006
 1039TIP3    H224609   3.974   4.558  13.318  0.8616  2.7993 -0.9198
 1040TIP3   OH224610   6.375   6.040   1.255  0.3481 -0.3918 -0.4066
 1040TIP3    H124611   6.302   6.060   1.314 -0.4241 -2.4185 -0.5941
 1040TIP3    H224612   6.342   5.969   1.200  2.0476 -0.4968 -1.3471
 1041TIP3   OH224613   3.483   5.119  15.999 -0.5622  0.3734  0.5834
 1041TIP3    H124614   3.554   5.155  15.946 -1.1425 -0.8512 -1.0952
 1041TIP3    H224615   3.480   5.026  15.975 -1.5768  0.0232  1.9667
 1042TIP3   OH224616   1.742   5.976  11.426  0.4451  0.7018 -0.5020
 1042TIP3    H124617   1.662   6.001  11.472 -0.5335 -1.7543 -0.6931
 1042TIP3    H224618   1.779   6.058  11.395 -0.0416  2.2744  2.6864
 1043TIP3   OH224619   1.333   6.682   5.976  0.6990  0.0629  0.0929
 1043TIP3    H124620   1.335   6.640   6.062 -1.8054  0.0352  0.2200
 1043TIP3    H224621   1.412   6.652   5.932  0.8930 -1.7220  1.5622
 1044TIP3   OH224622   5.893   5.961  16.534 -0.1771  0.2037  0.1246
 1044TIP3    H124623   5.879   6.028  16.468 -1.2957  1.6860  1.7901
 1044TIP3    H224624   5.806   5.922  16.548  0.0087  0.0222  0.8224
 1045TIP3   OH224625   1.711   6.422  13.824 -0.0656 -0.6393 -0.2058
 1045TIP3    H124626   1.632   6.473  13.804 -0.4226 -1.5447 -1.1703
 1045TIP3    H224627   1.764   6.481  13.877 -2.1165 -0.5707  1.9482
 1046TIP3   OH224628   0.858   6.560  12.051  0.2220 -0.2208  0.1946
 1046TIP3    H124629   0.909   6.619  12.107 -0.4604 -0.9142  1.6082
 1046TIP3    H224630   0.785   6.613  12.020  0.7653  0.2518 -0.3000
 1047TIP3   OH224631   6.061   1.505  15.229  0.7268 -0.1567  0.0955
 1047TIP3    H124632   6.099   1.457  15.303  0.7234 -0.5460 -0.1575
 1047TIP3    H224633   5.994   1.447  15.194  1.0609 -0.1702 -0.5176
 1048TIP3   OH224634   4.125   2.585   5.419 -0.5152  0.5393  0.4009
 1048TIP3    H124635   4.102   2.546   5.503  1.8290 -0.9646  0.4213
 1048TIP3    H224636   4.050   2.565   5.363 -1.1687 -0.4007  1.5544
 1049TIP3   OH224637   1.836   4.410   2.868 -0.0068  0.6745 -0.5636
 1049TIP3    H124638   1.782   4.336   2.895 -0.3697  1.5997  1.4380
 1049TIP3    H224639   1.922   4.392   2.904  0.1656  0.7639 -0.9268
 1050TIP3   OH224640   3.258   2.251   3.497 -0.0905  0.3405 -0.0989
 1050TIP3    H124641   3.262   2.246   3.593 -0.8594  0.0045 -0.0804
 1050TIP3    H224642   3.348   2.234   3.469  0.3237  1.2952  0.5908
 1051TIP3   OH224643   6.252   5.172   6.474 -0.3795 -0.1564 -0.1336
 1051TIP3    H124644   6.226   5.132   6.391 -0.6580  1.2712 -0.7681
 1051TIP3    H224645   6.169   5.196   6.516 -0.2121  0.7851 -0.3106
 1052TIP3   OH224646   5.968   0.299  14.978 -0.1973  0.0055  0.2378
 1052TIP3    H124647   6.009   0.263  15.057  1.3709  0.4005 -0.3654
 1052TIP3    H224648   6.026   0.273  14.907 -2.0475 -1.1267 -0.9575
 1053TIP3   OH224649   5.514   0.185  14.690  0.8443 -0.5528 -0.3880
 1053TIP3    H124650   5.500   0.133  14.611 -1.4420 -1.0046  0.2224
 1053TIP3    H224651   5.561   0.127  14.750  0.6447 -0.9890 -0.6521
 1054TIP3   OH224652   0.390   1.839  16.739  0.1760 -0.3443 -0.0151
 1054TIP3    H124653   0.380   1.744  16.726  0.8141 -0.3720 -0.3355
 1054TIP3    H224654   0.427   1.847  16.827 -1.3470 -0.3019  0.6557
 1055TIP3   OH224655   2.327   5.345   1.248  0.1798  0.2744  0.5486
 1055TIP3    H124656   2.262   5.294   1.200  1.4001 -0.1935 -0.6536
 1055TIP3    H224657   2.364   5.405   1.183  0.3238  1.1779  1.4281
 1056TIP3   OH224658   6.323   0.410   3.200  0.0763  0.1672  0.4287
 1056TIP3    H124659   6.261   0.426   3.128 -0.8506  2.9588  1.6924
 1056TIP3    H224660   6.372   0.492   3.207 -0.0114  0.0715  3.0489
 1057TIP3   OH224661   4.764   4.650   4.004 -0.3842  1.1718 -0.3292
 1057TIP3    H124662   4.710   4.689   4.073  1.9033  0.0331  2.2913
 1057TIP3    H224663   4.704   4.590   3.959 -1.6086  0.5658  1.9018
 1058TIP3   OH224664   0.307   4.255   1.158 -0.5138  0.1293  0.3542
 1058TIP3    H124665   0.242   4.185   1.164  0.0353 -0.3905  0.2890
 1058TIP3    H224666   0.358   4.233   1.080  1.1006 -0.6398  1.5720
 1059TIP3   OH224667   4.049   1.434   0.144 -0.1530 -0.1459 -0.4160
 1059TIP3    H124668   4.113   1.477   0.087  0.2473 -1.1841 -0.7695
 1059TIP3    H224669   4.047   1.489   0.223 -1.1313  1.6272 -1.6009
 1060TIP3   OH224670   3.696   2.662   0.497  0.3754 -0.2087 -0.3938
 1060TIP3    H124671   3.750   2.583   0.488  0.9918  0.1970 -0.2712
 1060TIP3    H224672   3.739   2.714   0.564  0.0708  0.3193 -0.5987
 1061TIP3   OH224673   1.029   0.221  13.035  0.1418  0.2587  0.0256
 1061TIP3    H124674   1.062   0.303  13.072  1.0297  0.7082 -1.7038
 1061TIP3    H224675   0.934   0.224  13.051  0.2133  1.4443  0.2982
 1062TIP3   OH224676   1.701   5.770   1.597 -0.0861 -0.0749  0.2267
 1062TIP3    H124677   1.645   5.819   1.536 -0.5866  0.8221  1.3785
 1062TIP3    H224678   1.743   5.837   1.650  3.0676 -0.6137 -1.3391
 1063TIP3   OH224679   4.113   5.839  12.143  0.2484  0.0847 -0.1237
 1063TIP3    H124680   4.087   5.782  12.070  1.1246 -0.5702  0.0582
 1063TIP3    H224681   4.152   5.779  12.207  0.0255  0.7292  0.6294
 1064TIP3   OH224682   1.058   1.037   3.779  0.6515 -0.2937  0.2313
 1064TIP3    H124683   1.022   1.120   3.748  2.3513  0.1877 -0.5223
 1064TIP3    H224684   1.136   1.023   3.727  2.7581 -0.2825  3.1372
 1065TIP3   OH224685   4.036   5.157   2.991 -0.2108  0.3144 -0.4722
 1065TIP3    H124686   4.082   5.075   2.978 -0.0060  0.5980 -1.6897
 1065TIP3    H224687   4.057   5.209   2.913  1.8565  2.5897  1.4098
 1066TIP3   OH224688   2.151   5.609  16.293 -0.4979 -0.5521  0.3516
 1066TIP3    H124689   2.229   5.589  16.241 -1.2546  1.2821 -1.6583
 1066TIP3    H224690   2.158   5.703  16.310 -2.0106 -0.4589  0.5761
 1067TIP3   OH224691   4.939   5.411  14.374 -0.1365  0.3504 -0.2811
 1067TIP3    H124692   4.979   5.445  14.293 -1.3536 -0.9942 -1.4918
 1067TIP3    H224693   4.871   5.474  14.395  0.5739  1.0242  0.0632
 1068TIP3   OH224694   5.725   4.423  12.686 -0.7342  0.3211 -0.3878
 1068TIP3    H124695   5.721   4.331  12.662 -0.0062 -0.0920  0.9876
 1068TIP3    H224696   5.806   4.455  12.647 -1.1293  0.4793 -1.1098
 1069TIP3   OH224697   3.731   0.018   5.634  0.0467 -0.3905 -0.3618
 1069TIP3    H124698   3.732  -0.021   5.722  1.1106 -0.0274 -0.1885
 1069TIP3    H224699   3.657  -0.023   5.590 -1.6315  0.7329  1.2782
 1070TIP3   OH224700   3.137   2.405   1.282  0.1148 -0.5439  0.7417
 1070TIP3    H124701   3.212   2.347   1.268  0.7581  0.1836  1.0399
 1070TIP3    H224702   3.120   2.443   1.195  0.1690 -0.6282  0.6944
 1071TIP3   OH224703   1.290   5.194  12.853  0.0330 -0.0378  0.1899
 1071TIP3    H124704   1.346   5.202  12.776 -0.6231  2.8181 -0.1109
 1071TIP3    H224705   1.217   5.139  12.824 -0.0945  0.8186 -1.2037
 1072TIP3   OH224706   4.080   0.913   2.858 -0.1816  0.0474  0.3822
 1072TIP3    H124707   4.042   0.945   2.940 -0.2159 -1.2141  0.8852
 1072TIP3    H224708   4.007   0.868   2.815  0.2742 -0.8241  0.5017
 1073TIP3   OH224709   4.605   4.280  11.384 -0.2730  0.3214  0.0206
 1073TIP3    H124710   4.548   4.357  11.377  1.0678  1.2506 -1.2191
 1073TIP3    H224711   4.545   4.205  11.384 -1.6265  1.3506  1.5838
 1074TIP3   OH224712   0.320   1.930  16.216  0.2472 -0.2670  0.0856
 1074TIP3    H124713   0.312   1.990  16.142 -3.5063  1.5827  1.7377
 1074TIP3    H224714   0.381   1.973  16.275 -0.2857  0.5546  0.0460
 1075TIP3   OH224715   1.347   2.679   1.705 -0.1403  1.1367 -0.1664
 1075TIP3    H124716   1.299   2.756   1.733 -1.7087  0.5085 -1.0310
 1075TIP3    H224717   1.288   2.633   1.646  0.1038 -1.5692  1.5177
 1076TIP3   OH224718   3.428   6.063  12.384 -0.1758 -0.1924  0.0352
 1076TIP3    H124719   3.430   6.147  12.338 -0.3311 -0.9995 -1.5004
 1076TIP3    H224720   3.438   6.087  12.477  0.1256  1.4833 -0.3872
 1077TIP3   OH224721   4.885   4.767  12.112 -0.3015  0.2567  0.2209
 1077TIP3    H124722   4.931   4.802  12.035  0.9927 -2.3121 -0.2894
 1077TIP3    H224723   4.842   4.843  12.151 -0.0028  1.8704 -2.3464
 1078TIP3   OH224724   5.068   6.530   1.678 -0.4358  0.0281 -0.4532
 1078TIP3    H124725   5.023   6.589   1.617 -0.2289  0.0359 -0.5997
 1078TIP3    H224726   5.110   6.588   1.741  1.3370  0.1457 -1.6687
 1079TIP3   OH224727   4.260   3.172   3.853 -0.6738  0.4373 -0.1839
 1079TIP3    H124728   4.347   3.198   3.822 -0.5101  0.0168 -0.0757
 1079TIP3    H224729   4.261   3.077   3.852 -1.8121  0.3869 -2.1139
 1080TIP3   OH224730   4.638   2.275  11.155  0.2879 -0.2522  0.1418
 1080TIP3    H124731   4.571   2.225  11.203 -1.9314  2.8404  0.5838
 1080TIP3    H224732   4.602   2.286  11.067  1.4910 -0.7184 -0.4360
 1081TIP3   OH224733   6.793   1.971   2.457 -0.6033 -0.3333 -0.5930
 1081TIP3    H124734   6.834   1.892   2.493  0.4397 -0.4237 -1.9204
 1081TIP3    H224735   6.781   2.028   2.533 -2.5285 -2.1945  0.6364
 1082TIP3   OH224736   3.245   6.174  11.955  0.2106 -0.0962 -1.0463
 1082TIP3    H124737   3.222   6.259  11.993 -0.7423 -1.2971  1.2541
 1082TIP3    H224738   3.313   6.140  12.013 -0.4570 -1.5114 -1.0697
 1083TIP3   OH224739   5.103   3.490  15.353  0.2822  0.0341 -0.0371
 1083TIP3    H124740   5.149   3.573  15.358 -0.6261  0.5141  0.6781
 1083TIP3    H224741   5.135   3.440  15.428 -0.0930  0.2351  0.2618
 1084TIP3   OH224742   6.659   6.294  14.834  0.2350 -0.3477  0.1581
 1084TIP3    H124743   6.636   6.266  14.923  0.5161  0.9197  0.6549
 1084TIP3    H224744   6.581   6.341  14.803  0.3441 -0.3020 -0.0469
 1085TIP3   OH224745   3.173   6.408  13.989 -0.3703  0.1867  0.0143
 1085TIP3    H124746   3.171   6.386  14.082 -0.8974  0.6906  0.1288
 1085TIP3    H224747   3.244   6.355  13.953 -1.2804 -1.2952  0.3561
 1086TIP3   OH224748   5.583   5.540   2.231  1.0997 -0.3959 -0.6324
 1086TIP3    H124749   5.571   5.610   2.295  1.9567  0.0378 -0.9292
 1086TIP3    H224750   5.544   5.463   2.271 -0.2664  0.3426 -0.4783
 1087TIP3   OH224751   3.500   4.272  14.925 -0.0573 -0.3761  0.4522
 1087TIP3    H124752   3.466   4.204  14.982 -0.2180 -0.7469 -0.0749
 1087TIP3    H224753   3.494   4.235  14.837  0.7957 -0.0727  0.2486
 1088TIP3   OH224754   0.939   4.506  16.776  0.2953  0.4461  0.0899
 1088TIP3    H124755   0.915   4.472  16.862  0.0588 -0.8229 -0.4603
 1088TIP3    H224756   1.034   4.492  16.771  0.0985 -0.8285 -0.4107
 1089TIP3   OH224757   0.304   3.995  11.670  0.1364  0.1703  0.2537
 1089TIP3    H124758   0.321   3.903  11.649  0.2741  0.2518  0.0109
 1089TIP3    H224759   0.218   4.013  11.632 -0.8635 -0.4354  2.0651
 1090TIP3   OH224760   4.778   0.905  14.942 -0.4230 -0.3075  0.1241
 1090TIP3    H124761   4.819   0.979  14.896  0.0946 -0.7046 -0.0623
 1090TIP3    H224762   4.849   0.843  14.957 -0.8381 -0.7402  0.3466
 1091TIP3   OH224763   6.376   5.191  12.728  0.4634  0.3067  0.3781
 1091TIP3    H124764   6.320   5.139  12.786  1.4066 -0.3838  0.6786
 1091TIP3    H224765   6.375   5.279  12.766  0.8207 -0.0652  1.2532
 1092TIP3   OH224766   3.087   1.962  12.753 -0.2157  0.3637  0.2346
 1092TIP3    H124767   3.061   2.031  12.814 -1.4605 -0.7196  0.9943
 1092TIP3    H224768   3.099   2.007  12.669 -0.6928  1.5409  0.7779
 1093TIP3   OH224769   2.073   5.753  15.648  0.5079 -0.0934 -0.4359
 1093TIP3    H124770   2.026   5.693  15.589 -0.7782 -1.0289  1.4496
 1093TIP3    H224771   2.134   5.697  15.695  1.1262  0.5580 -0.4384
 1094TIP3   OH224772   2.341   0.658  13.333  0.2212 -0.5443 -0.1439
 1094TIP3    H124773   2.313   0.749  13.343 -1.6049 -0.8694 -1.7185
 1094TIP3    H224774   2.398   0.659  13.256 -0.9371 -0.9202 -1.0279
 1095TIP3   OH224775   2.890   6.254   3.900  0.4437 -0.1382 -0.7971
 1095TIP3    H124776   2.804   6.219   3.874  0.5000  0.4190 -1.7916
 1095TIP3    H224777   2.906   6.324   3.838  2.3286 -1.2215 -1.6083
 1096TIP3   OH224778   4.084   5.414  11.468  0.4628  0.2216  0.0667
 1096TIP3    H124779   4.061   5.350  11.400 -0.4199  0.4749  0.1222
 1096TIP3    H224780   4.117   5.489  11.419 -0.5103  0.5449 -0.1161
 1097TIP3   OH224781   0.161   5.842   4.361 -0.4011 -0.3713 -0.1166
 1097TIP3    H124782   0.105   5.913   4.393  0.5171  0.1472  0.3909
 1097TIP3    H224783   0.183   5.868   4.271 -1.4911 -0.9059 -0.5482
 1098TIP3   OH224784   6.168   5.122   5.458 -0.8708 -0.4234  0.0966
 1098TIP3    H124785   6.176   5.215   5.437 -0.9372  0.1624  2.4280
 1098TIP3    H224786   6.194   5.077   5.377  1.9459  1.5911 -0.2803
 1099TIP3   OH224787   5.517   0.392   1.246 -0.3369 -0.1319 -0.3570
 1099TIP3    H124788   5.604   0.424   1.267 -0.9302  0.3684  1.6268
 1099TIP3    H224789   5.466   0.408   1.326 -2.0617 -1.0471 -1.2090
 1100TIP3   OH224790   2.815   0.523   5.288  0.3182  0.3637  0.6468
 1100TIP3    H124791   2.803   0.604   5.239  0.2194  0.2072  0.4125
 1100TIP3    H224792   2.798   0.548   5.379 -0.1083  0.5196  0.5277
 1101TIP3   OH224793   6.120   5.624  14.306  0.3148  0.1161 -0.4099
 1101TIP3    H124794   6.213   5.603  14.321  0.3716 -0.4606 -1.4356
 1101TIP3    H224795   6.121   5.681  14.229 -0.1725  0.0783 -0.4422
 1102TIP3   OH224796   0.841   1.648  15.056  0.2081 -0.1795 -0.1081
 1102TIP3    H124797   0.753   1.609  15.058  0.0946  0.0332 -0.7531
 1102TIP3    H224798   0.874   1.636  15.145  0.4383 -2.3786 -0.4263
 1103TIP3   OH224799   2.349   6.801  13.953  0.5611  0.3078 -0.4291
 1103TIP3    H124800   2.361   6.893  13.928  2.7697  0.0646 -0.4440
 1103TIP3    H224801   2.305   6.762  13.879 -0.4722  1.3492 -0.4001
 1104TIP3   OH224802   2.766   2.650   3.954  0.2151 -0.2749  0.4143
 1104TIP3    H124803   2.847   2.638   3.905  0.4538  2.5973 -0.0791
 1104TIP3    H224804   2.780   2.602   4.035  2.5271  0.2746  0.4163
 1105TIP3   OH224805   6.353   5.987   4.217 -0.1165 -0.1253 -0.0600
 1105TIP3    H124806   6.366   6.081   4.223  0.4511 -0.2476  0.8009
 1105TIP3    H224807   6.268   5.971   4.259 -0.1810 -0.0057 -0.1452
 1106TIP3   OH224808   5.780   2.538   4.758  0.1931 -0.0385 -0.1115
 1106TIP3    H124809   5.862   2.537   4.709  0.2759 -1.5134  0.0248
 1106TIP3    H224810   5.796   2.598   4.830  0.3972  1.3952 -1.3066
 1107TIP3   OH224811   1.455   2.203  15.333  0.3877 -0.0356  0.3872
 1107TIP3    H124812   1.427   2.115  15.307  1.1707 -0.5428  1.2152
 1107TIP3    H224813   1.445   2.256  15.254 -1.6420 -0.4829  0.2990
 1108TIP3   OH224814   3.067   2.741  16.654 -0.4617 -0.3549 -1.6851
 1108TIP3    H124815   3.105   2.726  16.568  0.5377 -0.9519 -1.1590
 1108TIP3    H224816   3.139   2.777  16.706 -0.9303 -0.4186 -0.9760
 1109TIP3   OH224817   2.245   4.259   0.447 -0.1790  0.2688  0.3601
 1109TIP3    H124818   2.264   4.236   0.356  0.9153  1.6945  0.1909
 1109TIP3    H224819   2.187   4.335   0.441 -0.2071  0.2924  0.8693
 1110TIP3   OH224820   1.893   1.644  15.673  0.0652 -0.1432  0.2139
 1110TIP3    H124821   1.877   1.579  15.605 -0.8384  1.2735 -0.9891
 1110TIP3    H224822   1.972   1.613  15.718 -0.6143 -2.3124  0.0432
 1111TIP3   OH224823   3.897   4.921   2.668  0.0915  0.1026  0.5066
 1111TIP3    H124824   3.829   4.856   2.690  0.9762 -0.5924  1.2982
 1111TIP3    H224825   3.850   5.004   2.663 -0.9728 -0.4999  0.0805
 1112TIP3   OH224826   1.682   5.510   4.062 -0.2840  0.1164 -0.9072
 1112TIP3    H124827   1.639   5.485   4.143  0.3830  0.8384 -0.3190
 1112TIP3    H224828   1.654   5.444   3.998  0.1647 -1.1843  0.2073
 1113TIP3   OH224829   3.415   5.719   2.612  0.0848  0.2941 -0.3725
 1113TIP3    H124830   3.454   5.657   2.673 -0.2557  0.0791 -0.3671
 1113TIP3    H224831   3.458   5.701   2.529 -0.3506 -0.2812 -0.4800
 1114TIP3   OH224832   5.686   5.263   0.807 -0.2735 -0.3613 -0.5719
 1114TIP3    H124833   5.688   5.168   0.796  0.6942 -0.1520 -2.8694
 1114TIP3    H224834   5.644   5.295   0.727  0.4546  1.2115 -0.3587
 1115TIP3   OH224835   4.719   5.091  14.556 -0.5971  0.1667 -0.0318
 1115TIP3    H124836   4.756   5.101  14.644  0.2938 -0.7427 -0.2724
 1115TIP3    H224837   4.794   5.104  14.497 -1.5677  2.9837 -0.8207
 1116TIP3   OH224838   4.970   1.296   5.689  0.3870 -0.3274  0.1019
 1116TIP3    H124839   5.019   1.376   5.670 -0.0999 -0.0827 -0.1536
 1116TIP3    H224840   4.887   1.307   5.642  0.6711 -1.3830 -0.6987
 1117TIP3   OH224841   2.520   1.433   3.788 -0.6241  0.3834  0.1575
 1117TIP3    H124842   2.611   1.413   3.764 -0.5569  1.3350 -0.4267
 1117TIP3    H224843   2.512   1.527   3.776 -1.5400  0.3902  0.7385
 1118TIP3   OH224844   6.378   6.273  12.937  0.8061 -0.8860 -0.2949
 1118TIP3    H124845   6.309   6.208  12.954  0.0614 -0.4143 -1.4484
 1118TIP3    H224846   6.450   6.222  12.900  1.8361 -1.6748  2.5115
 1119TIP3   OH224847   4.557   0.202  12.242  0.4210  0.1518  0.1110
 1119TIP3    H124848   4.557   0.117  12.286  2.2051  0.5726  1.0210
 1119TIP3    H224849   4.466   0.231  12.248  0.4801  0.0911  3.4759
 1120TIP3   OH224850   0.886   1.535  16.106  0.0231  0.6478 -0.7826
 1120TIP3    H124851   0.897   1.628  16.123  1.6675 -0.0151  2.8434
 1120TIP3    H224852   0.960   1.512  16.050  1.7105  1.0400  1.1431
 1121TIP3   OH224853   0.672   1.954  15.986  0.3123  0.0409  0.1911
 1121TIP3    H124854   0.597   1.992  15.942 -0.4483  0.0610  1.4400
 1121TIP3    H224855   0.639   1.872  16.023  0.5803  0.5492  1.6417
 1122TIP3   OH224856   3.627   2.558  13.007  0.0013 -0.3296  1.1080
 1122TIP3    H124857   3.625   2.614  13.085  0.7791 -0.2851  1.1023
 1122TIP3    H224858   3.708   2.509  13.016 -2.3736 -4.4831  3.2196
 1123TIP3   OH224859   4.053   5.839   5.802  0.1162  0.7672  0.3306
 1123TIP3    H124860   4.142   5.854   5.833  0.8562  0.2898 -1.4345
 1123TIP3    H224861   4.015   5.780   5.867  0.2213  2.8470  2.3979
 1124TIP3   OH224862   3.918   0.478  14.483 -0.2494 -0.2794 -0.1142
 1124TIP3    H124863   3.838   0.509  14.526  0.0527 -0.5086  0.6362
 1124TIP3    H224864   3.989   0.513  14.537  0.1177 -4.3706  2.4465
 1125TIP3   OH224865   4.489   5.764  15.088  0.2009  0.1269  0.0019
 1125TIP3    H124866   4.425   5.831  15.110  0.0263  0.3236 -1.0262
 1125TIP3    H224867   4.538   5.801  15.014  0.6834 -0.5192 -0.0129
 1126TIP3   OH224868   0.638   1.643  14.285 -0.0606  0.0046  0.2047
 1126TIP3    H124869   0.722   1.676  14.254  0.8805 -2.5851 -0.2594
 1126TIP3    H224870   0.586   1.630  14.206  0.0774 -0.7794  0.2278
 1127TIP3   OH224871   3.490   1.555  16.120 -0.2970 -0.5192  0.4355
 1127TIP3    H124872   3.492   1.460  16.135  1.6982 -0.6200 -0.1398
 1127TIP3    H224873   3.566   1.572  16.065 -1.3288  1.2786 -0.5197
 1128TIP3   OH224874   2.160   5.380  14.839 -0.0880  0.0085  0.6363
 1128TIP3    H124875   2.229   5.444  14.856 -1.2486  1.8634 -1.1275
 1128TIP3    H224876   2.081   5.433  14.827 -1.4108 -1.8854  0.5955
 1129TIP3   OH224877   4.929   5.778  14.122  0.0604 -0.1968  0.4125
 1129TIP3    H124878   4.933   5.768  14.218 -1.0779 -1.8049  0.3245
 1129TIP3    H224879   4.971   5.700  14.088  1.4816  0.8889 -0.4656
 1130TIP3   OH224880   3.890   4.518   0.022  0.1190  0.2384 -0.1823
 1130TIP3    H124881   3.968   4.569   0.043  1.9520 -1.0519 -3.1500
 1130TIP3    H224882   3.858   4.557  -0.060 -0.3859 -1.2711 -0.7327
 1131TIP3   OH224883   0.452   5.685   0.478 -0.3787  0.5129  0.4136
 1131TIP3    H124884   0.383   5.700   0.542  0.6812 -1.4801  2.1362
 1131TIP3    H224885   0.437   5.596   0.446 -0.5172  1.2422 -1.7303
 1132TIP3   OH224886   1.672   0.865  15.889 -0.8832 -0.3668 -0.3014
 1132TIP3    H124887   1.650   0.888  15.799 -1.1265  0.1912 -0.1015
 1132TIP3    H224888   1.589   0.838  15.928 -0.8970  0.0334 -0.0535
 1133TIP3   OH224889   6.021   3.949  15.112  0.3073  0.1776 -0.5381
 1133TIP3    H124890   5.927   3.933  15.112 -0.5703  3.9697  2.1045
 1133TIP3    H224891   6.036   4.001  15.033  0.0584  0.1954 -0.5739
 1134TIP3   OH224892   0.780   6.308   5.284 -0.5309  0.1359  0.0817
 1134TIP3    H124893   0.744   6.244   5.345 -0.4893  0.3569  0.3401
 1134TIP3    H224894   0.704   6.353   5.249 -0.5778 -0.2354 -0.3065
 1135TIP3   OH224895   2.565   4.802   2.608 -0.0142  0.0657 -0.2718
 1135TIP3    H124896   2.516   4.869   2.656  0.3700  0.4434 -0.4011
 1135TIP3    H224897   2.497   4.745   2.572 -0.2995 -0.6905  1.3631
 1136TIP3   OH224898   6.540   0.746   5.050  0.4633 -0.1511 -0.0821
 1136TIP3    H124899   6.600   0.687   5.004  0.3643 -0.6329  0.4003
 1136TIP3    H224900   6.595   0.792   5.113  0.5885  0.4716 -0.6265
 1137TIP3   OH224901   4.566   6.428   6.810  0.2089 -0.0073 -0.2337
 1137TIP3    H124902   4.556   6.475   6.727 -0.4539 -0.4550 -0.4162
 1137TIP3    H224903   4.477   6.421   6.845  0.3842 -0.5140  0.1270
 1138TIP3   OH224904   3.131   4.168   2.593 -0.5432 -0.1294  0.5129
 1138TIP3    H124905   3.174   4.250   2.616  0.2272 -0.9446  2.0769
 1138TIP3    H224906   3.167   4.103   2.653 -1.4262 -1.5537 -0.4235
 1139TIP3   OH224907   0.275   3.410  13.863  0.0430  0.3458 -0.9237
 1139TIP3    H124908   0.214   3.360  13.918 -0.3627 -0.5953 -2.1691
 1139TIP3    H224909   0.338   3.448  13.925 -0.3747 -0.6931  0.1812
 1140TIP3   OH224910   0.020   5.774   4.080 -0.1530 -0.2216  0.7749
 1140TIP3    H124911  -0.017   5.757   3.994 -0.5797 -1.6875  1.2229
 1140TIP3    H224912   0.110   5.741   4.074 -0.1164 -0.1308  0.8236
 1141TIP3   OH224913   5.091   5.560   6.357  0.3403 -0.3365  0.6366
 1141TIP3    H124914   5.149   5.491   6.391 -0.8737 -1.9866 -0.4722
 1141TIP3    H224915   5.050   5.597   6.435  2.6542  0.7602  1.4460
 1142TIP3   OH224916   2.116   3.829   2.189 -0.0768  0.2052  0.3780
 1142TIP3    H124917   2.035   3.877   2.200  0.2301  0.4370  1.8063
 1142TIP3    H224918   2.094   3.758   2.129 -1.3560  0.2179  0.8059
 1143TIP3   OH224919   4.151   5.479   3.321  0.0191 -0.3577  0.0607
 1143TIP3    H124920   4.073   5.456   3.372 -0.7006 -0.1938 -0.9467
 1143TIP3    H224921   4.182   5.395   3.285  0.2096 -0.3972  0.3128
 1144TIP3   OH224922   0.798   6.054  14.105  0.3526 -0.3262 -0.2794
 1144TIP3    H124923   0.705   6.034  14.114  0.7465 -1.9710  0.5607
 1144TIP3    H224924   0.826   6.083  14.191  0.6290  0.1366 -0.5206
 1145TIP3   OH224925   5.757   4.298  13.698 -0.0673  0.7142  0.6945
 1145TIP3    H124926   5.738   4.326  13.609  0.4906  0.0951  0.3778
 1145TIP3    H224927   5.680   4.325  13.748 -1.0917 -0.3034 -0.2690
 1146TIP3   OH224928   2.715   2.392   2.946  0.2747 -0.4639  0.3395
 1146TIP3    H124929   2.724   2.297   2.939 -0.5865 -0.5937  0.8534
 1146TIP3    H224930   2.665   2.406   3.026  1.4814  0.4886  0.9718
 1147TIP3   OH224931   3.564   5.085   1.527 -0.3541 -0.0268 -0.6242
 1147TIP3    H124932   3.627   5.031   1.480  0.2077  1.3666 -1.5318
 1147TIP3    H224933   3.609   5.169   1.540 -1.7266  0.7355 -0.5903
 1148TIP3   OH224934   2.330   4.141  16.654  0.0557 -0.9112  0.2555
 1148TIP3    H124935   2.397   4.127  16.721 -0.0612 -1.3760  0.2838
 1148TIP3    H224936   2.349   4.227  16.618  0.7749 -1.1081  0.1448
 1149TIP3   OH224937   3.859   5.971  12.611  0.5775 -0.0797 -0.3264
 1149TIP3    H124938   3.921   6.021  12.663 -0.0697 -0.0587  0.4511
 1149TIP3    H224939   3.868   6.006  12.522 -0.1980  1.7791  0.2709
 1150TIP3   OH224940   3.249   6.632   4.744  0.3591 -0.1209 -0.3748
 1150TIP3    H124941   3.276   6.682   4.821  0.0587 -0.0977 -0.2840
 1150TIP3    H224942   3.324   6.637   4.685  1.2137 -1.4420  0.5395
 1151TIP3   OH224943   2.928   4.939  16.628 -0.2123 -0.0150 -0.4353
 1151TIP3    H124944   2.956   4.991  16.703 -1.1518  0.8349 -0.6514
 1151TIP3    H224945   2.837   4.965  16.613 -0.2345 -0.6315 -1.4769
 1152TIP3   OH224946   4.621   3.660  14.622 -0.1506 -0.0788 -0.1032
 1152TIP3    H124947   4.567   3.690  14.696  0.2174 -1.7388  0.8909
 1152TIP3    H224948   4.697   3.620  14.663  0.7190  0.1438 -1.4498
 1153TIP3   OH224949   3.457   3.817  16.633  0.0032 -0.0971 -0.3250
 1153TIP3    H124950   3.461   3.764  16.712 -2.2357 -0.3368 -0.3314
 1153TIP3    H224951   3.517   3.890  16.650 -0.7551  0.0870  1.7840
 1154TIP3   OH224952   6.146   0.859   3.125  0.1629  0.2728  0.0244
 1154TIP3    H124953   6.194   0.908   3.192 -0.1445 -1.1906  1.3884
 1154TIP3    H224954   6.100   0.790   3.174 -1.1679 -0.0269 -1.5541
 1155TIP3   OH224955   0.136   2.480   3.343 -0.6490 -0.7549 -0.0806
 1155TIP3    H124956   0.128   2.390   3.374  0.0503 -0.5991  0.5655
 1155TIP3    H224957   0.083   2.531   3.405  1.0524 -0.3927  1.1404
 1156TIP3   OH224958   2.353   3.079  14.711  0.2442 -0.0717  0.3963
 1156TIP3    H124959   2.297   3.045  14.780  0.1667 -0.7080  0.0262
 1156TIP3    H224960   2.334   3.173  14.709 -0.2617 -0.1637  0.7751
 1157TIP3   OH224961   0.831   5.785   2.446 -0.1700 -0.6108  0.9120
 1157TIP3    H124962   0.811   5.765   2.354 -0.2945  1.6529  0.3745
 1157TIP3    H224963   0.774   5.727   2.496 -0.1469 -1.8574 -0.4243
 1158TIP3   OH224964   3.835   3.603  12.486 -0.0076 -0.3201  0.4346
 1158TIP3    H124965   3.878   3.607  12.400  0.1762 -0.6894  0.5084
 1158TIP3    H224966   3.875   3.527  12.529 -1.0489 -0.9519  0.3256
 1159TIP3   OH224967   3.346   3.552   4.864  0.0016  0.1492  0.3476
 1159TIP3    H124968   3.438   3.531   4.846  0.0551  0.6932 -0.0190
 1159TIP3    H224969   3.323   3.620   4.801 -1.2043 -1.2705 -0.8210
 1160TIP3   OH224970   1.336   4.058   1.013  0.4024 -0.2242  0.8751
 1160TIP3    H124971   1.421   4.014   1.016  0.7016  0.1867 -0.7176
 1160TIP3    H224972   1.295   4.026   0.932 -0.1056  1.0905  0.5922
 1161TIP3   OH224973   2.422   4.791   5.844  0.3120  0.0031 -0.1250
 1161TIP3    H124974   2.444   4.778   5.936 -1.8953 -0.2240  0.4268
 1161TIP3    H224975   2.472   4.868   5.818  0.0105  0.8635  1.6624
 1162TIP3   OH224976   1.396   0.068  13.712 -0.3801  0.4589  0.6631
 1162TIP3    H124977   1.372   0.150  13.756 -0.2528  1.1103 -0.4441
 1162TIP3    H224978   1.320   0.011  13.725 -0.8043  1.0333  0.7489
 1163TIP3   OH224979   1.413   1.841   4.100 -0.0475  0.5467  0.6202
 1163TIP3    H124980   1.366   1.850   4.017 -1.4884 -2.9650  0.8564
 1163TIP3    H224981   1.365   1.896   4.161 -1.0452  0.5885 -0.1673
 1164TIP3   OH224982   2.644   1.118  10.471 -0.8000  0.2746  0.0419
 1164TIP3    H124983   2.664   1.025  10.463  0.0984  0.2973  1.5809
 1164TIP3    H224984   2.633   1.149  10.381  2.8525 -0.4668 -0.8132
 1165TIP3   OH224985   5.981   5.623  15.577 -0.4579 -0.2220 -0.1659
 1165TIP3    H124986   6.054   5.573  15.612 -1.5659 -1.1952  0.8341
 1165TIP3    H224987   5.970   5.591  15.488 -1.3251 -2.0407  0.5427
 1166TIP3   OH224988   6.617   3.774   5.491  0.4341  0.5040  0.6270
 1166TIP3    H124989   6.542   3.733   5.534  0.1794 -0.5810 -0.7569
 1166TIP3    H224990   6.581   3.851   5.448 -0.1647 -0.5530 -0.8782
 1167TIP3   OH224991   2.191   6.611   5.382 -0.1080 -0.2077  0.5572
 1167TIP3    H124992   2.233   6.525   5.386 -1.8096 -1.3236 -2.2456
 1167TIP3    H224993   2.130   6.611   5.456 -0.2471 -1.5368  0.4724
 1168TIP3   OH224994   2.232   0.351  11.181  0.1254 -0.6193  0.0679
 1168TIP3    H124995   2.225   0.315  11.269 -0.2725 -0.0232  0.2838
 1168TIP3    H224996   2.311   0.405  11.183 -1.0892  1.2295  0.7439
 1169TIP3   OH224997   2.024   3.973  10.913  0.0336 -0.1127 -0.1461
 1169TIP3    H124998   1.950   4.030  10.894 -0.7532 -1.3284 -0.9039
 1169TIP3    H224999   2.014   3.951  11.006 -0.1019  0.3551 -0.0483
 1170TIP3   OH225000   1.629   1.561   1.218 -0.3655 -0.5780 -0.1851
 1170TIP3    H125001   1.627   1.501   1.144  0.5024 -0.6616 -0.1552
 1170TIP3    H225002   1.642   1.647   1.179  1.1330 -0.7377 -0.1004
 1171TIP3   OH225003   0.523   2.930   3.383 -0.0949 -0.5358  0.3771
 1171TIP3    H125004   0.428   2.935   3.370 -0.4432 -2.7434  1.6137
 1171TIP3    H225005   0.536   2.960   3.473  0.4902  0.4707 -0.0334
 1172TIP3   OH225006   3.593   3.667   1.386  0.4920  0.1260 -0.2611
 1172TIP3    H125007   3.564   3.752   1.354  0.1739  0.1213  0.0096
 1172TIP3    H225008   3.523   3.607   1.361  0.3358  0.0857  0.2520
 1173TIP3   OH225009   2.481   6.109   5.700 -0.6667  0.2383  0.0797
 1173TIP3    H125010   2.392   6.129   5.730 -0.7215 -1.6777  1.3801
 1173TIP3    H225011   2.537   6.169   5.750 -1.1216  0.3956  0.4088
 1174TIP3   OH225012   1.098   5.184   5.127 -0.4893  0.8778  0.3118
 1174TIP3    H125013   1.099   5.091   5.145 -0.5316  0.8546  0.1961
 1174TIP3    H225014   1.161   5.222   5.188  0.1394  0.6722 -0.1968
 1175TIP3   OH225015   3.535   1.462   6.344  0.0975 -0.4136  0.0110
 1175TIP3    H125016   3.561   1.483   6.254  0.7251 -1.3193 -0.0357
 1175TIP3    H225017   3.514   1.546   6.384  0.1986  0.0363 -0.8674
 1176TIP3   OH225018   5.419   4.851  11.789  0.2245  0.4726  0.0743
 1176TIP3    H125019   5.371   4.933  11.794  0.8138  0.7416  2.2690
 1176TIP3    H225020   5.511   4.877  11.787  0.3851 -0.1179 -0.4501
 1177TIP3   OH225021   5.716   6.205  17.084 -0.2808 -0.1103  0.7064
 1177TIP3    H125022   5.693   6.260  17.159 -0.0713  0.1006  0.6184
 1177TIP3    H225023   5.703   6.115  17.115  1.2209 -0.0994  1.4956
 1178TIP3   OH225024   2.723   2.374   3.370  0.5145 -0.0303  0.6797
 1178TIP3    H125025   2.732   2.328   3.453 -1.1372  0.4190  1.1526
 1178TIP3    H225026   2.733   2.466   3.393 -0.3840  0.1289  0.4746
 1179TIP3   OH225027   3.529   2.956  15.606 -0.2212 -0.2760 -0.3302
 1179TIP3    H125028   3.574   2.873  15.619 -0.1561 -0.1938 -0.0043
 1179TIP3    H225029   3.513   2.988  15.695 -2.0769 -0.9161 -0.3862
 1180TIP3   OH225030   4.415   5.495   6.842 -0.1097 -0.0464 -0.8302
 1180TIP3    H125031   4.346   5.514   6.778 -3.0450 -0.9271  1.8349
 1180TIP3    H225032   4.430   5.401   6.834  0.4812  0.0697 -1.1062
 1181TIP3   OH225033   3.981   6.794   2.704 -0.5623  0.0663  0.1406
 1181TIP3    H125034   3.908   6.815   2.646  0.3586  0.4752 -0.9254
 1181TIP3    H225035   3.981   6.699   2.708  0.9173 -0.1795 -2.7586
 1182TIP3   OH225036   1.249   3.001   4.542  0.1589  0.6302 -0.0754
 1182TIP3    H125037   1.262   3.072   4.479 -0.0554  0.2971 -0.5037
 1182TIP3    H225038   1.232   3.046   4.625 -2.0892  1.1447 -0.7422
 1183TIP3   OH225039   0.495   4.636  16.677  0.2898 -0.1290 -0.5818
 1183TIP3    H125040   0.504   4.604  16.767 -0.2554  0.1658 -0.4140
 1183TIP3    H225041   0.517   4.561  16.622 -0.4777 -0.6511 -0.1992
 1184TIP3   OH225042   2.849   6.690  14.357  0.2798  0.2339 -0.2219
 1184TIP3    H125043   2.805   6.774  14.372 -0.6125 -0.0375 -1.2033
 1184TIP3    H225044   2.862   6.686  14.263  1.2239 -0.2944 -0.0737
 1185TIP3   OH225045   1.151   3.396  13.222  0.0646 -0.0987 -0.1428
 1185TIP3    H125046   1.092   3.408  13.297 -1.8968 -0.0659 -1.6218
 1185TIP3    H225047   1.137   3.305  13.195  3.1243 -1.1759  1.3619
 1186TIP3   OH225048   0.942   0.884   3.475  0.2379  0.2076 -0.2865
 1186TIP3    H125049   0.886   0.856   3.402 -0.9479  0.2786  0.5624
 1186TIP3    H225050   1.017   0.926   3.433 -1.2098  1.7447 -1.4633
 1187TIP3   OH225051   5.588   5.748  13.748  0.1444  0.0410  0.4867
 1187TIP3    H125052   5.671   5.702  13.733 -0.7195 -1.1699 -0.9088
 1187TIP3    H225053   5.587   5.817  13.682 -0.4959 -0.7698 -0.3840
 1188TIP3   OH225054   4.143   4.739  14.704  0.2053 -0.0077  0.1137
 1188TIP3    H125055   4.195   4.727  14.783  2.0495  1.2300 -0.8474
 1188TIP3    H225056   4.196   4.701  14.634 -0.9749 -0.2677 -0.6651
 1189TIP3   OH225057   3.149   5.226   2.301  0.5026  0.0430  0.1654
 1189TIP3    H125058   3.061   5.244   2.333 -0.1216 -0.8954 -0.9377
 1189TIP3    H225059   3.185   5.312   2.278 -0.8193  0.3049 -1.0793
 1190TIP3   OH225060   6.654   3.264  15.181 -0.5866  0.2856  0.5356
 1190TIP3    H125061   6.719   3.252  15.250 -1.2804  0.0035  1.1480
 1190TIP3    H225062   6.670   3.352  15.148  0.2007  0.1664  0.5735
 1191TIP3   OH225063   3.677   4.361  17.201 -0.1151 -0.0799 -0.2296
 1191TIP3    H125064   3.718   4.284  17.161  0.9048 -0.9869  2.3395
 1191TIP3    H225065   3.746   4.399  17.256 -1.8773  0.0001  2.0519
 1192TIP3   OH225066   5.887   5.197   5.909  0.0797 -0.3554 -0.1231
 1192TIP3    H125067   5.808   5.182   5.961 -0.1872  1.4003  0.0332
 1192TIP3    H225068   5.884   5.290   5.886  2.0799 -0.2414 -0.1448
 1193TIP3   OH225069   0.105   2.880  17.097 -0.2085  0.2812 -0.2691
 1193TIP3    H125070   0.175   2.905  17.037 -0.8450  0.2938 -1.0266
 1193TIP3    H225071   0.057   2.962  17.113 -0.1584  0.2391  0.1104
 1194TIP3   OH225072   1.460   3.439  12.540  0.2270  0.2263 -0.5393
 1194TIP3    H125073   1.370   3.470  12.529  0.1567 -0.1195 -0.9471
 1194TIP3    H225074   1.492   3.425  12.451 -1.0053 -4.5213 -0.5233
 1195TIP3   OH225075   0.519   5.724  11.590 -0.2694 -0.6006 -0.5920
 1195TIP3    H125076   0.614   5.712  11.584 -0.3739 -0.7576 -2.3999
 1195TIP3    H225077   0.483   5.659  11.530 -1.5685 -0.9162  0.4804
 1196TIP3   OH225078   0.175   5.095  13.253  0.4906 -0.1418 -0.4979
 1196TIP3    H125079   0.224   5.073  13.332  0.5953 -2.4425 -1.1283
 1196TIP3    H225080   0.119   5.018  13.238  1.3910 -0.3407 -3.3365
 1197TIP3   OH225081   0.236   5.813  13.516 -0.0207  0.1410  0.3693
 1197TIP3    H125082   0.236   5.770  13.431 -0.2229 -0.4294  0.6537
 1197TIP3    H225083   0.267   5.902  13.498 -1.8775  0.6367 -0.5957
 1198TIP3   OH225084   5.588   5.239  13.015  0.0858 -0.0900  0.0287
 1198TIP3    H125085   5.498   5.231  12.984  0.0982  1.5598 -0.5245
 1198TIP3    H225086   5.641   5.199  12.946  0.0136  2.3108 -1.5232
 1199TIP3   OH225087   5.393   4.693   3.880 -0.6295 -0.1177 -0.3825
 1199TIP3    H125088   5.400   4.599   3.867  0.9259 -0.0748 -0.0543
 1199TIP3    H225089   5.463   4.714   3.941 -1.8480  1.0597  0.6921
 1200TIP3   OH225090   0.399   5.692  13.726 -0.2467  0.2527  0.3179
 1200TIP3    H125091   0.425   5.760  13.787  1.0191 -0.1692  0.2722
 1200TIP3    H225092   0.335   5.734  13.669  1.3245  1.7337 -0.4214
 1201TIP3   OH225093   0.292   0.397  12.874  0.0691  0.1262  0.0529
 1201TIP3    H125094   0.351   0.375  12.802  0.3671  0.5804  0.1575
 1201TIP3    H225095   0.283   0.316  12.924 -1.0964 -0.5405 -1.1638
 1202TIP3   OH225096   4.771   1.977  13.047 -0.5172  0.0705  0.8600
 1202TIP3    H125097   4.694   1.925  13.069 -0.9791  0.7932  0.9571
 1202TIP3    H225098   4.795   2.021  13.128  0.6689 -0.9873  1.1220
 1203TIP3   OH225099   6.431   1.329  15.556  0.0757  0.1091  0.3846
 1203TIP3    H125100   6.450   1.401  15.615  1.5884  0.1844 -0.1450
 1203TIP3    H225101   6.517   1.296  15.530 -0.5792 -1.2062 -0.2084
 1204TIP3   OH225102   5.858   5.198  12.504 -0.0294  0.1101 -0.4646
 1204TIP3    H125103   5.936   5.218  12.451 -0.1838 -0.1077 -0.7775
 1204TIP3    H225104   5.893   5.168  12.588  0.2200  1.9283  0.1311
 1205TIP3   OH225105   5.857   6.007   5.172  0.2054 -0.1795  0.2054
 1205TIP3    H125106   5.811   6.083   5.137  1.3506 -0.8096 -3.0862
 1205TIP3    H225107   5.790   5.939   5.181 -0.2426  0.2076 -0.1790
 1206TIP3   OH225108   2.257   6.643  13.727 -0.2581  0.1982 -0.4281
 1206TIP3    H125109   2.222   6.555  13.742 -1.4603  0.5456 -1.0873
 1206TIP3    H225110   2.287   6.642  13.636 -3.1275  1.3336 -1.4990
 1207TIP3   OH225111   5.163   6.517   3.227  0.5512 -0.1341 -0.0227
 1207TIP3    H125112   5.183   6.450   3.162  0.3499 -0.9768  0.7581
 1207TIP3    H225113   5.161   6.599   3.178 -0.3678 -0.8438 -1.2053
 1208TIP3   OH225114   5.072   0.892   1.108  0.3409 -0.2564  0.0355
 1208TIP3    H125115   5.058   0.857   1.195 -0.5071  1.6098  0.7082
 1208TIP3    H225116   5.017   0.839   1.050 -0.1130 -0.6634  0.8332
 1209TIP3   OH225117   3.346   1.768   2.427  0.0040  0.1317 -0.5770
 1209TIP3    H125118   3.350   1.680   2.390 -0.4269  0.1383 -0.6439
 1209TIP3    H225119   3.269   1.767   2.484  0.8947 -0.0085  0.6828
 1210TIP3   OH225120   3.995   4.555   3.028  0.6192  0.3383 -0.6217
 1210TIP3    H125121   4.007   4.607   2.949 -2.8959  0.9707 -0.8896
 1210TIP3    H225122   3.912   4.509   3.015  1.0479 -1.3310  1.7634
 1211TIP3   OH225123   0.414   3.884  14.735  0.4286 -0.4729  0.1504
 1211TIP3    H125124   0.368   3.853  14.813  1.6428  0.4080  1.2598
 1211TIP3    H225125   0.506   3.884  14.760  0.5903  3.6376  0.2134
 1212TIP3   OH225126   3.665   2.389   4.019 -0.4263 -0.2837  0.0123
 1212TIP3    H125127   3.639   2.324   4.085  0.8469 -2.8259 -1.7885
 1212TIP3    H225128   3.713   2.455   4.068 -2.0979 -0.4621  2.0084
 1213TIP3   OH225129   3.668   3.449   6.017  0.5695 -0.4190  0.3650
 1213TIP3    H125130   3.748   3.417   5.977  0.0974 -0.4473 -0.5722
 1213TIP3    H225131   3.626   3.371   6.053 -0.6002 -0.9288 -1.9486
 1214TIP3   OH225132   2.990   0.740  12.979  1.0344 -0.2753 -0.3422
 1214TIP3    H125133   2.951   0.686  12.910  1.8453 -0.5466 -0.6118
 1214TIP3    H225134   3.041   0.678  13.031 -0.3550 -0.2486  1.1238
 1215TIP3   OH225135   3.212   2.197   1.051  0.6508 -0.0753  0.2744
 1215TIP3    H125136   3.276   2.207   1.121  1.5686 -1.5538 -0.3141
 1215TIP3    H225137   3.130   2.177   1.096  0.3529  2.5774  1.0757
 1216TIP3   OH225138   2.002   4.292  11.395  0.1757  0.6501  0.0151
 1216TIP3    H125139   1.951   4.286  11.314  0.7872  1.2602 -0.4295
 1216TIP3    H225140   2.076   4.348  11.372  1.0544 -0.2160  0.6311
 1217TIP3   OH225141   1.637   2.509  12.024  0.6758  0.2446 -0.1415
 1217TIP3    H125142   1.576   2.532  12.095  0.8758 -0.1993  0.1711
 1217TIP3    H225143   1.608   2.564  11.950 -0.0403  0.1181  0.0353
 1218TIP3   OH225144   2.650   5.137   0.010 -0.0445 -0.0949 -0.2208
 1218TIP3    H125145   2.654   5.214   0.067  1.2346 -0.2633 -0.0563
 1218TIP3    H225146   2.704   5.160  -0.065  0.5344 -0.9136 -0.0633
 1219TIP3   OH225147   4.893   3.801  12.373 -0.2191  0.2696  0.0633
 1219TIP3    H125148   4.974   3.847  12.396 -0.0076 -0.1003  0.0658
 1219TIP3    H225149   4.857   3.770  12.456  0.5718 -1.1100 -0.0666
 1220TIP3   OH225150   2.726   1.466  11.417  0.1694 -0.3860  0.1563
 1220TIP3    H125151   2.709   1.514  11.336  1.6938 -0.8381 -0.4610
 1220TIP3    H225152   2.677   1.384  11.407  0.6372 -0.6000 -0.4973
 1221TIP3   OH225153   6.570   6.217  15.422  0.6265 -0.8566 -0.2654
 1221TIP3    H125154   6.517   6.281  15.375 -0.0280 -0.2231  1.2434
 1221TIP3    H225155   6.578   6.143  15.363 -2.5088 -1.2518 -0.3586
 1222TIP3   OH225156   6.028   0.943   1.882  0.6963  0.6897  0.0353
 1222TIP3    H125157   6.010   0.864   1.831  2.7355 -0.4126  0.8777
 1222TIP3    H225158   6.031   1.013   1.818  1.0212 -0.2834 -1.0488
 1223TIP3   OH225159   3.666   5.226   4.616  0.2559  0.1701  0.2888
 1223TIP3    H125160   3.755   5.243   4.583 -0.6748  1.0040 -1.9340
 1223TIP3    H225161   3.612   5.295   4.577 -1.3854 -0.2402  1.7018
 1224TIP3   OH225162   5.399   3.410  12.372  0.4328 -0.4821 -0.2374
 1224TIP3    H125163   5.361   3.496  12.354 -0.3413 -0.8840 -0.5555
 1224TIP3    H225164   5.361   3.384  12.456  2.1545  0.3132  0.8547
 1225TIP3   OH225165   4.291   3.248  11.235  0.3219  0.5453  0.1154
 1225TIP3    H125166   4.251   3.332  11.213 -0.9365  0.0499  0.3951
 1225TIP3    H225167   4.270   3.191  11.160  1.0570  0.4404 -0.0158
 1226TIP3   OH225168   0.331   0.030   5.436 -0.3299  0.5401  0.1598
 1226TIP3    H125169   0.323   0.032   5.532 -1.1808 -1.0549  0.1558
 1226TIP3    H225170   0.242   0.015   5.405  0.3764 -2.6283 -0.6697
 1227TIP3   OH225171   5.977   4.725  12.697  0.2767 -0.7221 -0.7602
 1227TIP3    H125172   6.068   4.751  12.713  0.0958 -1.0423  1.0535
 1227TIP3    H225173   5.983   4.637  12.660  0.7210 -0.5837 -1.0194
 1228TIP3   OH225174   6.423   6.797   2.392 -0.5202  0.7686 -0.4828
 1228TIP3    H125175   6.491   6.765   2.333 -0.3828  0.6553 -0.2604
 1228TIP3    H225176   6.343   6.753   2.362  0.1164 -1.9955  1.5482
 1229TIP3   OH225177   2.465   4.327   2.529  0.5256 -0.1786  0.0880
 1229TIP3    H125178   2.420   4.278   2.597  0.5561 -0.3117  0.0124
 1229TIP3    H225179   2.447   4.279   2.448  0.5366 -0.0534  0.0103
 1230TIP3   OH225180   6.749   2.211  13.159  0.1262  0.4565 -0.0375
 1230TIP3    H125181   6.798   2.214  13.077 -1.4142  0.2497 -1.0176
 1230TIP3    H225182   6.723   2.119  13.168  0.9081  0.3324  1.0835
 1231TIP3   OH225183   4.323   2.700  13.320 -0.2634  0.3152  0.2365
 1231TIP3    H125184   4.391   2.764  13.341 -0.2687  0.3726  0.0793
 1231TIP3    H225185   4.241   2.748  13.325 -0.8964 -0.6985  5.1704
 1232TIP3   OH225186   4.937   1.704   3.475  0.4116 -0.0865  0.3343
 1232TIP3    H125187   5.024   1.715   3.512  0.1712 -0.0903  0.9113
 1232TIP3    H225188   4.877   1.727   3.546 -0.0606 -0.4257  0.0560
 1233TIP3   OH225189   6.733   6.254  14.326  0.1713  0.1743  0.1386
 1233TIP3    H125190   6.827   6.265  14.316 -0.1512  1.6936 -1.9905
 1233TIP3    H225191   6.708   6.193  14.256 -0.7187  1.9037 -1.1276
 1234TIP3   OH225192   6.546   4.841   3.203  0.2010 -0.0522  0.4648
 1234TIP3    H125193   6.522   4.907   3.269  1.4245 -0.2798  1.1639
 1234TIP3    H225194   6.462   4.816   3.164 -0.5856 -0.0131  2.0340
 1235TIP3   OH225195   3.757   0.416   2.241 -0.3029 -0.2096  0.3092
 1235TIP3    H125196   3.699   0.340   2.247 -1.7809  0.8663  0.2262
 1235TIP3    H225197   3.783   0.433   2.332 -0.5661 -0.3677  0.4174
 1236TIP3   OH225198   3.203   4.880   3.782  0.3858 -0.4972  0.3745
 1236TIP3    H125199   3.186   4.881   3.876 -0.3379 -1.3783  0.2667
 1236TIP3    H225200   3.134   4.824   3.746 -0.2250  0.9838 -0.8632
 1237TIP3   OH225201   4.506   1.381  14.026  0.5605  0.2304  0.1317
 1237TIP3    H125202   4.479   1.291  14.007  0.0745  0.2719  0.5777
 1237TIP3    H225203   4.511   1.384  14.121 -1.0436  1.1055  0.2268
 1238TIP3   OH225204   5.654   3.792   3.775  0.1914 -0.5405  0.7663
 1238TIP3    H125205   5.582   3.761   3.719 -0.0998  0.0422  0.8184
 1238TIP3    H225206   5.697   3.711   3.805  2.2126 -0.9474 -2.6623
 1239TIP3   OH225207   6.491   5.921   4.784  0.2892  0.1650 -0.2623
 1239TIP3    H125208   6.538   5.838   4.789  1.1944  0.6463 -0.4511
 1239TIP3    H225209   6.402   5.900   4.809  0.4520 -0.9080 -0.5261
 1240TIP3   OH225210   2.384   2.822  12.162  0.6269  0.0612 -0.4565
 1240TIP3    H125211   2.428   2.885  12.107 -0.2684  0.6588 -0.5079
 1240TIP3    H225212   2.392   2.857  12.251  0.1167  0.2619 -0.4867
 1241TIP3   OH225213   5.578   6.045   2.781 -0.1961  0.0918 -0.2535
 1241TIP3    H125214   5.642   5.993   2.830  0.2775  0.3493 -0.5915
 1241TIP3    H225215   5.595   6.136   2.809 -0.7433  0.1110  0.0249
 1242TIP3   OH225216   0.648   5.417  14.843  0.0787  1.1716  0.2656
 1242TIP3    H125217   0.621   5.343  14.898  1.6776 -0.4180 -0.9260
 1242TIP3    H225218   0.583   5.420  14.773  1.0482 -0.5100 -0.7971
 1243TIP3   OH225219   1.966   1.010   4.228  0.4097  0.0527 -0.3760
 1243TIP3    H125220   1.881   0.976   4.253  1.4150 -1.0023  1.7970
 1243TIP3    H225221   1.988   1.074   4.296  1.4000  0.2422 -0.8472
 1244TIP3   OH225222   2.645   2.170   0.658 -0.3096  0.2290 -0.0332
 1244TIP3    H125223   2.700   2.109   0.609 -1.1142  0.9350 -1.9170
 1244TIP3    H225224   2.694   2.188   0.738  1.7693  0.1316 -1.2198
 1245TIP3   OH225225   2.181   4.972   0.813  0.3016  0.0702  0.5819
 1245TIP3    H125226   2.231   4.896   0.784  0.0621  0.2727 -0.4096
 1245TIP3    H225227   2.209   5.042   0.755  2.9321  1.6565  3.4288
 1246TIP3   OH225228   0.957   5.449   5.553  0.1535 -0.2402 -0.0114
 1246TIP3    H125229   0.972   5.497   5.634  0.7878 -0.5348  0.0545
 1246TIP3    H225230   0.905   5.508   5.499 -0.2619 -0.0382  0.6045
 1247TIP3   OH225231   2.881   0.270  10.678  0.1513 -0.1426  0.1351
 1247TIP3    H125232   2.827   0.349  10.670 -0.5982 -0.7328 -1.0358
 1247TIP3    H225233   2.965   0.301  10.712 -0.2458  1.1048  0.0249
 1248TIP3   OH225234   4.207   4.690  11.942  0.4839 -0.2669 -0.1717
 1248TIP3    H125235   4.216   4.775  11.899 -0.2772  0.4664  1.0599
 1248TIP3    H225236   4.117   4.689  11.975 -0.3915 -2.5845 -2.2828
 1249TIP3   OH225237   5.051   5.659   3.835  0.6255  0.0378  0.3902
 1249TIP3    H125238   5.065   5.724   3.766  1.0796 -1.3131 -0.8452
 1249TIP3    H225239   4.956   5.658   3.848  0.2894 -1.0027 -1.6328
 1250TIP3   OH225240   5.509   2.786  16.639  0.0085 -0.4163 -0.3550
 1250TIP3    H125241   5.467   2.700  16.630  0.1833 -0.5407  0.0002
 1250TIP3    H225242   5.437   2.849  16.633 -0.2244 -0.6257  0.1946
 1251TIP3   OH225243   0.314   5.597  10.967 -0.2713 -0.1467  0.1571
 1251TIP3    H125244   0.381   5.641  10.914 -1.2262 -1.6559 -2.5381
 1251TIP3    H225245   0.234   5.648  10.951 -0.6606 -0.8666 -0.2525
 1252TIP3   OH225246   1.748   4.290  16.584 -0.2810  0.1072 -0.2822
 1252TIP3    H125247   1.806   4.348  16.535  0.6277 -0.4731  0.0870
 1252TIP3    H225248   1.767   4.308  16.676 -0.7809  0.0053 -0.1578
 1253TIP3   OH225249   4.839   0.804   2.514 -1.0700 -0.0073 -0.1890
 1253TIP3    H125250   4.887   0.812   2.597 -0.5707 -1.1008 -0.3590
 1253TIP3    H225251   4.804   0.715   2.515  0.7126 -0.8036 -2.0689
 1254TIP3   OH225252   3.272   1.067  11.235 -0.3171  0.5858  0.4323
 1254TIP3    H125253   3.206   1.031  11.294 -1.3201 -0.4820 -1.2636
 1254TIP3    H225254   3.264   1.015  11.154  1.3257  1.6602 -0.4934
 1255TIP3   OH225255   1.170   0.971  11.911 -0.1779  0.0874 -0.2970
 1255TIP3    H125256   1.106   1.020  11.860  0.3655  2.5205  1.1962
 1255TIP3    H225257   1.131   0.885  11.923 -0.9594 -0.1044 -3.4894
 1256TIP3   OH225258   0.354   1.736  16.044  0.0727  0.3418 -0.3789
 1256TIP3    H125259   0.346   1.797  16.117 -0.9609  0.0808 -0.2526
 1256TIP3    H225260   0.266   1.699  16.034  0.5683 -0.7778 -0.7567
 1257TIP3   OH225261   3.885   5.026  15.469  0.7985 -0.6597  0.9980
 1257TIP3    H125262   3.873   4.962  15.539 -0.0621  0.2643  1.7074
 1257TIP3    H225263   3.835   4.991  15.395  0.2473 -0.7491  1.4151
 1258TIP3   OH225264   5.827   0.642  10.793 -0.4470  0.6948 -0.9022
 1258TIP3    H125265   5.772   0.719  10.811  0.5155  1.1215  0.4471
 1258TIP3    H225266   5.766   0.573  10.769 -1.4880  1.4215 -0.4152
 1259TIP3   OH225267   5.970   0.775  13.601  0.7164 -0.4455  0.7233
 1259TIP3    H125268   5.978   0.870  13.604 -0.4679 -0.3143  0.3424
 1259TIP3    H225269   6.032   0.748  13.533  0.7273  0.1031  0.5107
 1260TIP3   OH225270   1.623   1.546  10.462 -0.3275  0.5361 -0.0596
 1260TIP3    H125271   1.549   1.491  10.489  0.1432  0.6401  1.5465
 1260TIP3    H225272   1.696   1.486  10.453 -0.0159  0.7709  0.8543
 1261TIP3   OH225273   2.654   2.631  13.204 -0.0427  0.1159  0.7043
 1261TIP3    H125274   2.627   2.610  13.114  1.0662 -0.2736  0.4468
 1261TIP3    H225275   2.573   2.625  13.255 -0.6674  0.1852 -0.2291
 1262TIP3   OH225276   2.801   4.047   3.065 -0.6179  0.4463  0.1247
 1262TIP3    H125277   2.834   4.107   3.132  0.0913 -0.5634  0.6948
 1262TIP3    H225278   2.825   4.089   2.982 -0.2602  1.0268  0.5120
 1263TIP3   OH225279   5.473   1.733  14.486  0.0507 -0.0986 -0.2000
 1263TIP3    H125280   5.480   1.691  14.571 -1.7247 -0.8111 -0.3656
 1263TIP3    H225281   5.443   1.664  14.427  0.7904  0.4975 -1.3173
 1264TIP3   OH225282   1.320   4.867   5.349  0.7443  0.0639 -0.0643
 1264TIP3    H125283   1.279   4.912   5.276  0.9456 -0.3384 -0.4287
 1264TIP3    H225284   1.411   4.856   5.322  0.8479  0.0229  0.2973
 1265TIP3   OH225285   6.460   3.140   1.470 -0.1620  0.1299 -0.0071
 1265TIP3    H125286   6.497   3.187   1.544  1.0565 -0.7969  0.0140
 1265TIP3    H225287   6.377   3.184   1.452  0.1926  1.2557  0.9946
 1266TIP3   OH225288   4.786   0.989  12.204  0.0588  0.7461 -0.3024
 1266TIP3    H125289   4.781   1.034  12.119 -1.0197 -1.8070 -1.6967
 1266TIP3    H225290   4.771   0.897  12.183  0.6452 -0.0978  2.5952
 1267TIP3   OH225291   3.902   2.058   5.012 -0.3050  0.3119 -0.2423
 1267TIP3    H125292   3.925   1.965   5.014 -0.3799  0.2728  2.5322
 1267TIP3    H225293   3.980   2.102   4.978  0.1163 -0.6746 -0.5784
 1268TIP3   OH225294   6.543   4.380   0.535  0.3546  0.2963 -0.5732
 1268TIP3    H125295   6.522   4.441   0.465 -0.0074  0.4030 -0.3787
 1268TIP3    H225296   6.460   4.370   0.583  0.5653  0.1269 -0.2417
 1269TIP3   OH225297   2.772   4.966   5.344 -0.0476 -0.3514  0.4284
 1269TIP3    H125298   2.858   4.974   5.301  1.0972 -1.2199  2.4324
 1269TIP3    H225299   2.711   5.005   5.281  1.7822  0.2515 -1.0965
 1270TIP3   OH225300   0.194   5.382  10.818  0.0094  0.3644  0.2696
 1270TIP3    H125301   0.222   5.452  10.878  1.4157 -0.0886  0.1828
 1270TIP3    H225302   0.181   5.425  10.734  1.4774  0.4515  0.0647
 1271TIP3   OH225303   5.595   6.106  13.375 -0.1768 -0.5937 -0.4896
 1271TIP3    H125304   5.582   6.201  13.366 -1.1678 -0.7678 -1.0215
 1271TIP3    H225305   5.568   6.087  13.465 -0.4954 -0.4481 -0.5518
 1272TIP3   OH225306   3.441   1.237   5.787  0.4270 -0.0613  0.1418
 1272TIP3    H125307   3.461   1.267   5.699  0.3375 -1.3564 -0.3296
 1272TIP3    H225308   3.526   1.212   5.824  0.3880 -0.0820  0.2176
 1273TIP3   OH225309   2.780   0.593   0.212  0.2145  0.2574  0.1593
 1273TIP3    H125310   2.753   0.511   0.170 -0.2395  1.0394 -1.1208
 1273TIP3    H225311   2.873   0.601   0.191  0.3304 -0.0690  0.5357
 1274TIP3   OH225312   6.022   5.779   2.574  0.7365  0.3458  0.0143
 1274TIP3    H125313   6.010   5.712   2.642  0.1359 -0.1939 -0.6010
 1274TIP3    H225314   6.039   5.729   2.495  0.0294  0.9100 -0.5042
 1275TIP3   OH225315   1.788   2.705  12.212  0.0922 -0.0451  0.1503
 1275TIP3    H125316   1.872   2.729  12.250 -0.0202 -1.0854  1.0927
 1275TIP3    H225317   1.809   2.676  12.123  1.0126 -2.0888  0.9899
 1276TIP3   OH225318   4.721   2.307  12.845  0.0495  0.2813 -0.2132
 1276TIP3    H125319   4.764   2.228  12.812  1.4924  0.4289  1.2159
 1276TIP3    H225320   4.712   2.363  12.767  0.4149 -0.6633 -0.9569
 1277TIP3   OH225321   4.365   6.526  16.091  0.6166  0.4251  0.8529
 1277TIP3    H125322   4.423   6.600  16.110  1.0259 -0.0284  1.3938
 1277TIP3    H225323   4.329   6.501  16.176  0.6229 -0.1185  0.6987
 1278TIP3   OH225324   5.158   2.423  11.334  0.1916  0.5279 -0.3205
 1278TIP3    H125325   5.133   2.505  11.376 -1.6705 -0.3858  0.5089
 1278TIP3    H225326   5.170   2.445  11.242  1.5559  2.0477  0.1764
 1279TIP3   OH225327   2.881   6.792   2.977  0.0184  0.2037 -0.1033
 1279TIP3    H125328   2.823   6.740   3.033  1.5826 -1.6964 -0.1580
 1279TIP3    H225329   2.889   6.741   2.897  0.6617  1.1406 -0.6551
 1280TIP3   OH225330   3.626   4.682  15.520  0.1714 -0.2229  0.2374
 1280TIP3    H125331   3.548   4.700  15.574 -0.5010 -1.0384 -0.4307
 1280TIP3    H225332   3.620   4.589  15.501  1.3984 -0.3208  0.2759
 1281TIP3   OH225333   0.761   6.215   2.927 -0.0063  0.3646 -0.3267
 1281TIP3    H125334   0.707   6.276   2.977 -1.3553 -0.9532 -0.1037
 1281TIP3    H225335   0.843   6.210   2.975 -0.1427  1.4549  0.0385
 1282TIP3   OH225336   5.102   0.591   3.996 -0.2677 -0.3789 -0.4230
 1282TIP3    H125337   5.195   0.584   3.976  0.1794 -0.9881  1.6127
 1282TIP3    H225338   5.089   0.683   4.020 -0.8554  0.4111 -3.4187
 1283TIP3   OH225339   3.699   5.981  16.802 -0.1925  0.0512  0.0709
 1283TIP3    H125340   3.695   6.055  16.863 -0.1219  0.2862 -0.2103
 1283TIP3    H225341   3.761   5.920  16.843 -0.2305  0.1582  0.2911
 1284TIP3   OH225342   5.971   3.749  16.902 -0.5362 -0.0645 -0.1210
 1284TIP3    H125343   5.998   3.698  16.825 -0.0005 -0.1973  0.1492
 1284TIP3    H225344   6.049   3.800  16.925 -0.8775  0.4131 -0.0133
 1285TIP3   OH225345   6.801   6.535   4.013 -0.6080 -0.4406 -0.0578
 1285TIP3    H125346   6.813   6.475   4.088  1.0872  0.4946  0.4827
 1285TIP3    H225347   6.724   6.586   4.036 -0.6513 -0.7896  0.6290
 1286TIP3   OH225348   0.477   3.823   0.762 -0.4378 -0.3944 -0.2512
 1286TIP3    H125349   0.486   3.797   0.670 -0.3763 -0.0600 -0.3405
 1286TIP3    H225350   0.526   3.756   0.810  1.2784  0.5349 -0.6144
 1287TIP3   OH225351   5.777   5.098   1.047 -0.4227 -0.1898 -0.0451
 1287TIP3    H125352   5.748   5.131   0.962  0.6052  0.0297 -0.3231
 1287TIP3    H225353   5.842   5.031   1.027  1.3319  1.2524  0.5382
 1288TIP3   OH225354   0.981   6.588   0.579 -0.0974  0.4270 -0.1606
 1288TIP3    H125355   1.003   6.495   0.566  0.8906  0.6393 -0.1313
 1288TIP3    H225356   0.888   6.588   0.599 -0.3234 -0.4801 -1.1009
 1289TIP3   OH225357   4.214   3.618   2.368 -0.1663  0.1834 -0.2478
 1289TIP3    H125358   4.290   3.627   2.426 -0.9202  0.3863  0.7460
 1289TIP3    H225359   4.183   3.529   2.382 -0.3005  0.2043 -0.4074
 1290TIP3   OH225360   0.873   6.274  14.592 -0.3976 -0.0912  0.3842
 1290TIP3    H125361   0.838   6.363  14.594 -3.5141 -1.0426 -1.8867
 1290TIP3    H225362   0.811   6.223  14.644  0.6725 -1.1343  0.6859
 1291TIP3   OH225363   6.442   3.607   5.010 -0.0389 -0.1975 -0.0225
 1291TIP3    H125364   6.363   3.577   5.055  1.2922 -0.7997  2.0578
 1291TIP3    H225365   6.434   3.703   5.010 -0.2379 -0.1963  1.2422
 1292TIP3   OH225366   2.175   0.208   1.551 -0.2686  0.0363 -0.6508
 1292TIP3    H125367   2.208   0.275   1.611 -0.0527  0.4541 -1.2365
 1292TIP3    H225368   2.163   0.253   1.468 -2.5923 -0.0245 -0.4027
 1293TIP3   OH225369   3.118   4.036  11.601 -0.2958  0.3785 -0.3753
 1293TIP3    H125370   3.152   3.990  11.524  1.3484 -0.7135  0.9350
 1293TIP3    H225371   3.052   3.976  11.638  1.5235 -0.8570  1.0728
 1294TIP3   OH225372   4.255   0.809  13.195 -0.1150 -0.7167  0.3341
 1294TIP3    H125373   4.223   0.830  13.283  0.5695 -0.9609  0.6500
 1294TIP3    H225374   4.195   0.855  13.136  1.4106  2.3768  0.9818
 1295TIP3   OH225375   5.591   6.573   2.330  0.6637  0.0125 -0.5237
 1295TIP3    H125376   5.569   6.480   2.322  0.8538 -0.2269  1.3806
 1295TIP3    H225377   5.511   6.614   2.363  1.1991  0.1487  0.6536
 1296TIP3   OH225378   0.631   3.238  15.002  0.2724  0.2085  0.3132
 1296TIP3    H125379   0.687   3.247  14.925  0.0740  1.6296  0.3058
 1296TIP3    H225380   0.560   3.301  14.987  1.4495  2.2816  2.6655
 1297TIP3   OH225381   5.287   4.732   1.379  0.2672 -0.3715  0.0297
 1297TIP3    H125382   5.254   4.821   1.393  2.8693  0.6024  0.5426
 1297TIP3    H225383   5.210   4.676   1.388 -1.2322  1.7246  0.9667
 1298TIP3   OH225384   2.022   3.132   5.185 -0.3871  0.2234  0.1658
 1298TIP3    H125385   2.048   3.053   5.233 -0.9253  0.5463  1.0107
 1298TIP3    H225386   2.025   3.202   5.250 -0.4496  0.8084 -0.4436
 1299TIP3   OH225387   1.154   3.108   4.763 -0.6482  0.5839 -0.7598
 1299TIP3    H125388   1.129   3.200   4.748 -0.6297  0.8423  0.6852
 1299TIP3    H225389   1.213   3.111   4.839 -0.5195 -0.6166 -0.7925
 1300TIP3   OH225390   3.747   2.409  13.357 -0.0892 -0.2859 -0.2225
 1300TIP3    H125391   3.744   2.455  13.273 -0.5980  0.2624  0.0927
 1300TIP3    H225392   3.835   2.370  13.359  0.6580  1.3123 -0.1573
 1301TIP3   OH225393   4.254   0.398   6.125  0.4477  0.4022 -0.2171
 1301TIP3    H125394   4.175   0.346   6.137  0.2529  0.8366  0.3954
 1301TIP3    H225395   4.321   0.334   6.101  0.0018 -0.0145 -0.3587
 1302TIP3   OH225396   6.207   3.274  14.040 -0.0096  0.2310  0.0169
 1302TIP3    H125397   6.142   3.206  14.023 -0.3323  0.7685 -0.9071
 1302TIP3    H225398   6.162   3.338  14.095 -0.2293  0.5525 -0.5385
 1303TIP3   OH225399   4.266   3.469   6.559 -0.7679 -0.2059  0.3678
 1303TIP3    H125400   4.266   3.562   6.535 -0.3554 -0.4102 -0.4552
 1303TIP3    H225401   4.356   3.452   6.588 -1.1834 -0.0366  1.8116
 1304TIP3   OH225402   6.686   2.320  15.910  0.4181  0.0779 -0.1654
 1304TIP3    H125403   6.681   2.415  15.896 -0.7888  0.2641  1.3348
 1304TIP3    H225404   6.760   2.293  15.856  1.7291  2.0889  0.4930
 1305TIP3   OH225405   5.988   6.592   3.448  0.0641 -0.0914 -0.2164
 1305TIP3    H125406   5.951   6.652   3.513  1.1940 -1.3574  1.6948
 1305TIP3    H225407   5.915   6.537   3.421 -1.0521  2.1507 -2.1739
 1306TIP3   OH225408   3.893   1.391   1.516 -0.4615  0.4870 -0.4940
 1306TIP3    H125409   3.872   1.302   1.491  1.1878  0.1154 -0.6933
 1306TIP3    H225410   3.899   1.388   1.612 -1.1468  0.5632 -0.4479
 1307TIP3   OH225411   5.815   0.595  12.725 -0.0143  0.8884 -0.3093
 1307TIP3    H125412   5.756   0.640  12.785 -0.7503  0.7248 -0.8992
 1307TIP3    H225413   5.757   0.548  12.664  0.7089 -0.9250  0.3260
 1308TIP3   OH225414   0.507   5.156   3.205  0.1499  0.5133 -0.1165
 1308TIP3    H125415   0.507   5.158   3.109 -0.6201  0.8110 -0.1178
 1308TIP3    H225416   0.592   5.118   3.228  1.0195  1.9155 -0.8770
 1309TIP3   OH225417   2.864   2.626   3.196  0.4772  0.0800 -0.1142
 1309TIP3    H125418   2.958   2.644   3.188  0.4917  0.1601  0.2111
 1309TIP3    H225419   2.826   2.666   3.119  0.4118  2.2978  0.9853
 1310TIP3   OH225420   0.696   0.537   5.547 -0.4055 -0.2003  0.2806
 1310TIP3    H125421   0.747   0.482   5.605  0.5364  0.5147  0.1526
 1310TIP3    H225422   0.624   0.569   5.601 -0.2179 -0.5076  0.7126
 1311TIP3   OH225423   0.567   5.707  15.037  0.0801 -0.2238  0.6850
 1311TIP3    H125424   0.570   5.620  14.996 -1.1401  1.2128 -2.8452
 1311TIP3    H225425   0.654   5.718  15.075  0.3500 -2.8413  1.0004
 1312TIP3   OH225426   3.564   0.461  14.321 -0.8615 -0.6608 -0.1860
 1312TIP3    H125427   3.609   0.383  14.352  0.6795 -0.7167 -2.3035
 1312TIP3    H225428   3.611   0.534  14.362  0.2574 -0.7677 -1.2339
 1313TIP3   OH225429   2.683   6.645   3.098 -0.1880  0.6411  0.1802
 1313TIP3    H125430   2.714   6.555   3.102 -1.7058  0.1382  1.5193
 1313TIP3    H225431   2.588   6.639   3.109 -0.1299  2.4872  2.6454
 1314TIP3   OH225432   0.210   1.415   5.663 -0.1411 -0.1436  0.8175
 1314TIP3    H125433   0.198   1.509   5.677  0.1206 -0.3867  2.9343
 1314TIP3    H225434   0.277   1.389   5.727 -0.0939 -1.7445  0.1689
 1315TIP3   OH225435   4.094   1.318  13.115  0.3647  0.1704 -0.4003
 1315TIP3    H125436   4.181   1.299  13.080  1.0769  1.5840  0.5054
 1315TIP3    H225437   4.093   1.413  13.127 -1.7592  0.3718 -1.5153
 1316TIP3   OH225438   6.144   6.332   1.596  0.0211  0.7797  0.0155
 1316TIP3    H125439   6.057   6.293   1.587 -0.3341  1.4673  0.4841
 1316TIP3    H225440   6.131   6.409   1.650  0.6392  1.8462 -1.3036
 1317TIP3   OH225441   4.545   6.146   3.747  0.2087 -0.3050 -0.1302
 1317TIP3    H125442   4.527   6.112   3.660  1.4002  0.4419 -0.6935
 1317TIP3    H225443   4.626   6.197   3.737  0.8985 -0.9607  1.5912
 1318TIP3   OH225444   4.652   2.801   5.044 -0.1874  0.3417  0.0166
 1318TIP3    H125445   4.636   2.721   4.994  1.8621 -0.0634 -0.0828
 1318TIP3    H225446   4.650   2.870   4.979 -1.6981  0.3702  0.0606
 1319TIP3   OH225447   2.893   3.686  15.647 -0.0379 -0.0626 -0.6592
 1319TIP3    H125448   2.941   3.758  15.687 -1.1506 -0.9726  2.6259
 1319TIP3    H225449   2.960   3.623  15.622  0.7346 -0.4594  2.0581
 1320TIP3   OH225450   2.903   2.658   2.451  0.2062 -0.2933  0.4261
 1320TIP3    H125451   2.995   2.677   2.466  0.7078 -1.5533 -0.7663
 1320TIP3    H225452   2.877   2.601   2.524  0.9948 -1.6575 -0.3098
 1321TIP3   OH225453   6.011   4.689  17.229  0.0327 -0.5090  0.3512
 1321TIP3    H125454   5.989   4.776  17.262 -1.7340 -0.8268  0.1120
 1321TIP3    H225455   6.004   4.696  17.134 -0.0225 -0.8853  0.3245
 1322TIP3   OH225456   0.277   0.069   0.812 -0.5123 -0.6811 -0.4242
 1322TIP3    H125457   0.193   0.061   0.857 -0.6460  0.3072 -0.4816
 1322TIP3    H225458   0.269   0.151   0.762  1.4951  0.9067  1.7009
 1323TIP3   OH225459   5.992   1.083  16.037 -0.0025 -0.1128 -0.0064
 1323TIP3    H125460   5.914   1.116  16.081 -0.7368 -0.9482 -0.6462
 1323TIP3    H225461   6.058   1.151  16.051 -0.7737  0.5008  0.7380
 1324TIP3   OH225462   4.455   4.893   3.020 -0.2069  0.8514  0.2778
 1324TIP3    H125463   4.525   4.940   2.974  0.5831  0.4559  1.0446
 1324TIP3    H225464   4.496   4.812   3.050 -1.4249 -0.1288 -0.6050
 1325TIP3   OH225465   6.746   6.392   2.793  0.6664  0.1770  0.1686
 1325TIP3    H125466   6.792   6.472   2.820  1.0537 -0.4657  1.4675
 1325TIP3    H225467   6.704   6.360   2.873  0.6584 -1.0207 -0.3009
 1326TIP3   OH225468   5.340   1.210  13.748 -0.0940 -0.4588 -0.1858
 1326TIP3    H125469   5.272   1.266  13.711  1.1914  0.2316 -1.6686
 1326TIP3    H225470   5.420   1.239  13.704  1.2838 -0.7743  1.9727
 1327TIP3   OH225471   5.504   0.495   5.644  0.3675 -0.2174  0.5077
 1327TIP3    H125472   5.409   0.505   5.642  0.4700  1.3183  1.5882
 1327TIP3    H225473   5.519   0.404   5.620 -1.4092 -0.6421  0.8655
 1328TIP3   OH225474   4.989   3.847  14.431 -0.0319  0.2437 -0.6162
 1328TIP3    H125475   4.998   3.883  14.343  1.0187 -1.5691 -1.2980
 1328TIP3    H225476   5.079   3.841  14.463 -0.1819 -1.5425 -0.4704
 1329TIP3   OH225477   3.160   3.291   5.765  0.0964 -0.0560 -0.1060
 1329TIP3    H125478   3.222   3.337   5.822 -0.2979 -0.2667  0.5058
 1329TIP3    H225479   3.214   3.232   5.712  0.6876  1.5534 -1.3747
 1330TIP3   OH225480   6.246   1.748   5.244  0.4840  0.4938  0.5729
 1330TIP3    H125481   6.162   1.792   5.237  0.2289  0.0516  0.7966
 1330TIP3    H225482   6.233   1.663   5.202  0.5441  0.0588  1.4022
 1331TIP3   OH225483   5.022   5.423   3.086 -0.6056  0.6539  0.4814
 1331TIP3    H125484   5.032   5.353   3.021 -2.0406 -0.3059  1.2205
 1331TIP3    H225485   4.944   5.470   3.059 -1.0689  0.4054  1.3464
 1332TIP3   OH225486   1.225   4.246  12.825 -0.0244 -0.3009 -0.0505
 1332TIP3    H125487   1.223   4.315  12.759  1.7011  0.6790  0.8278
 1332TIP3    H225488   1.133   4.225  12.841 -0.5212  0.3712 -1.7782
 1333TIP3   OH225489   5.348   6.144  16.235  0.4676 -0.0996 -0.1046
 1333TIP3    H125490   5.303   6.154  16.320  0.8621 -1.4764  0.2852
 1333TIP3    H225491   5.279   6.114  16.176  0.2776  0.4782 -0.1812
 1334TIP3   OH225492   4.223   2.472   2.293  0.2089 -0.6587  0.2031
 1334TIP3    H125493   4.311   2.484   2.256 -0.6539  0.8487 -1.5196
 1334TIP3    H225494   4.170   2.439   2.220 -0.8489 -0.7261  0.9761
 1335TIP3   OH225495   6.533   4.619  16.065  0.1686 -0.1457 -0.3310
 1335TIP3    H125496   6.485   4.599  16.146  1.4690  0.1610  0.5341
 1335TIP3    H225497   6.497   4.558  16.001 -0.0588 -1.2176  0.7837
 1336TIP3   OH225498   4.061   6.527   2.768  0.2733  0.1782  0.3061
 1336TIP3    H125499   4.133   6.590   2.770  0.7356 -0.2621 -1.1459
 1336TIP3    H225500   4.105   6.443   2.752 -0.5581 -0.0925 -0.6241
 1337TIP3   OH225501   5.161   6.212  16.456  0.3018 -0.4952 -0.3096
 1337TIP3    H125502   5.211   6.262  16.519  0.1237 -1.0617  0.2947
 1337TIP3    H225503   5.121   6.142  16.507 -1.2443  0.0362 -0.7381
 1338TIP3   OH225504   1.098   3.414   1.354  0.2789  0.4398  0.0257
 1338TIP3    H125505   1.063   3.483   1.298 -2.1261  0.3006  1.2744
 1338TIP3    H225506   1.096   3.450   1.442 -0.3903 -0.9574  0.6209
 1339TIP3   OH225507   3.962   4.800   1.753 -0.4511  0.3572 -0.1406
 1339TIP3    H125508   4.036   4.794   1.694  0.4585  0.0770  0.9998
 1339TIP3    H225509   3.894   4.846   1.702  0.1786 -0.1525 -1.4847
 1340TIP3   OH225510   3.071   0.286   0.099 -0.1504 -0.3315 -0.2840
 1340TIP3    H125511   3.108   0.368   0.066  1.4699 -0.1587  1.7671
 1340TIP3    H225512   2.976   0.299   0.094  0.0314  2.2415  1.1518
 1341TIP3   OH225513   5.875   4.104   3.695  0.1598 -0.2351  0.0706
 1341TIP3    H125514   5.871   4.199   3.689  0.2631 -0.3045 -1.3869
 1341TIP3    H225515   5.833   4.073   3.615  0.4962 -1.4144  0.3302
 1342TIP3   OH225516   3.266   0.219  13.481  0.5682  0.0478 -0.5071
 1342TIP3    H125517   3.349   0.191  13.517  0.0843 -1.3246 -0.3803
 1342TIP3    H225518   3.225   0.270  13.550  0.1459 -1.5803  0.4997
 1343TIP3   OH225519   6.189   1.133  11.713  0.4860 -0.4771  0.3232
 1343TIP3    H125520   6.207   1.123  11.619  1.4080 -0.8341  0.5269
 1343TIP3    H225521   6.275   1.147  11.752  0.1645 -0.8508  1.1769
 1344TIP3   OH225522   4.929   5.135   3.793 -0.5136  0.3038  0.4254
 1344TIP3    H125523   4.952   5.202   3.857  0.0764 -0.4245  0.9931
 1344TIP3    H225524   4.989   5.063   3.811  0.3283  0.4256 -1.5288
 1345TIP3   OH225525   5.213   0.275  16.999 -0.0297  0.1639 -0.0888
 1345TIP3    H125526   5.237   0.364  17.022  0.2018  0.5609 -1.7499
 1345TIP3    H225527   5.139   0.254  17.056 -0.0011  1.3609  0.4087
 1346TIP3   OH225528   6.263   1.373   4.640  0.0623 -0.0772  0.2908
 1346TIP3    H125529   6.304   1.287   4.629 -0.3606 -0.0901 -1.4224
 1346TIP3    H225530   6.188   1.356   4.697  1.1221 -0.4571  1.6084
 1347TIP3   OH225531   2.028   4.064  12.658 -0.4695 -0.0461  0.1478
 1347TIP3    H125532   2.053   4.151  12.628  0.2932  0.2769  1.6422
 1347TIP3    H225533   2.099   4.006  12.629 -0.3548  0.0454  0.2476
 1348TIP3   OH225534   0.330   2.847   0.761  0.0647  0.1309 -0.1279
 1348TIP3    H125535   0.358   2.799   0.839 -1.2220 -1.9488 -0.8670
 1348TIP3    H225536   0.272   2.787   0.715 -0.4854  1.8954 -1.8970
 1349TIP3   OH225537   2.081   6.390  14.020 -0.1394 -0.2649 -0.3023
 1349TIP3    H125538   2.140   6.375  13.946  0.1703  0.8355 -0.2995
 1349TIP3    H225539   2.076   6.486  14.027  1.3167 -0.3034  2.2589
 1350TIP3   OH225540   4.582   2.524   1.677 -0.3124 -0.1082  0.6541
 1350TIP3    H125541   4.667   2.486   1.701  1.5745  2.8958 -0.6978
 1350TIP3    H225542   4.569   2.498   1.586 -1.2483 -1.1167  1.0511
 1351TIP3   OH225543   5.527   2.817  13.794 -0.2139 -0.0545  0.1093
 1351TIP3    H125544   5.618   2.790  13.783 -0.1284 -0.1843  1.1031
 1351TIP3    H225545   5.532   2.910  13.818 -0.3617  0.0288 -0.1764
 1352TIP3   OH225546   1.609   2.131  15.921  0.2608 -0.1952 -0.3319
 1352TIP3    H125547   1.641   2.212  15.882  0.9516 -1.0231 -1.5463
 1352TIP3    H225548   1.685   2.093  15.965  0.1023 -0.5063 -0.3207
 1353TIP3   OH225549   5.661   1.914  14.384 -0.3109  0.5668 -0.0975
 1353TIP3    H125550   5.675   1.865  14.303 -0.9809  1.0336 -0.5054
 1353TIP3    H225551   5.607   1.857  14.438  0.1034  0.2707  0.0074
 1354TIP3   OH225552   3.367   6.409   5.902 -0.1103  0.9596 -0.8306
 1354TIP3    H125553   3.387   6.389   5.811  0.8007 -0.7547 -0.3112
 1354TIP3    H225554   3.304   6.342   5.929  1.8236 -0.4229  0.5544
 1355TIP3   OH225555   3.532   5.072   4.188  0.8094  0.5536  0.5424
 1355TIP3    H125556   3.616   5.047   4.225  0.5958 -2.3296 -0.6721
 1355TIP3    H225557   3.551   5.094   4.097  0.1527 -1.4546 -0.1322
 1356TIP3   OH225558   1.445   2.842  13.727  0.2140 -0.7006  0.1197
 1356TIP3    H125559   1.384   2.840  13.653  0.9210 -1.6024 -0.4450
 1356TIP3    H225560   1.433   2.930  13.764 -1.0187 -0.6607 -0.3192
 1357TIP3   OH225561   1.585   1.235   5.542  0.0957  0.3708 -0.1503
 1357TIP3    H125562   1.605   1.325   5.518  1.3691 -0.0934 -0.8684
 1357TIP3    H225563   1.610   1.229   5.634  0.8988  0.4820 -0.3615
 1358TIP3   OH225564   0.985   0.577   0.930  0.0592 -0.4641  0.0626
 1358TIP3    H125565   1.072   0.555   0.965  1.2538  1.3205 -1.5912
 1358TIP3    H225566   1.001   0.600   0.838 -2.2250 -0.2970 -0.3585
 1359TIP3   OH225567   3.150   1.322  15.480  0.2848 -0.0709  0.0035
 1359TIP3    H125568   3.167   1.232  15.455  0.6425  0.2487 -0.9432
 1359TIP3    H225569   3.061   1.322  15.513  0.3871 -0.8248  0.2881
 1360TIP3   OH225570   3.089   1.125  14.930  0.4576  0.2037  0.6706
 1360TIP3    H125571   3.158   1.070  14.891  0.3839  0.3905  0.2759
 1360TIP3    H225572   3.020   1.063  14.953  0.3591  0.1268  0.1923
 1361TIP3   OH225573   1.699   2.851  13.136  0.7883  0.0232  0.1883
 1361TIP3    H125574   1.628   2.839  13.072  1.2325  0.9934 -0.4979
 1361TIP3    H225575   1.654   2.883  13.215  0.4460  0.5603 -0.2159
 1362TIP3   OH225576   5.250   2.423  16.745 -0.1593  0.1208  0.7333
 1362TIP3    H125577   5.281   2.363  16.677 -0.8672  0.0187  0.4957
 1362TIP3    H225578   5.316   2.415  16.815 -0.6458 -1.5508  1.0544
 1363TIP3   OH225579   4.537   4.844   0.441 -0.2327  0.3801  0.5477
 1363TIP3    H125580   4.519   4.895   0.520 -0.6232 -0.8273  1.2794
 1363TIP3    H225581   4.597   4.775   0.471  0.3869  0.4754 -0.4331
 1364TIP3   OH225582   2.439   0.887  12.408 -0.0333 -0.0238  0.6238
 1364TIP3    H125583   2.480   0.815  12.455 -0.7371 -0.0435  1.2123
 1364TIP3    H225584   2.388   0.934  12.474 -1.7095 -0.5391 -0.2468
 1365TIP3   OH225585   6.059   1.523   1.822  0.4935 -0.0891  0.4654
 1365TIP3    H125586   6.043   1.611   1.857 -0.5313 -1.4537  3.7777
 1365TIP3    H225587   6.043   1.531   1.728 -1.1655  2.8885  0.8874
 1366TIP3   OH225588   0.604   3.026  12.613 -0.6137 -0.1615 -0.1580
 1366TIP3    H125589   0.629   3.038  12.704 -0.2050 -0.8027 -0.1800
 1366TIP3    H225590   0.567   3.111  12.587  0.9165  0.6093  0.0700
 1367TIP3   OH225591   1.549   2.877  14.083  0.9639  0.2640 -0.1185
 1367TIP3    H125592   1.578   2.800  14.035 -0.7564 -0.6056  0.1571
 1367TIP3    H225593   1.625   2.901  14.137  0.7259 -2.9821  1.9433
 1368TIP3   OH225594   5.839   1.405   1.993  0.1627 -0.6632 -0.0466
 1368TIP3    H125595   5.904   1.432   1.929 -1.9535  2.3049 -1.1559
 1368TIP3    H225596   5.860   1.454   2.072  0.3050 -1.0772  0.1746
 1369TIP3   OH225597   5.819   6.238  16.726  0.6989  0.4713 -0.3209
 1369TIP3    H125598   5.786   6.315  16.773  0.5853 -0.8856  1.9440
 1369TIP3    H225599   5.868   6.275  16.652 -0.8312  2.6556 -0.3581
 1370TIP3   OH225600   1.112   4.500   6.213 -0.2142  0.6892 -0.3181
 1370TIP3    H125601   1.062   4.500   6.294  0.5788  1.0435  0.1808
 1370TIP3    H225602   1.120   4.592   6.189 -1.0794  0.5486 -1.2128
 1371TIP3   OH225603   0.930   0.375  14.036 -0.0164  0.6615 -0.0630
 1371TIP3    H125604   0.954   0.401  13.947 -2.2457 -0.5015 -1.0628
 1371TIP3    H225605   0.915   0.459  14.081 -1.5377  1.2862 -1.6007
 1372TIP3   OH225606   4.355   2.213   3.987 -0.1185 -0.2430 -0.1369
 1372TIP3    H125607   4.310   2.130   3.975 -0.7805  0.1809 -0.6804
 1372TIP3    H225608   4.301   2.261   4.051  0.1757 -0.1674  0.0581
 1373TIP3   OH225609   2.153   1.420   3.620 -0.7340  1.0653  0.6133
 1373TIP3    H125610   2.178   1.448   3.708  3.0457  1.5098 -0.4208
 1373TIP3    H225611   2.220   1.458   3.563 -1.5008 -1.3785 -2.1517
 1374TIP3   OH225612   2.694   3.286  16.323  0.2336 -0.2803 -0.4111
 1374TIP3    H125613   2.697   3.375  16.288  1.2946 -0.4907 -0.8914
 1374TIP3    H225614   2.602   3.272  16.344  0.3574  1.7865  2.0033
 1375TIP3   OH225615   3.149   5.680   1.134 -0.1772 -0.1000  0.4834
 1375TIP3    H125616   3.226   5.733   1.115 -1.0571  0.8814 -0.5478
 1375TIP3    H225617   3.179   5.615   1.198  1.2955  0.7327  0.6884
 1376TIP3   OH225618   4.274   2.257  14.305 -0.1217 -0.0675  0.0201
 1376TIP3    H125619   4.342   2.192  14.293 -0.4222 -0.9516  2.5447
 1376TIP3    H225620   4.318   2.341  14.293  0.7294 -0.6611 -1.1995
 1377TIP3   OH225621   2.373   5.516  12.386 -0.4222  0.0854 -0.2746
 1377TIP3    H125622   2.435   5.516  12.459 -0.8576 -0.7538  0.1154
 1377TIP3    H225623   2.326   5.599  12.394  0.8733  0.8801 -0.7758
 1378TIP3   OH225624   4.965   5.876   5.980 -0.1178 -0.0410 -0.3947
 1378TIP3    H125625   5.008   5.822   5.913  0.4751  0.4670 -0.4286
 1378TIP3    H225626   4.904   5.816   6.023 -0.0378 -0.5378 -0.9593
 1379TIP3   OH225627   5.393   6.820   4.083 -1.1804  0.1931 -0.0862
 1379TIP3    H125628   5.342   6.900   4.095 -0.6224  0.4443  0.6303
 1379TIP3    H225629   5.483   6.850   4.071 -0.9238 -0.3390  0.4782
 1380TIP3   OH225630   6.593   2.589   1.753 -0.1894  0.7674 -0.5421
 1380TIP3    H125631   6.520   2.558   1.806  0.9525 -0.1280  0.5723
 1380TIP3    H225632   6.618   2.672   1.793  0.0750  0.5546 -0.2664
 1381TIP3   OH225633   3.681   4.169  14.370  0.0374 -0.3804 -0.0243
 1381TIP3    H125634   3.754   4.128  14.323  0.1468  0.6268 -0.7497
 1381TIP3    H225635   3.603   4.130  14.332  0.1500 -2.6941  1.8582
 1382TIP3   OH225636   6.476   2.431   4.278 -0.0224 -0.4056 -0.8965
 1382TIP3    H125637   6.569   2.408   4.280 -0.1384 -0.8504  0.1651
 1382TIP3    H225638   6.468   2.491   4.204  1.2898  0.4281 -0.3997
 1383TIP3   OH225639   0.737   4.263  15.127 -0.2791 -0.3431  0.3132
 1383TIP3    H125640   0.697   4.223  15.204 -0.3461  1.6515  1.3765
 1383TIP3    H225641   0.771   4.347  15.158  1.0627 -0.1519 -1.5006
 1384TIP3   OH225642   1.463   4.231   4.810 -0.5188 -0.2968  0.3324
 1384TIP3    H125643   1.415   4.260   4.733 -1.2723 -2.1101  0.0731
 1384TIP3    H225644   1.400   4.239   4.882 -0.4723 -0.5449  0.4012
 1385TIP3   OH225645   2.523   3.443   2.671  0.8875 -0.6234 -0.3226
 1385TIP3    H125646   2.618   3.439   2.681  0.6972 -1.4412  1.6058
 1385TIP3    H225647   2.493   3.353   2.682 -0.1424 -0.3051 -0.3849
 1386TIP3   OH225648   2.069   2.809  12.193  0.6176 -0.0997 -0.2745
 1386TIP3    H125649   2.107   2.775  12.113  0.7888 -0.4935 -0.0294
 1386TIP3    H225650   2.136   2.794  12.260  0.2380 -0.3325  0.0614
 1387TIP3   OH225651   0.932   5.445   2.646  0.3051  0.5066 -0.2369
 1387TIP3    H125652   0.914   5.523   2.698 -0.5233  0.6333 -0.7018
 1387TIP3    H225653   1.002   5.471   2.587  0.4280  0.7200  0.0015
 1388TIP3   OH225654   2.172   3.677  12.308  0.5153  0.3772 -0.2879
 1388TIP3    H125655   2.157   3.686  12.214 -0.0809  1.1633 -0.1274
 1388TIP3    H225656   2.090   3.640  12.342  1.0071 -0.6493 -0.1715
 1389TIP3   OH225657   6.106   2.485  14.320 -0.3423  0.0148 -0.1455
 1389TIP3    H125658   6.028   2.456  14.273 -0.2872 -1.4578  0.6128
 1389TIP3    H225659   6.073   2.544  14.388 -0.7987 -0.4808  0.0770
 1390TIP3   OH225660   1.377   3.521   0.097 -0.5883  0.0513 -0.2881
 1390TIP3    H125661   1.389   3.616   0.094  0.7604 -0.1329 -1.6736
 1390TIP3    H225662   1.433   3.487   0.028 -3.4172 -1.5391 -2.0086
 1391TIP3   OH225663   5.746   5.109  12.822  0.1729  0.2854  0.6920
 1391TIP3    H125664   5.746   5.034  12.763 -0.2647  0.8279 -0.0197
 1391TIP3    H225665   5.822   5.161  12.795  1.2482 -0.5175  2.0260
 1392TIP3   OH225666   4.389   4.047   4.764 -0.3507 -0.7176  0.0496
 1392TIP3    H125667   4.390   4.118   4.700 -0.7178 -0.5461  0.2332
 1392TIP3    H225668   4.419   4.088   4.846  0.7832 -1.0870 -0.1614
 1393TIP3   OH225669   1.977   3.367  11.714 -0.6934 -0.2452  0.1740
 1393TIP3    H125670   1.944   3.364  11.624 -0.7231 -3.1301  0.1858
 1393TIP3    H225671   2.072   3.369  11.705 -0.6745 -1.1442  0.0191
 1394TIP3   OH225672   3.864   6.407  15.233  0.3431  0.2229 -0.0136
 1394TIP3    H125673   3.784   6.459  15.240  0.8502  1.0167  0.1489
 1394TIP3    H225674   3.841   6.334  15.175 -0.1932  1.0458 -0.8763
 1395TIP3   OH225675   5.447   4.727   4.339  0.3556  0.4071  0.0576
 1395TIP3    H125676   5.389   4.786   4.387  0.0584 -0.2487  0.5091
 1395TIP3    H225677   5.403   4.715   4.254  0.7997  1.4317 -0.3360
 1396TIP3   OH225678   2.711   4.126   1.480 -0.6106 -0.0465 -0.3805
 1396TIP3    H125679   2.800   4.158   1.492  0.0777 -1.2255 -2.1499
 1396TIP3    H225680   2.710   4.041   1.523 -0.5121 -0.5846 -1.4266
 1397TIP3   OH225681   3.751   3.231  11.615  0.4248 -0.1304 -0.2839
 1397TIP3    H125682   3.839   3.256  11.642  0.5001  0.8973 -1.4055
 1397TIP3    H225683   3.764   3.160  11.552  0.3427 -1.1215  0.7732
 1398TIP3   OH225684   1.176   4.395   0.952 -0.3371  0.3246  0.1283
 1398TIP3    H125685   1.237   4.326   0.927  0.4977  1.5483 -1.3001
 1398TIP3    H225686   1.108   4.349   1.001 -0.0627 -1.5950 -1.1884
 1399TIP3   OH225687   0.268   3.958  11.008 -0.7491 -0.0767 -0.6363
 1399TIP3    H125688   0.313   4.034  10.971  1.0443 -1.3954 -1.3012
 1399TIP3    H225689   0.258   3.979  11.101  0.1802  0.7749 -0.7069
 1400TIP3   OH225690   6.600   4.082  13.551 -0.2006  0.5522  0.7438
 1400TIP3    H125691   6.597   4.131  13.468 -1.7474 -1.0802 -0.2449
 1400TIP3    H225692   6.563   4.142  13.615 -0.2927  1.3722 -0.0547
 1401TIP3   OH225693   4.636   5.705  15.937  0.0646 -0.0714 -0.2490
 1401TIP3    H125694   4.696   5.645  15.982  0.0770  0.2953  0.2320
 1401TIP3    H225695   4.693   5.758  15.881 -0.0979 -1.4385 -1.7504
 1402TIP3   OH225696   0.262   4.578   4.764 -0.6761  0.2758 -0.0253
 1402TIP3    H125697   0.356   4.576   4.780 -0.8241 -1.1092  0.8205
 1402TIP3    H225698   0.231   4.655   4.811 -0.2028 -0.2711  1.2135
 1403TIP3   OH225699   5.166   4.560   1.718 -0.2226 -0.0461 -0.5389
 1403TIP3    H125700   5.157   4.619   1.643 -0.5981  2.4451  1.3043
 1403TIP3    H225701   5.181   4.619   1.792 -2.1435 -2.2047  1.7193
 1404TIP3   OH225702   6.433   0.962  12.266  0.2262 -0.1731 -0.1173
 1404TIP3    H125703   6.426   1.050  12.303 -0.8869 -0.4006  0.2713
 1404TIP3    H225704   6.526   0.949  12.252  0.3262  1.6075 -1.5305
 1405TIP3   OH225705   4.282   5.499  15.606  0.3582 -0.3967 -0.0249
 1405TIP3    H125706   4.264   5.408  15.581 -4.1787  0.6828 -1.6112
 1405TIP3    H225707   4.258   5.503  15.699  1.3006 -0.9053  0.2589
 1406TIP3   OH225708   5.232   1.415   5.476  0.5873  0.6768  0.3245
 1406TIP3    H125709   5.327   1.419   5.480  0.5266  1.7235  1.9897
 1406TIP3    H225710   5.204   1.433   5.566 -1.1784 -0.0530 -0.0337
 1407TIP3   OH225711   1.355   4.557   5.407 -0.0586 -0.9197  0.3713
 1407TIP3    H125712   1.448   4.538   5.417  0.5628  0.1753 -2.3023
 1407TIP3    H225713   1.334   4.615   5.479  1.9552  0.5939 -0.1818
 1408TIP3   OH225714   6.822   2.801   4.279 -0.3267 -0.2530 -0.1600
 1408TIP3    H125715   6.797   2.780   4.189  0.3704 -1.5732 -0.0607
 1408TIP3    H225716   6.785   2.730   4.332 -1.6511  1.0594  0.7698
 1409TIP3   OH225717   3.266   4.925   4.621  0.5420  0.3580 -0.4068
 1409TIP3    H125718   3.172   4.944   4.628  0.4125  1.1326 -2.9607
 1409TIP3    H225719   3.269   4.836   4.585  0.8764 -0.2752  1.1085
 1410TIP3   OH225720   1.701   6.616   0.896 -0.7248 -0.2403  0.2974
 1410TIP3    H125721   1.612   6.611   0.931 -0.4443  1.5311  1.4124
 1410TIP3    H225722   1.746   6.677   0.955  0.2230  1.6983 -2.2362
 1411TIP3   OH225723   5.323   5.102  15.979  0.0973 -0.8568 -0.0946
 1411TIP3    H125724   5.318   5.008  15.993 -1.1261 -1.0855 -1.8045
 1411TIP3    H225725   5.237   5.135  16.005  0.3181 -0.2915 -0.0614
 1412TIP3   OH225726   4.519   2.564   2.594 -0.3892 -0.0816 -0.0076
 1412TIP3    H125727   4.583   2.573   2.523  1.5052  0.6041  1.6988
 1412TIP3    H225728   4.450   2.509   2.557  1.4396 -1.3203 -1.7862
 1413TIP3   OH225729   1.236   5.845   3.224  0.0119  0.0402  0.1009
 1413TIP3    H125730   1.173   5.876   3.159  1.6849 -1.9385 -2.6729
 1413TIP3    H225731   1.280   5.924   3.255 -2.0710  1.2027  0.2960
 1414TIP3   OH225732   0.773   1.765   5.352 -0.2111  0.5754  0.5546
 1414TIP3    H125733   0.799   1.857   5.353 -2.1649  1.1873 -0.5242
 1414TIP3    H225734   0.704   1.760   5.286  0.6621 -1.9240 -0.2795
 1415TIP3   OH225735   3.853   1.487  16.254 -0.1625 -0.2926  0.5934
 1415TIP3    H125736   3.798   1.421  16.295  0.3159 -1.6163 -0.8279
 1415TIP3    H225737   3.812   1.504  16.170  0.5798  0.0749  0.2950
 1416TIP3   OH225738   3.787   6.035   1.368 -0.9213 -0.3591 -0.1762
 1416TIP3    H125739   3.772   6.021   1.275  2.3353  3.0723 -1.4844
 1416TIP3    H225740   3.727   6.105   1.392 -1.4036 -0.8986  0.2278
 1417TIP3   OH225741   2.088   5.493   1.057 -0.4867  0.5117 -0.2682
 1417TIP3    H125742   2.088   5.398   1.045 -0.3428  0.6224 -1.1548
 1417TIP3    H225743   1.997   5.514   1.077 -0.3669  0.0925  0.8376
 1418TIP3   OH225744   6.205   3.391   6.183 -0.2401 -0.5300 -0.0334
 1418TIP3    H125745   6.278   3.330   6.199  0.8036 -0.2315 -2.9131
 1418TIP3    H225746   6.248   3.473   6.159 -1.5851  0.2981  0.2893
 1419TIP3   OH225747   5.456   4.474   4.857 -0.3022 -0.9244  0.3111
 1419TIP3    H125748   5.532   4.438   4.813  0.2121  0.5686 -0.0906
 1419TIP3    H225749   5.476   4.467   4.951  0.3298 -0.5329  0.2057
 1420TIP3   OH225750   5.328   0.312   2.064 -0.4787  0.4882 -0.1476
 1420TIP3    H125751   5.384   0.389   2.074 -1.1567  0.8621  0.8904
 1420TIP3    H225752   5.251   0.344   2.016 -0.3215  0.2212 -0.5910
 1421TIP3   OH225753   4.095   1.049   1.383  0.1374  0.3288  0.3816
 1421TIP3    H125754   4.014   1.043   1.332  0.2574 -0.4394  0.2711
 1421TIP3    H225755   4.073   1.010   1.467  0.9140 -1.7411 -0.3149
 1422TIP3   OH225756   2.689   5.521   0.077  0.1304  0.1543 -0.1436
 1422TIP3    H125757   2.774   5.558   0.101 -1.0258  1.6059  2.0682
 1422TIP3    H225758   2.677   5.546  -0.015  1.6124  0.8541 -0.1730
 1423TIP3   OH225759   4.043   3.117  15.961 -0.5344  0.4406  0.0914
 1423TIP3    H125760   4.035   3.213  15.955  0.5968  0.5004 -0.7612
 1423TIP3    H225761   4.127   3.098  15.921 -1.8802 -1.1715 -2.1277
 1424TIP3   OH225762   3.055   6.123  14.131 -0.4104  0.0875 -0.1436
 1424TIP3    H125763   3.120   6.189  14.155 -1.0876  0.7135 -0.0045
 1424TIP3    H225764   3.088   6.042  14.171 -0.6509  0.7664  1.5395
 1425TIP3   OH225765   4.311   5.692   1.865 -0.4207  0.4333 -0.4599
 1425TIP3    H125766   4.367   5.769   1.875 -2.7325  2.3681 -1.4160
 1425TIP3    H225767   4.319   5.668   1.773 -0.3534  0.0869 -0.3626
 1426TIP3   OH225768   6.617   5.652  15.055 -0.1259  0.0834 -0.0350
 1426TIP3    H125769   6.682   5.687  14.995  1.1711  2.2462  2.4080
 1426TIP3    H225770   6.653   5.568  15.084  1.5030  1.0856  1.0123
 1427TIP3   OH225771   2.608   2.653  11.282 -0.0241  0.5408 -0.7823
 1427TIP3    H125772   2.611   2.583  11.217  2.4610 -0.7570  0.5842
 1427TIP3    H225773   2.653   2.727  11.240  0.0633  0.2862 -1.1392
 1428TIP3   OH225774   5.320   4.839   0.592  0.4024 -0.2107 -0.7694
 1428TIP3    H125775   5.249   4.821   0.653 -0.6187  1.8373 -1.2712
 1428TIP3    H225776   5.341   4.931   0.605  0.0835  0.3479 -3.5231
 1429TIP3   OH225777   1.739   5.295  13.240  0.2528 -0.4224 -0.2910
 1429TIP3    H125778   1.653   5.288  13.282 -0.2434  0.2974 -1.1518
 1429TIP3    H225779   1.801   5.293  13.313 -0.5604  0.2635  0.4543
 1430TIP3   OH225780   6.072   1.072   5.360  0.0096  0.1729  0.4891
 1430TIP3    H125781   6.039   0.988   5.327 -0.5424  0.2227  0.8905
 1430TIP3    H225782   6.001   1.105   5.415 -1.0445  2.2847 -1.8996
 1431TIP3   OH225783   1.114   1.400   4.852 -0.0765 -0.7865 -0.0747
 1431TIP3    H125784   1.153   1.403   4.764 -0.9260 -0.3595 -0.4536
 1431TIP3    H225785   1.117   1.308   4.877 -2.4194 -1.4400 -1.7887
 1432TIP3   OH225786   4.541   6.218  13.635 -0.3218  0.1536  0.1454
 1432TIP3    H125787   4.500   6.296  13.672  0.5695  0.2829  0.8720
 1432TIP3    H225788   4.631   6.220  13.667 -0.4974 -1.6120  0.8537
 1433TIP3   OH225789   1.981   3.592   3.148  0.1453 -0.1425 -0.3193
 1433TIP3    H125790   2.015   3.680   3.131 -0.0149 -0.1771 -0.8184
 1433TIP3    H225791   1.914   3.605   3.215  0.5611  0.0309  0.0751
 1434TIP3   OH225792   4.215   1.344   6.136 -0.8812 -0.9676  0.3527
 1434TIP3    H125793   4.132   1.390   6.127  0.0597  0.9168  0.8522
 1434TIP3    H225794   4.235   1.349   6.230 -1.3185 -3.5288  0.6699
 1435TIP3   OH225795   0.489   0.219   3.969  0.4678  0.2227  0.3081
 1435TIP3    H125796   0.524   0.286   4.027  1.9616 -0.1715 -0.0978
 1435TIP3    H225797   0.444   0.269   3.900  1.8746  0.8463 -0.1886
 1436TIP3   OH225798   2.728   0.627  11.177 -0.1688 -0.4963  0.4429
 1436TIP3    H125799   2.721   0.533  11.157 -0.6869 -0.0529 -1.7327
 1436TIP3    H225800   2.713   0.670  11.093  1.3078  1.5220  1.1448
 1437TIP3   OH225801   3.668   1.247  16.884  0.6962  0.5284 -0.1460
 1437TIP3    H125802   3.665   1.161  16.842  0.0628  0.3073  0.3363
 1437TIP3    H225803   3.655   1.229  16.977  1.5657  1.0625  0.0906
 1438TIP3   OH225804   1.040   1.811  11.600 -0.1603 -0.0630 -0.2044
 1438TIP3    H125805   0.981   1.770  11.663 -0.5361  0.5606 -0.1426
 1438TIP3    H225806   1.077   1.886  11.646  1.1652 -0.7738 -0.0332
 1439TIP3   OH225807   5.203   4.155  12.180  0.2733 -0.7323 -0.4992
 1439TIP3    H125808   5.293   4.126  12.162  0.0803 -3.5099  2.1823
 1439TIP3    H225809   5.178   4.108  12.259 -2.7701  1.7792  0.2345
 1440TIP3   OH225810   1.945   0.837   4.905  0.1208  0.0648  0.2823
 1440TIP3    H125811   2.019   0.869   4.854 -1.8732  3.2783 -0.9028
 1440TIP3    H225812   1.908   0.915   4.945 -3.3419 -1.1225 -0.2525
 1441TIP3   OH225813   4.571   1.971   1.478  0.2589  0.1594 -0.6050
 1441TIP3    H125814   4.475   1.972   1.480  0.2652  1.2787  0.2478
 1441TIP3    H225815   4.596   1.927   1.559  0.4772 -1.0153 -1.2957
 1442TIP3   OH225816   2.484   3.357  13.085 -0.9654 -0.2239 -0.7264
 1442TIP3    H125817   2.409   3.412  13.061 -0.8630  1.1182  1.6774
 1442TIP3    H225818   2.560   3.410  13.061 -0.8648  0.4480  0.9339
 1443TIP3   OH225819   4.939   3.787  12.931  0.3207 -0.5483 -0.1685
 1443TIP3    H125820   4.865   3.761  12.986  1.1606 -2.3419  0.1770
 1443TIP3    H225821   4.939   3.723  12.860  0.9788  0.0220 -0.7001
 1444TIP3   OH225822   0.891   0.594  15.166 -0.0739  0.0391  0.2085
 1444TIP3    H125823   0.972   0.547  15.182  0.3435  0.8042  0.3837
 1444TIP3    H225824   0.902   0.678  15.211 -0.0626  1.0624 -1.6100
 1445TIP3   OH225825   3.428   0.089  14.913  0.2914 -0.0193 -0.2563
 1445TIP3    H125826   3.417   0.032  14.989 -0.1540  0.7979  0.3043
 1445TIP3    H225827   3.379   0.168  14.935 -1.3117 -0.4150 -2.1087
 1446TIP3   OH225828   2.348   5.503  15.261  1.0313  0.2739  0.0095
 1446TIP3    H125829   2.373   5.467  15.176 -0.1652 -1.2477  0.2359
 1446TIP3    H225830   2.280   5.442  15.293 -2.1261  3.4276 -0.1196
 1447TIP3   OH225831   3.424   2.991  13.067  0.7227 -0.1854 -0.1751
 1447TIP3    H125832   3.331   3.012  13.066  1.2189  2.3769 -1.4417
 1447TIP3    H225833   3.458   3.034  13.146  1.1192  0.6118 -0.7595
 1448TIP3   OH225834   2.456   3.605  14.482  0.1732 -0.1407 -0.0119
 1448TIP3    H125835   2.411   3.559  14.411  2.4220 -0.5951 -1.2397
 1448TIP3    H225836   2.548   3.609  14.454  0.7636  1.5894  1.9015
 1449TIP3   OH225837   5.373   4.362  12.718 -0.0363 -0.1579  0.5380
 1449TIP3    H125838   5.316   4.433  12.748 -1.2334 -1.1401  0.6928
 1449TIP3    H225839   5.327   4.282  12.744 -0.1038 -1.0551 -2.0058
 1450TIP3   OH225840   2.876   6.622   5.031 -0.0710 -0.2370  0.1931
 1450TIP3    H125841   2.940   6.673   5.080 -1.5588  1.5436  0.4064
 1450TIP3    H225842   2.928   6.567   4.972  1.6848 -0.5711  1.9514
 1451TIP3   OH225843   3.282   5.455   5.869  0.0057 -0.5054 -0.5287
 1451TIP3    H125844   3.338   5.450   5.947  0.1918 -1.7669 -0.7120
 1451TIP3    H225845   3.194   5.436   5.902  0.1854 -1.7160 -0.7082
 1452TIP3   OH225846   4.290   4.562  13.185  0.3585  0.7292 -0.0988
 1452TIP3    H125847   4.203   4.571  13.224  0.1661 -0.5900 -0.1512
 1452TIP3    H225848   4.343   4.524  13.255  0.3987 -0.2152 -0.6224
 1453TIP3   OH225849   3.800   4.638  13.224  0.0634  0.0484 -0.4654
 1453TIP3    H125850   3.738   4.652  13.296  2.0871 -1.7731  1.8080
 1453TIP3    H225851   3.749   4.593  13.157 -1.5918  0.6283  0.3434
 1454TIP3   OH225852   2.836   5.273  14.193 -0.7309  0.0716 -0.6338
 1454TIP3    H125853   2.752   5.269  14.147 -0.9905  1.6150 -0.3536
 1454TIP3    H225854   2.849   5.366  14.211  0.7219 -0.2141 -0.0701
 1455TIP3   OH225855   3.774   0.236   3.098 -0.4891  0.0552  0.5256
 1455TIP3    H125856   3.759   0.144   3.120  0.8499 -0.4986 -0.7292
 1455TIP3    H225857   3.729   0.284   3.167 -1.3142 -1.5281  1.1573
 1456TIP3   OH225858   3.014   2.545  11.043 -0.1909 -0.8698 -0.3370
 1456TIP3    H125859   3.018   2.569  10.950 -0.8913  0.4567 -0.0489
 1456TIP3    H225860   2.951   2.474  11.047  0.3609 -1.4012 -0.9632
 1457TIP3   OH225861   6.730   1.153   6.713  0.4087 -0.5446 -0.5878
 1457TIP3    H125862   6.656   1.196   6.756  0.2777  0.6621 -1.9316
 1457TIP3    H225863   6.807   1.190   6.756  0.2639 -0.0283 -0.7666
 1458TIP3   OH225864   1.938   3.754  10.585 -0.0519  0.5685 -0.1953
 1458TIP3    H125865   1.959   3.769  10.493  1.3733  0.3297  0.0655
 1458TIP3    H225866   1.938   3.658  10.594  1.9304  0.5721  0.4528
 1459TIP3   OH225867   2.827   5.931  16.689 -0.1720  0.3367 -0.1582
 1459TIP3    H125868   2.789   6.018  16.698 -2.0857 -0.4965  0.1341
 1459TIP3    H225869   2.762   5.872  16.725  1.0199 -1.2549 -0.4963
 1460TIP3   OH225870   1.753   3.105   3.944 -0.5101  0.4598 -0.5231
 1460TIP3    H125871   1.736   3.067   3.859 -0.3392  0.0658 -0.3819
 1460TIP3    H225872   1.814   3.177   3.927  0.8241 -0.6503 -0.5346
 1461TIP3   OH225873   5.625   5.383  16.688  0.2997  0.5418  0.1424
 1461TIP3    H125874   5.593   5.463  16.645  1.0610  1.2411  0.8591
 1461TIP3    H225875   5.719   5.384  16.673  0.5433  0.6340  1.5328
 1462TIP3   OH225876   0.003   4.428  14.219  0.5886 -0.0020 -0.4032
 1462TIP3    H125877   0.026   4.485  14.147 -0.5753  0.4417 -0.4529
 1462TIP3    H225878  -0.089   4.406  14.204  0.2597  0.2682  1.0362
 1463TIP3   OH225879   1.942   4.924  11.961 -0.6468 -0.2370 -0.3054
 1463TIP3    H125880   1.996   4.945  11.885 -0.0440 -1.5623 -0.2596
 1463TIP3    H225881   1.852   4.943  11.932 -0.1810  2.7597 -0.1276
 1464TIP3   OH225882   0.493   6.248   5.402 -0.2411 -0.8257  0.1141
 1464TIP3    H125883   0.521   6.212   5.486  0.7162  2.0658  1.1432
 1464TIP3    H225884   0.426   6.313   5.425  1.2238  1.2141 -1.1229
 1465TIP3   OH225885   5.455   6.806  11.435 -0.6335  0.0474 -0.3443
 1465TIP3    H125886   5.526   6.799  11.498  0.0408  1.2426 -0.9477
 1465TIP3    H225887   5.489   6.765  11.355 -0.6937  0.4226 -0.5684
 1466TIP3   OH225888   3.262   6.644  10.260  0.0113 -1.2051  0.0690
 1466TIP3    H125889   3.191   6.632  10.323 -0.2436 -0.6854 -0.1093
 1466TIP3    H225890   3.325   6.701  10.306 -0.6894  0.0852 -0.5201
 1467TIP3   OH225891   3.101   2.972   1.348  0.0214  0.9434 -0.1771
 1467TIP3    H125892   3.069   2.896   1.300  1.5780  1.2539 -1.8105
 1467TIP3    H225893   3.120   2.939   1.435  0.4753 -0.4961 -0.7980
 1468TIP3   OH225894   5.044   4.699   5.782 -0.0938 -0.0382 -0.4716
 1468TIP3    H125895   5.041   4.609   5.749 -0.3592 -0.2169  0.0312
 1468TIP3    H225896   5.083   4.749   5.710  1.0247 -0.7253 -0.3816
 1469TIP3   OH225897   5.245   3.675  12.998 -0.2039 -0.7289  0.0881
 1469TIP3    H125898   5.174   3.612  13.012 -1.1499 -0.0343 -1.3614
 1469TIP3    H225899   5.322   3.621  12.979 -0.9423 -1.4764 -0.8600
 1470TIP3   OH225900   2.526   3.725  16.780  0.2472  0.3348 -0.3212
 1470TIP3    H125901   2.436   3.749  16.759  0.4632  0.8508 -0.6849
 1470TIP3    H225902   2.580   3.780  16.723  0.7805 -0.5416 -0.6988
 1471TIP3   OH225903   5.847   1.148   5.493  0.1444 -0.0224 -0.0969
 1471TIP3    H125904   5.868   1.214   5.559 -0.7465 -0.0610  0.2427
 1471TIP3    H225905   5.782   1.092   5.535 -0.3856 -0.0889 -0.9834
 1472TIP3   OH225906   4.667   1.276   6.320 -0.0305 -0.0124  0.1909
 1472TIP3    H125907   4.700   1.268   6.409 -0.2015  1.8299  0.4667
 1472TIP3    H225908   4.588   1.330   6.328  0.3796  0.8548 -1.1294
 1473TIP3   OH225909   2.460   0.320   2.407 -0.7837 -0.1018 -0.1940
 1473TIP3    H125910   2.399   0.248   2.424  0.1583 -0.7792  0.4606
 1473TIP3    H225911   2.540   0.276   2.376 -0.3812  0.7008 -0.3115
 1474TIP3   OH225912   3.475   4.241  14.173  0.6899 -0.1170 -0.2629
 1474TIP3    H125913   3.447   4.153  14.151  2.0902 -1.0435  1.4681
 1474TIP3    H225914   3.394   4.290  14.185 -0.1125 -0.9161 -1.9736
 1475TIP3   OH225915   5.591   2.938  16.388 -0.7150  0.9297  0.4422
 1475TIP3    H125916   5.535   3.005  16.349 -0.5117  1.0774  0.3977
 1475TIP3    H225917   5.559   2.929  16.478 -1.2444  0.5196  0.2163
 1476TIP3   OH225918   1.429   6.567   5.159  0.2621 -0.2147 -0.5164
 1476TIP3    H125919   1.355   6.521   5.199  0.9634  0.2976  1.4705
 1476TIP3    H225920   1.403   6.659   5.159  1.2739  0.1051  1.1763
 1477TIP3   OH225921   1.290   1.763  16.782 -0.1797  0.2284  0.3690
 1477TIP3    H125922   1.256   1.692  16.837  1.2825 -0.7063  0.1194
 1477TIP3    H225923   1.230   1.836  16.797 -0.3818 -0.3091  2.4477
 1478TIP3   OH225924   4.556   2.245  11.644 -0.0209  0.7057 -0.0926
 1478TIP3    H125925   4.581   2.153  11.654 -0.5906  0.4965 -0.4944
 1478TIP3    H225926   4.521   2.269  11.729 -0.0038  0.5041 -0.0272
 1479TIP3   OH225927   2.821   6.295  14.175 -0.4494 -0.1715 -0.3354
 1479TIP3    H125928   2.904   6.247  14.178  0.0656  0.7380  1.8259
 1479TIP3    H225929   2.819   6.344  14.257 -1.7458  2.1746 -1.6785
 1480TIP3   OH225930   4.762   3.656  13.089  0.3171 -0.2746 -0.1614
 1480TIP3    H125931   4.774   3.563  13.109  0.0758 -0.1456  0.6141
 1480TIP3    H225932   4.779   3.701  13.172 -0.3770  0.3111 -0.3258
 1481TIP3   OH225933   6.431   4.938   2.049  0.1435  0.1356  0.1811
 1481TIP3    H125934   6.469   4.949   1.962  0.0020  1.6498  0.2813
 1481TIP3    H225935   6.434   4.844   2.065  1.1179 -0.0666 -1.0331
 1482TIP3   OH225936   6.283   5.609  14.624 -0.0007 -0.0703 -0.2842
 1482TIP3    H125937   6.194   5.639  14.605 -0.3900 -0.8692  0.1669
 1482TIP3    H225938   6.327   5.685  14.663 -0.3003  0.5019 -1.0533
 1483TIP3   OH225939   4.733   1.258  16.135  0.2892  0.0808 -0.2856
 1483TIP3    H125940   4.821   1.249  16.172 -0.1010 -0.2478  0.5719
 1483TIP3    H225941   4.747   1.256  16.040  1.3293  1.2229 -0.1816
 1484TIP3   OH225942   4.730   0.640   1.359 -0.2728 -0.0138 -0.2818
 1484TIP3    H125943   4.733   0.589   1.440 -1.0663 -1.2088 -0.9716
 1484TIP3    H225944   4.797   0.600   1.303  1.5690  1.9632  0.3855
 1485TIP3   OH225945   4.180   1.412   1.723  0.3284 -0.8219 -0.3845
 1485TIP3    H125946   4.240   1.353   1.770  0.8487 -0.0361 -0.0438
 1485TIP3    H225947   4.093   1.386   1.753  0.5569 -1.3368 -0.1449
 1486TIP3   OH225948   6.362   3.124  12.425 -0.0178  0.7823 -0.0839
 1486TIP3    H125949   6.355   3.201  12.369 -0.2867  1.0846  0.3614
 1486TIP3    H225950   6.419   3.152  12.497 -0.7973  0.8372  0.5242
 1487TIP3   OH225951   3.232   3.146   2.815 -0.3070 -0.7460 -0.0693
 1487TIP3    H125952   3.321   3.113   2.798  0.0773  0.3348 -0.2601
 1487TIP3    H225953   3.244   3.240   2.829 -1.5006 -0.4789 -0.7141
 1488TIP3   OH225954   4.150   3.882  16.309  0.5222 -0.2310 -0.6109
 1488TIP3    H125955   4.086   3.813  16.288 -0.6518  0.3874  0.7515
 1488TIP3    H225956   4.228   3.858  16.259 -1.1604 -0.3034 -3.4709
 1489TIP3   OH225957   6.128   1.131  14.801 -0.6998 -0.3040 -0.0850
 1489TIP3    H125958   6.182   1.148  14.723 -1.4532  0.3549 -0.4842
 1489TIP3    H225959   6.190   1.134  14.874 -0.1256 -0.0070 -0.5717
 1490TIP3   OH225960   4.950   2.262  15.728  0.6426 -0.9834 -0.2671
 1490TIP3    H125961   4.914   2.349  15.713 -0.9172 -1.4880  0.2919
 1490TIP3    H225962   5.030   2.277  15.778 -0.8532  0.0662  1.9951
 1491TIP3   OH225963   6.386   5.482  12.392  0.1093  0.2771 -0.4332
 1491TIP3    H125964   6.351   5.396  12.414 -0.7937  0.4803 -0.9845
 1491TIP3    H225965   6.443   5.505  12.465 -2.2827  0.6684  1.4370
 1492TIP3   OH225966   3.648   4.913  11.986 -0.8145  0.6629 -0.1461
 1492TIP3    H125967   3.675   4.879  11.901 -1.2965 -0.1346  0.0067
 1492TIP3    H225968   3.588   4.985  11.965  0.6575  1.8336 -0.4722
 1493TIP3   OH225969   2.957   5.037   3.310  0.2069 -0.3860  0.5107
 1493TIP3    H125970   2.879   5.066   3.262 -0.0550 -2.3449 -0.3143
 1493TIP3    H225971   2.987   4.959   3.263  2.1165 -0.2416  1.3936
 1494TIP3   OH225972   2.291   3.931  15.439 -0.1076 -0.0191 -0.3217
 1494TIP3    H125973   2.249   3.915  15.355  0.2803  1.1414 -0.7438
 1494TIP3    H225974   2.384   3.916  15.424 -0.0377  0.1694 -0.0934
 1495TIP3   OH225975   4.247   5.389  13.748  0.1124 -0.4824  0.3862
 1495TIP3    H125976   4.230   5.393  13.842 -0.5403  1.0019  0.2398
 1495TIP3    H225977   4.201   5.310  13.718 -1.0310 -0.1096  1.0754
 1496TIP3   OH225978   6.101   3.275   4.280  0.3960  0.0513 -0.1620
 1496TIP3    H125979   6.185   3.228   4.285  0.5696 -0.0105 -2.4743
 1496TIP3    H225980   6.090   3.314   4.367  3.3565  0.9495 -0.0800
 1497TIP3   OH225981   0.167   4.090  14.801 -0.3360 -0.3675 -0.1409
 1497TIP3    H125982   0.239   4.153  14.807 -1.3349  1.0856 -2.1374
 1497TIP3    H225983   0.191   4.020  14.861  1.7389  1.0328  0.7770
 1498TIP3   OH225984   4.022   1.257   2.027  0.0795  0.4853 -0.1967
 1498TIP3    H125985   4.099   1.220   2.071 -0.3805 -0.1018  0.1313
 1498TIP3    H225986   3.948   1.211   2.066 -0.5495  1.9434  0.4017
 1499TIP3   OH225987   6.708   6.575  13.662 -0.6496  0.1312 -0.1264
 1499TIP3    H125988   6.667   6.604  13.581 -1.8030 -1.6235 -0.2144
 1499TIP3    H225989   6.802   6.577  13.643 -0.7215  2.3025 -0.5716
 1500TIP3   OH225990   3.506   0.922  14.289  0.0313  0.1905  0.0434
 1500TIP3    H125991   3.490   0.833  14.255  1.0862 -0.3671  0.9232
 1500TIP3    H225992   3.538   0.970  14.213 -1.1418  0.0023 -0.5898
 1501TIP3   OH225993   0.926   1.343   1.056  0.5236 -0.0184 -0.3401
 1501TIP3    H125994   0.962   1.308   0.975  0.5116 -0.0522 -0.3306
 1501TIP3    H225995   0.976   1.301   1.126 -1.4697 -2.3621 -0.1907
 1502TIP3   OH225996   5.034   5.576  12.097 -0.1726  0.3894 -0.1101
 1502TIP3    H125997   5.064   5.666  12.081 -0.8121  0.9885  1.7859
 1502TIP3    H225998   4.965   5.586  12.163  1.3504 -1.6637  1.9412
 1503TIP3   OH225999   2.990   1.118   3.966 -0.4935  0.0855 -0.1469
 1503TIP3    H126000   2.987   1.198   3.914 -2.1105 -0.5526 -1.1155
 1503TIP3    H226001   3.083   1.096   3.972 -0.2170  0.6017 -2.1362
 1504TIP3   OH226002   5.225   5.316  17.044 -0.2271  0.9675 -0.1866
 1504TIP3    H126003   5.262   5.398  17.079 -1.3017  0.9910  0.9785
 1504TIP3    H226004   5.137   5.340  17.016 -0.2244  0.3964 -0.6900
 1505TIP3   OH226005   3.217   2.661   3.630 -0.5058 -0.2457 -0.1896
 1505TIP3    H126006   3.247   2.590   3.572  0.9977  0.1429  0.0768
 1505TIP3    H226007   3.292   2.719   3.638 -1.1158  0.4117  1.0963
 1506TIP3   OH226008   1.881   3.531   2.891 -0.0322 -1.1151  0.3124
 1506TIP3    H126009   1.918   3.527   2.980  1.1367 -0.2608 -0.1081
 1506TIP3    H226010   1.958   3.536   2.834 -0.6983 -2.9831 -0.8608
 1507TIP3   OH226011   0.853   3.311   3.813 -0.4479  0.1370  0.7920
 1507TIP3    H126012   0.907   3.360   3.875 -1.0141  0.4108  1.0765
 1507TIP3    H226013   0.914   3.251   3.771  0.2338  1.0085  0.5079
 1508TIP3   OH226014   5.473   5.278   3.697 -0.6534  0.3638  0.0654
 1508TIP3    H126015   5.514   5.250   3.615 -2.3011  0.8416 -0.9718
 1508TIP3    H226016   5.536   5.254   3.765 -0.0212 -1.7126 -1.1593
 1509TIP3   OH226017   2.606   6.778   1.204  0.0854 -0.3740 -0.2772
 1509TIP3    H126018   2.580   6.865   1.173  0.4634 -0.1824 -0.0583
 1509TIP3    H226019   2.649   6.737   1.130  0.2268 -0.2404 -0.2680
 1510TIP3   OH226020   2.748   0.607  12.897  0.7769  0.3415  0.0452
 1510TIP3    H126021   2.672   0.663  12.885  0.1131 -0.7146 -0.7931
 1510TIP3    H226022   2.751   0.591  12.992  0.4682  1.0829  0.1826
 1511TIP3   OH226023   3.906   0.097  13.635 -0.6100 -0.0692  0.1515
 1511TIP3    H126024   3.873   0.035  13.700 -0.4682  0.1951  0.4800
 1511TIP3    H226025   3.947   0.167  13.687  0.1863 -0.2364 -0.2335
 1512TIP3   OH226026   2.833   1.568   1.665  0.1442 -0.2623 -0.0312
 1512TIP3    H126027   2.750   1.525   1.685  0.5502 -0.8039  0.5169
 1512TIP3    H226028   2.867   1.597   1.749  0.1507  0.6471 -0.3351
 1513TIP3   OH226029   5.012   0.874   2.279  1.0044 -0.0967 -0.1051
 1513TIP3    H126030   4.967   0.885   2.363 -0.1190  0.4466 -0.7572
 1513TIP3    H226031   5.034   0.963   2.252  2.9041 -0.3662  0.3949
 1514TIP3   OH226032   3.081   1.510  11.933 -0.3285  0.5396 -0.2860
 1514TIP3    H126033   3.169   1.480  11.956 -0.5130  0.8707  0.9313
 1514TIP3    H226034   3.048   1.552  12.013 -0.3958  3.2909 -1.6241
 1515TIP3   OH226035   5.504   0.416  17.233  0.2164  1.0088  0.2554
 1515TIP3    H126036   5.514   0.327  17.198 -1.7567  1.0775 -0.5899
 1515TIP3    H226037   5.471   0.404  17.321  1.0783  0.9058  0.5747
 1516TIP3   OH226038   6.026   3.272  15.337  0.3301 -0.0552 -0.0797
 1516TIP3    H126039   6.114   3.233  15.338 -0.3763 -1.8042  1.4672
 1516TIP3    H226040   6.037   3.356  15.293  2.3119 -1.2560 -2.0727
 1517TIP3   OH226041   1.536   6.609  16.894 -0.6941  0.1028 -0.3073
 1517TIP3    H126042   1.455   6.657  16.911 -0.2677  0.1612  1.7911
 1517TIP3    H226043   1.574   6.652  16.817 -2.9862 -0.4203 -1.8290
 1518TIP3   OH226044   2.768   1.121   3.775  0.1769 -0.5310 -0.1323
 1518TIP3    H126045   2.742   1.059   3.707 -0.6805 -0.6956  0.3346
 1518TIP3    H226046   2.862   1.104   3.789  0.3115 -0.6258 -1.1256
 1519TIP3   OH226047   4.095   5.809   4.326 -0.2444  0.0333  0.4311
 1519TIP3    H126048   4.056   5.752   4.259  0.2234  0.0807  0.1129
 1519TIP3    H226049   4.044   5.792   4.405  0.3493 -1.3774  0.5364
 1520TIP3   OH226050   5.224   5.353   1.643  0.0719 -0.2195  0.2774
 1520TIP3    H126051   5.236   5.447   1.633 -1.4854 -0.0203 -0.0448
 1520TIP3    H226052   5.148   5.345   1.701 -0.5070 -1.2530 -0.5920
 1521TIP3   OH226053   4.849   0.660   2.793  0.2376 -0.0116  0.2953
 1521TIP3    H126054   4.915   0.636   2.858 -0.4854 -2.2523  0.3040
 1521TIP3    H226055   4.820   0.748   2.818 -0.3540 -0.9677  3.3251
 1522TIP3   OH226056   0.470   0.377  14.567  0.0587 -0.2830 -0.9005
 1522TIP3    H126057   0.463   0.451  14.507 -0.9987  0.2001 -0.2025
 1522TIP3    H226058   0.385   0.372  14.610  1.0168 -0.0934  1.1565
 1523TIP3   OH226059   5.106   5.131   1.930  0.0962  0.5289  0.8317
 1523TIP3    H126060   5.015   5.111   1.909 -0.0981  1.7391  0.4224
 1523TIP3    H226061   5.158   5.068   1.880 -0.4073  2.2272 -2.0343
 1524TIP3   OH226062   0.583   2.229   2.881  0.0133 -0.2361  0.6205
 1524TIP3    H126063   0.636   2.212   2.803 -1.4098 -0.9117 -0.2424
 1524TIP3    H226064   0.527   2.303   2.857 -1.4032 -1.3247  0.4794
 1525TIP3   OH226065   6.385   3.958  11.639  0.5084  0.5280 -0.4065
 1525TIP3    H126066   6.429   3.872  11.644  0.5894  0.5452 -0.7705
 1525TIP3    H226067   6.333   3.953  11.559 -0.2321  0.4772  0.0733
 1526TIP3   OH226068   5.199   5.577  16.711  0.0172  0.0407 -0.1840
 1526TIP3    H126069   5.164   5.555  16.798  0.6901 -0.6348 -0.0687
 1526TIP3    H226070   5.272   5.636  16.729  1.2578 -1.4215 -0.1251
 1527TIP3   OH226071   1.999   0.563   4.917  0.2218  0.3759 -0.4828
 1527TIP3    H126072   1.917   0.611   4.904  0.4344  0.4908 -1.5286
 1527TIP3    H226073   2.066   0.621   4.881  0.6620 -0.0641 -0.3767
 1528TIP3   OH226074   0.539   0.369  11.492 -0.2672  0.0986  0.2094
 1528TIP3    H126075   0.595   0.422  11.436  0.6442 -1.8353 -0.7936
 1528TIP3    H226076   0.452   0.375  11.453 -0.0711  0.4731 -0.1688
 1529TIP3   OH226077   2.170   0.375  14.376 -0.3784  0.2884  0.4282
 1529TIP3    H126078   2.137   0.463  14.357  0.2646  0.6640  0.9954
 1529TIP3    H226079   2.228   0.387  14.451  0.1325 -0.5425  0.1808
 1530TIP3   OH226080   4.307   6.798  13.522  0.0623  0.0074 -0.1645
 1530TIP3    H126081   4.383   6.745  13.544  0.2228 -0.0152 -0.7858
 1530TIP3    H226082   4.308   6.869  13.587 -1.6300 -2.1354  2.4062
 1531TIP3   OH226083   2.797   1.061  12.485 -0.3726  0.0268 -0.1509
 1531TIP3    H126084   2.846   1.135  12.449 -1.0680 -0.0278 -1.2678
 1531TIP3    H226085   2.843   0.984  12.451 -0.9453 -0.0249 -0.8399
 1532TIP3   OH226086   4.793   5.880   6.801 -0.6105  0.1732 -0.3211
 1532TIP3    H126087   4.720   5.820   6.814  0.3207 -0.6648  1.4192
 1532TIP3    H226088   4.758   5.966   6.827 -1.0477 -0.1943  0.3479
 1533TIP3   OH226089   0.933   3.629   0.716  0.2694 -0.0400 -0.2204
 1533TIP3    H126090   0.875   3.704   0.702  0.6852  0.2020 -0.6883
 1533TIP3    H226091   0.979   3.618   0.632  0.9104 -0.2131  0.1424
 1534TIP3   OH226092   6.205   4.474   4.751  0.5597  0.0630 -0.0294
 1534TIP3    H126093   6.294   4.440   4.755  1.3484  2.0993  1.3348
 1534TIP3    H226094   6.188   4.486   4.658  0.4270 -3.3098 -0.5640
 1535TIP3   OH226095   4.107   5.914  11.586 -0.5103 -0.0827 -0.0912
 1535TIP3    H126096   4.190   5.958  11.569 -0.9867  1.2292  0.7893
 1535TIP3    H226097   4.131   5.828  11.619  0.4596 -0.2906 -1.2726
 1536TIP3   OH226098   0.059   5.011   5.681 -0.1693  0.3793  0.2143
 1536TIP3    H126099  -0.031   4.993   5.654  0.0281  0.8543 -0.8216
 1536TIP3    H226100   0.058   5.002   5.776 -1.6008  1.6183  0.3578
 1537TIP3   OH226101   0.068   3.711   1.832  0.6963  0.2711  0.2578
 1537TIP3    H126102   0.071   3.800   1.799 -0.6139  0.8400  1.5637
 1537TIP3    H226103   0.115   3.715   1.916  2.9344 -0.8862 -0.8311
 1538TIP3   OH226104   2.607   3.559  13.918  0.1036 -0.7722  0.0988
 1538TIP3    H126105   2.572   3.535  14.004 -1.6345 -0.3167 -0.4318
 1538TIP3    H226106   2.692   3.599  13.937 -0.1032 -0.9637  1.5775
 1539TIP3   OH226107   1.836   2.110  14.214 -0.3181  0.4181  0.6897
 1539TIP3    H126108   1.821   2.197  14.252  0.7692  0.9260 -0.0314
 1539TIP3    H226109   1.751   2.066  14.224 -1.4225  2.1583 -0.5170
 1540TIP3   OH226110   2.631   4.247   5.784 -0.2486 -0.3384 -0.3249
 1540TIP3    H126111   2.686   4.325   5.774 -0.7101  0.1272  0.6063
 1540TIP3    H226112   2.635   4.204   5.698  0.1947  0.5910 -0.7908
 1541TIP3   OH226113   5.910   3.273   0.973  0.2120  0.2287  0.1498
 1541TIP3    H126114   5.819   3.257   0.946 -0.0154  1.1558  0.3345
 1541TIP3    H226115   5.961   3.266   0.893  0.0295 -0.6249  0.0973
 1542TIP3   OH226116   2.746   6.251  12.527 -0.4002  0.2468  0.5263
 1542TIP3    H126117   2.655   6.232  12.548 -0.6830  1.1634  0.1922
 1542TIP3    H226118   2.783   6.167  12.500 -1.9539  0.3666 -2.3109
 1543TIP3   OH226119   1.157   5.960  13.123 -0.4403  0.1823 -0.1260
 1543TIP3    H126120   1.170   5.871  13.156  1.6757  0.7311  0.6497
 1543TIP3    H226121   1.170   6.016  13.199  2.2218  1.3442 -1.3286
 1544TIP3   OH226122   5.698   2.926   1.999 -0.2212 -0.3034  0.1397
 1544TIP3    H126123   5.726   2.841   1.965 -0.2925  0.1484 -1.0882
 1544TIP3    H226124   5.603   2.925   1.991 -0.3672 -0.7075  1.6125
 1545TIP3   OH226125   5.827   1.976   5.734  0.0303 -0.1598  0.2366
 1545TIP3    H126126   5.883   2.041   5.692  1.7395 -1.7391 -0.0474
 1545TIP3    H226127   5.839   1.990   5.827  1.1709 -0.6976  0.1761
 1546TIP3   OH226128   5.397   5.746   3.924 -0.5362 -0.3660  0.2906
 1546TIP3    H126129   5.436   5.684   3.986  0.5123 -2.1714 -2.0378
 1546TIP3    H226130   5.355   5.690   3.858 -1.7323  1.4858 -0.5927
 1547TIP3   OH226131   5.851   4.346  16.801 -0.1154  0.0413 -0.1445
 1547TIP3    H126132   5.923   4.283  16.796  0.8575  1.0759  0.5249
 1547TIP3    H226133   5.882   4.414  16.860 -0.9464  1.4197 -1.2331
 1548TIP3   OH226134   6.799   1.619  16.165 -0.5215  0.0484 -0.9561
 1548TIP3    H126135   6.824   1.666  16.085 -0.1032  0.5312 -0.5527
 1548TIP3    H226136   6.869   1.554  16.177 -0.5443  0.0262 -0.9431
 1549TIP3   OH226137   4.760   6.041   3.541 -0.5858 -0.9359 -0.4289
 1549TIP3    H126138   4.800   6.125   3.567  0.0686 -1.8189  1.6347
 1549TIP3    H226139   4.677   6.066   3.501 -0.9163  0.6970  1.1239
 1550TIP3   OH226140   6.716   3.443   0.996  0.0530 -0.8718  0.1187
 1550TIP3    H126141   6.633   3.446   0.947 -1.7173  0.8938  2.9168
 1550TIP3    H226142   6.694   3.398   1.077  1.3658  1.0373  1.6285
 1551TIP3   OH226143   4.557   5.011  11.369 -0.6319 -0.2701 -0.2573
 1551TIP3    H126144   4.514   5.063  11.438  2.2532  0.9564  0.7883
 1551TIP3    H226145   4.526   5.049  11.287  0.7714  2.7688  0.4723
 1552TIP3   OH226146   3.389   3.126   3.793  0.2371  0.0727 -0.8386
 1552TIP3    H126147   3.439   3.089   3.866  1.9980 -0.5272 -2.2557
 1552TIP3    H226148   3.420   3.217   3.788  0.8362 -0.1496 -1.3833
 1553TIP3   OH226149   2.413   3.235   0.411  0.0038  0.7249 -0.3945
 1553TIP3    H126150   2.365   3.295   0.468  0.1216  0.1587  0.3185
 1553TIP3    H226151   2.349   3.207   0.346  0.4064  3.0491 -1.9295
 1554TIP3   OH226152   0.624   0.186   5.141 -0.0593  0.1801  0.1158
 1554TIP3    H126153   0.628   0.281   5.139  1.1956  0.1861  1.2642
 1554TIP3    H226154   0.620   0.160   5.049 -0.0095  1.3311 -0.2265
 1555TIP3   OH226155   1.671   4.694   4.702 -1.0812 -0.3526 -0.0532
 1555TIP3    H126156   1.742   4.755   4.725 -2.1819  1.3953 -1.0248
 1555TIP3    H226157   1.715   4.610   4.692  0.9918  0.7705 -1.2611
 1556TIP3   OH226158   5.250   0.059   6.337  0.0970  0.0560 -0.8172
 1556TIP3    H126159   5.169   0.102   6.366 -0.0216  0.2840 -1.4775
 1556TIP3    H226160   5.320   0.108   6.380 -0.1597 -1.3391  1.3494
 1557TIP3   OH226161   6.604   1.952  11.584 -0.2564  0.2974 -0.3427
 1557TIP3    H126162   6.622   1.883  11.520 -0.0431 -0.8765  0.9581
 1557TIP3    H226163   6.685   1.960  11.635 -1.1513 -0.3885  1.2509
 1558TIP3   OH226164   6.266   1.490   3.840 -0.8840 -0.5219  0.3553
 1558TIP3    H126165   6.300   1.478   3.752 -1.1630 -0.3523  0.2242
 1558TIP3    H226166   6.320   1.433   3.895 -0.1303  0.0432  0.2099
 1559TIP3   OH226167   5.384   4.496   2.971  0.3488 -0.1773  0.2618
 1559TIP3    H126168   5.348   4.408   2.970  2.6534 -1.1702 -0.4734
 1559TIP3    H226169   5.360   4.533   2.886 -1.3573  0.2929  0.8963
 1560TIP3   OH226170   5.963   4.352  15.627  0.5876 -0.1478  0.1385
 1560TIP3    H126171   5.932   4.329  15.539  1.0883  0.5423 -0.2295
 1560TIP3    H226172   6.049   4.391  15.612  1.5871 -1.8689  1.1334
 1561TIP3   OH226173   2.872   2.981   0.763  0.0497 -0.0152 -0.4045
 1561TIP3    H126174   2.863   2.958   0.671  2.1585 -0.3085 -0.5939
 1561TIP3    H226175   2.886   3.075   0.764  1.1202 -0.1609 -0.5081
 1562TIP3   OH226176   0.438   2.234  12.093 -0.1062  0.5197  0.1813
 1562TIP3    H126177   0.352   2.227  12.053  0.7612 -0.3794 -1.6599
 1562TIP3    H226178   0.471   2.320  12.066  0.3742  0.0188 -0.8951
 1563TIP3   OH226179   4.375   6.278   3.166 -0.3009 -0.0738 -0.7693
 1563TIP3    H126180   4.416   6.351   3.119 -1.0060 -0.8694 -2.6969
 1563TIP3    H226181   4.282   6.285   3.145 -0.2707 -2.0238 -1.7340
 1564TIP3   OH226182   1.792   5.653  11.170  0.2550  0.0285 -0.2475
 1564TIP3    H126183   1.875   5.621  11.134  1.2939  1.7161  0.5525
 1564TIP3    H226184   1.757   5.711  11.102  0.9460  1.1897  0.3526
 1565TIP3   OH226185   6.334   0.335  11.980  0.5150  0.0501 -0.4042
 1565TIP3    H126186   6.333   0.377  11.894 -0.9852  0.5794 -0.1668
 1565TIP3    H226187   6.246   0.351  12.015  0.4292 -1.9110  0.3921
 1566TIP3   OH226188   2.010   0.527   2.651 -0.4638 -0.6075  0.0710
 1566TIP3    H126189   2.046   0.595   2.594  0.9300  0.1212  1.6945
 1566TIP3    H226190   1.954   0.474   2.595  0.5465  0.2794 -1.8540
 1567TIP3   OH226191   4.506   2.426   5.645 -0.4200  0.1187  0.4134
 1567TIP3    H126192   4.414   2.448   5.656  0.1761  2.8011  0.6917
 1567TIP3    H226193   4.524   2.443   5.552 -0.1554 -0.2614  0.3907
 1568TIP3   OH226194   0.977   5.198  16.187  0.2373 -0.1434 -0.3809
 1568TIP3    H126195   0.916   5.130  16.160 -1.5120  1.0396  0.3500
 1568TIP3    H226196   1.042   5.153  16.240 -0.3820 -1.3659 -0.6215
 1569TIP3   OH226197   2.620   3.922  16.016  0.3054 -0.2693 -0.1421
 1569TIP3    H126198   2.573   3.862  16.073 -0.2687  0.9259  0.6973
 1569TIP3    H226199   2.576   3.915  15.931 -0.2448 -0.4565  0.1565
 1570TIP3   OH226200   0.885   2.029   0.601  0.6939  0.1070 -0.4004
 1570TIP3    H126201   0.912   2.077   0.679  0.7211  2.2300 -1.6459
 1570TIP3    H226202   0.818   1.968   0.632  0.9541  0.6673  1.3361
 1571TIP3   OH226203   0.963   0.791  13.336  0.0474 -0.3546 -0.7294
 1571TIP3    H126204   1.049   0.801  13.296  0.9998 -1.0989  1.0342
 1571TIP3    H226205   0.960   0.700  13.365 -1.3937 -0.3717 -0.8484
 1572TIP3   OH226206   5.055   6.145   2.528  0.3487 -0.0673 -0.1798
 1572TIP3    H126207   4.975   6.198   2.524  0.2949 -0.1181  0.2779
 1572TIP3    H226208   5.068   6.126   2.620  1.2512  0.4983 -0.1676
 1573TIP3   OH226209   1.130   0.005  11.975  0.0726  0.0185  0.6504
 1573TIP3    H126210   1.204   0.012  11.914 -0.9744  2.6833 -0.4812
 1573TIP3    H226211   1.053   0.015  11.919 -1.1219 -1.3619  1.9817
 1574TIP3   OH226212   5.343   6.204   4.562 -0.1466  0.4629 -0.1568
 1574TIP3    H126213   5.274   6.138   4.560  0.7663 -0.5167 -1.4316
 1574TIP3    H226214   5.399   6.179   4.635 -1.0746  1.2310  0.8481
 1575TIP3   OH226215   3.751   3.717   3.540 -0.0542 -0.0333 -0.1191
 1575TIP3    H126216   3.773   3.630   3.572 -1.3745 -0.9177 -1.4668
 1575TIP3    H226217   3.821   3.773   3.572 -0.3326 -1.1360  2.7405
 1576TIP3   OH226218   3.922   5.739   2.302 -0.2148 -0.0015 -0.3231
 1576TIP3    H126219   3.935   5.671   2.235 -2.1988  0.6460 -1.4613
 1576TIP3    H226220   3.938   5.821   2.255  0.3640  0.4089  0.5670
 1577TIP3   OH226221   1.873   2.021   3.339  0.1011  0.2984 -0.0773
 1577TIP3    H126222   1.883   2.116   3.334 -1.8266  0.6222  0.9942
 1577TIP3    H226223   1.925   1.995   3.415  0.0619  0.6085  0.0579
 1578TIP3   OH226224   5.413   4.952  14.121 -0.1773 -0.0755  0.4534
 1578TIP3    H126225   5.493   4.922  14.077 -1.0990  0.1392 -1.4927
 1578TIP3    H226226   5.347   4.888  14.097 -1.1034  0.9752  0.1101
 1579TIP3   OH226227   0.060   1.647   0.281 -0.0912 -0.3797 -0.5414
 1579TIP3    H126228   0.075   1.615   0.192 -1.0752 -0.3616 -0.7246
 1579TIP3    H226229  -0.014   1.595   0.313 -0.7928  0.7088 -0.3273
 1580TIP3   OH226230   1.709   2.788   3.114  0.2760  0.3468  0.8109
 1580TIP3    H126231   1.680   2.741   3.036 -1.5935  1.4787  0.7645
 1580TIP3    H226232   1.666   2.873   3.109 -0.8055  0.0865  3.6115
 1581TIP3   OH226233   2.650   2.391   5.662  0.0259 -0.2472  0.3592
 1581TIP3    H126234   2.658   2.421   5.752 -0.0801 -0.2214  0.3600
 1581TIP3    H226235   2.704   2.453   5.612 -0.5612  0.2290  0.3023
 1582TIP3   OH226236   6.261   5.466  16.117 -0.9827  0.2901 -0.6455
 1582TIP3    H126237   6.215   5.405  16.174  0.5099 -1.0624 -0.8208
 1582TIP3    H226238   6.285   5.539  16.173 -0.3606 -0.5870  0.2615
 1583TIP3   OH226239   1.754   5.366  11.876  0.4455  0.0187 -0.3917
 1583TIP3    H126240   1.729   5.282  11.835  0.2514  0.5264 -1.3393
 1583TIP3    H226241   1.847   5.375  11.857  0.7775 -0.5977  0.8489
 1584TIP3   OH226242   2.345   5.460   6.049  0.0294  0.6617 -0.0454
 1584TIP3    H126243   2.303   5.390   5.998  0.1927  0.3356  0.2607
 1584TIP3    H226244   2.288   5.473   6.124 -0.2229  1.1592 -0.3218
 1585TIP3   OH226245   4.581   1.897  16.516  0.1087  0.7073  0.2502
 1585TIP3    H126246   4.564   1.812  16.475  0.2465  0.5887  0.4329
 1585TIP3    H226247   4.533   1.960  16.463  1.5539  0.7641 -1.0752
 1586TIP3   OH226248   5.199   6.384  17.012 -0.7725  0.2333  0.1498
 1586TIP3    H126249   5.241   6.370  17.098  1.6473 -1.5899 -1.1966
 1586TIP3    H226250   5.123   6.326  17.013 -1.5886  1.2597  1.5148
 1587TIP3   OH226251   1.484   0.938  14.991  0.5799  0.3923  0.2966
 1587TIP3    H126252   1.417   0.941  15.060  0.3111  1.1234  0.0181
 1587TIP3    H226253   1.518   0.849  14.994 -1.4527 -0.4667 -0.5455
 1588TIP3   OH226254   6.383   0.249  15.740 -0.0085  0.0784 -0.1671
 1588TIP3    H126255   6.429   0.228  15.822 -1.0733  0.4292  0.5351
 1588TIP3    H226256   6.370   0.164  15.698 -1.3115 -0.3537  1.0496
 1589TIP3   OH226257   3.430   4.969  14.120  0.1419  0.5222 -0.5129
 1589TIP3    H126258   3.490   5.005  14.055 -0.4708  0.6049 -1.0343
 1589TIP3    H226259   3.379   4.903  14.072  1.2417 -1.0783  0.4043
 1590TIP3   OH226260   0.850   5.403   1.716 -0.4417 -0.4204 -0.0344
 1590TIP3    H126261   0.921   5.467   1.723 -1.1045  0.1017  3.0814
 1590TIP3    H226262   0.786   5.445   1.658 -1.3176  2.3669  2.6555
 1591TIP3   OH226263   1.001   2.038   4.296  0.1363  0.0887 -0.0893
 1591TIP3    H126264   0.999   2.077   4.383 -0.9884  1.1338 -0.5604
 1591TIP3    H226265   0.969   2.107   4.238 -1.4907 -1.3665 -1.0068
 1592TIP3   OH226266   4.072   5.063  12.518  0.0259 -0.2941 -0.4742
 1592TIP3    H126267   4.132   5.060  12.443  0.6474  0.7896 -0.0495
 1592TIP3    H226268   4.064   5.156  12.538 -1.0388 -0.4960  0.1012
 1593TIP3   OH226269   3.855   3.329  12.589 -0.6680  0.1069 -0.5704
 1593TIP3    H126270   3.770   3.294  12.565 -0.7593  0.1821 -0.3599
 1593TIP3    H226271   3.879   3.283  12.670 -0.2164 -0.3763 -0.9753
 1594TIP3   OH226272   6.580   2.881  11.747 -0.3834  0.1477  0.0231
 1594TIP3    H126273   6.648   2.930  11.792  0.4077 -0.1053 -0.8707
 1594TIP3    H226274   6.528   2.947  11.702 -1.2290  0.4100  1.3344
 1595TIP3   OH226275   3.118   0.064   3.140 -0.8746  0.4936 -0.4915
 1595TIP3    H126276   3.145   0.150   3.108 -2.3295  0.8012 -0.9679
 1595TIP3    H226277   3.044   0.040   3.085 -0.8718 -0.8024  0.0336
 1596TIP3   OH226278   6.112   3.581  16.648  0.1329  0.3264 -0.4524
 1596TIP3    H126279   6.075   3.599  16.562  1.4646  0.9242 -0.9233
 1596TIP3    H226280   6.072   3.499  16.675 -1.0686  0.6535 -1.1889
 1597TIP3   OH226281   5.318   4.673   5.870  0.4725 -0.1756  0.7173
 1597TIP3    H126282   5.224   4.693   5.870  0.0392 -1.9923  1.7138
 1597TIP3    H226283   5.354   4.728   5.940  0.6492  2.3203 -1.2133
 1598TIP3   OH226284   2.269   0.478   5.949 -0.2456 -0.1641 -0.3073
 1598TIP3    H126285   2.175   0.482   5.933 -0.1981  1.3112 -0.3290
 1598TIP3    H226286   2.285   0.541   6.019  0.9417  0.9228 -1.4817
 1599TIP3   OH226287   5.827   5.716   3.847  0.5116  0.2118 -0.5167
 1599TIP3    H126288   5.823   5.736   3.941  1.5711 -1.2611 -0.1037
 1599TIP3    H226289   5.839   5.621   3.844  1.6046  0.3599 -2.1101
 1600TIP3   OH226290   0.805   4.571   5.793 -0.1931 -0.0511  0.4405
 1600TIP3    H126291   0.810   4.652   5.843  1.8883 -0.1387  0.4513
 1600TIP3    H226292   0.892   4.531   5.803 -0.5593 -1.3356 -1.1150
 1601TIP3   OH226293   4.792   3.461  13.891  0.2428 -0.2934  0.5887
 1601TIP3    H126294   4.707   3.482  13.853 -0.4461 -3.0455  0.3553
 1601TIP3    H226295   4.843   3.427  13.817  1.4049  0.8577  0.8293
 1602TIP3   OH226296   5.695   1.850  17.002 -0.0127  0.2671 -0.1113
 1602TIP3    H126297   5.642   1.927  16.980  0.3239  0.3329 -0.7100
 1602TIP3    H226298   5.683   1.839  17.097  0.1386  1.2066  0.0280
 1603TIP3   OH226299   2.936   3.709   5.638  0.4038  0.0298 -0.1434
 1603TIP3    H126300   3.027   3.696   5.663  0.5167 -2.6653 -1.6079
 1603TIP3    H226301   2.932   3.685   5.546 -1.5638  1.3946 -0.4796
 1604TIP3   OH226302   0.669   0.268  15.865  0.3461 -0.0487  0.2673
 1604TIP3    H126303   0.705   0.355  15.851  0.3530 -0.2785 -1.2236
 1604TIP3    H226304   0.744   0.215  15.893  0.4797  0.2470  0.4735
 1605TIP3   OH226305   4.814   3.089  13.128  0.1175  0.1653 -0.4988
 1605TIP3    H126306   4.872   3.062  13.200  1.0556  1.9131 -0.5517
 1605TIP3    H226307   4.791   3.007  13.084 -1.0953 -1.0810  2.1850
 1606TIP3   OH226308   4.845   3.391   5.126  0.0502 -0.5735  0.3775
 1606TIP3    H126309   4.828   3.298   5.141  0.3702 -1.3531 -3.2289
 1606TIP3    H226310   4.937   3.402   5.152  0.2440 -1.4864  0.1350
 1607TIP3   OH226311   0.131   4.030  14.542 -0.0959 -0.0378  0.5462
 1607TIP3    H126312   0.168   4.063  14.624  1.0262 -0.2584  0.1400
 1607TIP3    H226313   0.139   4.103  14.481  1.0352 -0.5458  0.0562
 1608TIP3   OH226314   0.927   5.217  14.298  0.4645 -0.5254  0.1038
 1608TIP3    H126315   0.958   5.133  14.265 -0.4061 -0.1959 -1.6837
 1608TIP3    H226316   0.844   5.196  14.342  0.4043 -0.6461 -0.0656
 1609TIP3   OH226317   2.961   2.296  16.580  0.3504 -0.5621 -0.8789
 1609TIP3    H126318   2.935   2.332  16.665  0.7406 -1.4023 -0.3853
 1609TIP3    H226319   3.014   2.365  16.540  0.4432 -0.2834 -0.2876
 1610TIP3   OH226320   5.698   0.293  13.836  0.6539  0.1034  0.4258
 1610TIP3    H126321   5.672   0.239  13.911 -2.6545  0.1418 -0.4997
 1610TIP3    H226322   5.731   0.374  13.874  0.8342 -0.6015  1.8354
 1611TIP3   OH226323   5.724   0.892  10.842 -0.1560 -0.3382 -0.0864
 1611TIP3    H126324   5.699   0.927  10.756 -1.9056 -0.7962  0.2082
 1611TIP3    H226325   5.811   0.928  10.857 -0.2775  0.6742 -1.5444
 1612TIP3   OH226326   2.550   5.438  15.698  0.2728  0.4726  0.1176
 1612TIP3    H126327   2.512   5.505  15.641 -2.1393 -0.5446  0.4006
 1612TIP3    H226328   2.514   5.356  15.666  2.3105 -0.6264  0.4639
 1613TIP3   OH226329   3.702   6.146   2.881  0.1606 -0.3358  0.9121
 1613TIP3    H126330   3.705   6.052   2.900  1.5791 -0.7045 -0.8118
 1613TIP3    H226331   3.615   6.160   2.842  0.9322 -1.5648 -1.4299
 1614TIP3   OH226332   2.593   4.088   4.980  0.1040 -0.2173  0.4665
 1614TIP3    H126333   2.651   4.156   4.947 -0.2952  0.3695  0.9579
 1614TIP3    H226334   2.643   4.045   5.049  0.2352 -0.2116  0.3753
 1615TIP3   OH226335   6.530   0.082   1.894 -0.1362  0.0287 -0.2385
 1615TIP3    H126336   6.511  -0.006   1.862  0.3253  0.3484 -1.4873
 1615TIP3    H226337   6.528   0.137   1.815 -0.2824  1.1116  0.4921
 1616TIP3   OH226338   5.567   2.099  16.774  0.4356 -0.4708 -0.1860
 1616TIP3    H126339   5.661   2.118  16.766  0.8793 -2.5851 -0.5456
 1616TIP3    H226340   5.561   2.004  16.768 -1.7544 -0.3844 -0.1783
 1617TIP3   OH226341   3.393   2.127   2.756 -0.0354 -0.1825  0.0146
 1617TIP3    H126342   3.464   2.131   2.820  0.1993  0.9295 -0.2944
 1617TIP3    H226343   3.437   2.122   2.672 -0.3423 -0.9822 -0.1086
 1618TIP3   OH226344   1.827   5.323   0.747 -0.2054 -0.1756 -0.1226
 1618TIP3    H126345   1.858   5.402   0.790 -1.7711  0.8138 -0.6956
 1618TIP3    H226346   1.820   5.348   0.654 -1.6457 -0.6426 -0.1684
 1619TIP3   OH226347   0.558   5.146  15.502 -0.0313  0.2981  0.0613
 1619TIP3    H126348   0.525   5.058  15.519 -1.3576  0.3991 -1.7493
 1619TIP3    H226349   0.579   5.181  15.589  1.0648 -1.9689  0.7910
 1620TIP3   OH226350   0.797   1.289   1.439  0.1450  0.4444 -0.0323
 1620TIP3    H126351   0.800   1.224   1.368  2.5056  0.8357 -0.3687
 1620TIP3    H226352   0.848   1.250   1.509  2.2049  2.1402 -0.4897
 1621TIP3   OH226353   5.892   4.237  17.125  0.4670  0.4741  0.3615
 1621TIP3    H126354   5.955   4.300  17.162  0.5313  0.6321 -0.0184
 1621TIP3    H226355   5.931   4.209  17.043 -0.1161  0.8312 -0.0455
 1622TIP3   OH226356   5.264   3.129  16.761 -0.1963 -0.4516 -0.3237
 1622TIP3    H126357   5.270   3.218  16.726  0.0873 -0.6386 -0.7601
 1622TIP3    H226358   5.175   3.123  16.796 -0.0355  0.1866  0.2277
 1623TIP3   OH226359   3.153   2.227   1.841 -0.1391 -0.2873  0.5731
 1623TIP3    H126360   3.236   2.188   1.816 -0.1885  1.2324 -2.4074
 1623TIP3    H226361   3.175   2.316   1.868 -0.6595 -0.3159  1.1200
 1624TIP3   OH226362   6.086   4.864   3.566  0.7768 -0.1494 -0.0192
 1624TIP3    H126363   6.134   4.813   3.632  2.0317  2.5120  1.2766
 1624TIP3    H226364   6.155   4.902   3.511 -0.0675  0.6468 -0.5489
 1625TIP3   OH226365   5.279   2.701   2.762 -0.0774 -0.4194 -0.3210
 1625TIP3    H126366   5.350   2.651   2.803  0.4206  0.7858  0.3351
 1625TIP3    H226367   5.305   2.707   2.669  1.7131  1.5831  0.2132
 1626TIP3   OH226368   2.202   5.497  14.430 -0.3244  0.3647 -0.4679
 1626TIP3    H126369   2.113   5.468  14.409  0.1916 -0.6469 -1.3502
 1626TIP3    H226370   2.191   5.587  14.459 -1.7017  0.0826 -0.0372
 1627TIP3   OH226371   3.189   4.765  16.272  0.4692  0.1828 -0.5006
 1627TIP3    H126372   3.153   4.794  16.189  0.5255  0.9470 -0.2617
 1627TIP3    H226373   3.121   4.709  16.309 -0.1406  0.9500 -0.4354
 1628TIP3   OH226374   0.881   1.585  10.700  0.3546  0.3812  0.6474
 1628TIP3    H126375   0.802   1.623  10.737  1.2134  2.3630  0.6137
 1628TIP3    H226376   0.942   1.659  10.693  2.1946 -1.0539  0.6233
 1629TIP3   OH226377   6.327   5.672   2.139  0.0368  0.2331  0.2417
 1629TIP3    H126378   6.240   5.697   2.109  0.6930  0.2034 -1.8309
 1629TIP3    H226379   6.311   5.610   2.211 -1.6141  0.9873  0.5673
 1630TIP3   OH226380   4.030   0.694  13.715 -0.8028 -0.1075 -0.4411
 1630TIP3    H126381   3.966   0.625  13.698 -1.2849  0.2397 -0.0614
 1630TIP3    H226382   4.063   0.677  13.803 -1.9693  0.9373  0.2376
 1631TIP3   OH226383   4.107   1.256  10.816 -0.1653 -0.0322  0.6044
 1631TIP3    H126384   4.126   1.162  10.814  1.9367  0.3583 -0.9756
 1631TIP3    H226385   4.192   1.298  10.807 -1.0311  2.0597  1.5512
 1632TIP3   OH226386   5.056   2.129  11.753 -0.5556  0.2485 -0.0607
 1632TIP3    H126387   5.019   2.151  11.667  2.2523  0.9116 -1.2144
 1632TIP3    H226388   5.110   2.205  11.776  0.6140 -0.9074  1.1639
 1633TIP3   OH226389   5.415   0.610  13.429  0.0281  0.4102  0.2377
 1633TIP3    H126390   5.475   0.535  13.427  0.9800  1.1341  1.0491
 1633TIP3    H226391   5.358   0.593  13.504  0.3675  0.5847  0.5377
 1634TIP3   OH226392   5.084   0.874  16.296  0.1726 -0.0419  0.5104
 1634TIP3    H126393   5.105   0.911  16.381 -1.8361 -2.0870  2.0063
 1634TIP3    H226394   4.992   0.897  16.282 -0.0307 -1.2431 -0.2459
 1635TIP3   OH226395   1.177   0.553  12.532 -0.4650  0.0377  0.0949
 1635TIP3    H126396   1.095   0.575  12.488  0.2751 -0.2009 -1.4381
 1635TIP3    H226397   1.159   0.469  12.575 -1.0914  0.1018 -0.0251
 1636TIP3   OH226398   1.515   6.311  13.520  0.2512  0.6172  0.3292
 1636TIP3    H126399   1.557   6.236  13.480  1.0240  0.8468  0.6936
 1636TIP3    H226400   1.428   6.314  13.480  0.4025 -0.1486 -0.0748
 1637TIP3   OH226401   6.373   1.730  11.149  0.6554 -0.1006 -1.0786
 1637TIP3    H126402   6.309   1.744  11.218 -0.1974  0.8476 -2.0244
 1637TIP3    H226403   6.364   1.638  11.126 -1.2441  0.2819 -2.0074
 1638TIP3   OH226404   1.106   1.581   0.590 -0.1172  0.1274 -0.5602
 1638TIP3    H126405   1.083   1.645   0.524  1.8246  0.2305 -1.2112
 1638TIP3    H226406   1.187   1.615   0.629 -0.4613 -0.6372  0.8976
 1639TIP3   OH226407   2.514   0.724  12.805  0.5337  1.1750  0.1116
 1639TIP3    H126408   2.454   0.774  12.861  0.4222  0.7025  0.4210
 1639TIP3    H226409   2.591   0.781  12.796  2.1399 -0.1157  3.7391
 1640TIP3   OH226410   5.455   5.445  15.262 -0.2579 -0.2526 -0.1468
 1640TIP3    H126411   5.489   5.358  15.282  4.7484  1.4814  0.2652
 1640TIP3    H226412   5.431   5.481  15.348 -1.2078 -0.7674 -0.1838
 1641TIP3   OH226413   4.951   3.444  17.060 -0.2375  0.1233 -0.0344
 1641TIP3    H126414   4.910   3.463  17.144  0.9402  0.4104  0.4916
 1641TIP3    H226415   5.036   3.488  17.064  1.2683 -2.5488 -0.0572
 1642TIP3   OH226416   4.952   2.065  16.973  0.2980  0.2601 -0.0053
 1642TIP3    H126417   5.002   2.144  16.954 -0.7410  0.9007 -0.1973
 1642TIP3    H226418   4.880   2.095  17.028 -1.2096 -0.1685 -1.6287
 1643TIP3   OH226419   4.374   1.812  15.488  0.3875  0.4461  0.3575
 1643TIP3    H126420   4.448   1.759  15.518 -1.6751 -2.7924  0.2033
 1643TIP3    H226421   4.310   1.806  15.558 -1.7415 -1.3769 -1.5558
 1644TIP3   OH226422   2.306   0.551  12.435 -0.3612 -0.3786 -0.0539
 1644TIP3    H126423   2.309   0.529  12.342  1.1867 -0.7014  0.0576
 1644TIP3    H226424   2.245   0.487  12.473 -3.3376  1.5076 -1.2366
 1645TIP3   OH226425   1.261   3.459   5.512  0.8020 -0.1125 -0.2003
 1645TIP3    H126426   1.197   3.501   5.454  1.1349 -0.4791 -0.8391
 1645TIP3    H226427   1.207   3.408   5.573  0.2210  2.9334  2.0755
 1646TIP3   OH226428   2.651   0.079   6.145 -0.2217  0.1249  0.0652
 1646TIP3    H126429   2.614   0.157   6.104 -2.1105  0.3650  2.0042
 1646TIP3    H226430   2.735   0.066   6.102 -0.7826  2.0084 -1.7391
 1647TIP3   OH226431   5.158   3.636   2.631  0.2663  0.3667  0.3511
 1647TIP3    H126432   5.124   3.595   2.710 -1.6825 -0.4087 -0.8179
 1647TIP3    H226433   5.157   3.566   2.565 -0.9689  1.6747 -1.0928
 1648TIP3   OH226434   0.012   2.192  17.110  0.4290 -0.0499  0.3083
 1648TIP3    H126435   0.072   2.227  17.045  0.9386  0.0443  0.8197
 1648TIP3    H226436  -0.067   2.169  17.060  0.1984  1.4933 -0.1064
 1649TIP3   OH226437   1.204   6.158   6.378  0.3799 -0.8456  0.3591
 1649TIP3    H126438   1.233   6.245   6.404  2.2926 -0.9862 -1.0759
 1649TIP3    H226439   1.117   6.172   6.341  0.9222  0.5845 -0.4617
 1650TIP3   OH226440   5.461   5.816  16.814  0.2949 -0.9641 -0.0369
 1650TIP3    H126441   5.507   5.735  16.834 -1.2288 -1.8291  0.0869
 1650TIP3    H226442   5.523   5.866  16.761  1.4670 -1.9522  0.3498
 1651TIP3   OH226443   0.131   4.606  11.618 -0.3697 -0.0311  0.5800
 1651TIP3    H126444   0.217   4.647  11.623 -0.9278  1.1169  1.4797
 1651TIP3    H226445   0.148   4.514  11.601  1.0622  0.0190  1.6290
 1652TIP3   OH226446   5.292   2.236  14.796 -0.3317  0.2279  0.8612
 1652TIP3    H126447   5.249   2.155  14.768  0.2403  0.0681  0.4218
 1652TIP3    H226448   5.220   2.295  14.818 -0.9072  0.8341 -2.2169
 1653TIP3   OH226449   4.914   0.495   4.570  0.1879  0.5177 -0.0013
 1653TIP3    H126450   4.937   0.449   4.651 -2.1261 -0.2342  0.2818
 1653TIP3    H226451   4.859   0.568   4.599 -1.8787 -0.5932 -0.9361
 1654TIP3   OH226452   4.946   5.711  11.828  0.1801 -0.7415  0.1317
 1654TIP3    H126453   4.888   5.700  11.903  0.2663 -0.7914  0.1907
 1654TIP3    H226454   5.020   5.760  11.862  0.6689 -1.5862  0.3021
 1655TIP3   OH226455   0.882   1.788  14.352 -0.1787  0.2547  0.6684
 1655TIP3    H126456   0.927   1.855  14.403  0.1313 -0.9456  2.0637
 1655TIP3    H226457   0.825   1.744  14.415 -0.8212 -0.4096 -0.3416
 1656TIP3   OH226458   6.652   0.977   0.798  0.0798  0.2334 -0.3839
 1656TIP3    H126459   6.629   1.069   0.809 -0.4527 -0.0205  0.8153
 1656TIP3    H226460   6.682   0.949   0.885  1.4212 -0.4170 -1.0168
 1657TIP3   OH226461   2.411   5.229  15.593  0.1149 -0.0792  0.1415
 1657TIP3    H126462   2.410   5.134  15.584  0.0041 -0.0236 -0.5075
 1657TIP3    H226463   2.346   5.260  15.529 -0.2982  0.4034  0.7737
 1658TIP3   OH226464   2.560   4.482   3.679 -0.0160  0.2855 -0.8165
 1658TIP3    H126465   2.515   4.527   3.608  1.0773  0.2019 -1.5833
 1658TIP3    H226466   2.637   4.537   3.698  1.3537 -1.2142 -1.7742
 1659TIP3   OH226467   5.828   5.611  16.534  0.0460  0.1352  0.1576
 1659TIP3    H126468   5.864   5.645  16.452  0.3693 -0.5509  0.0120
 1659TIP3    H226469   5.851   5.518  16.534 -1.0123 -0.1376  0.4488
 1660TIP3   OH226470   2.848   3.268  12.068 -0.0670 -0.0115 -0.2007
 1660TIP3    H126471   2.923   3.326  12.077 -0.3458  0.2020  0.9736
 1660TIP3    H226472   2.793   3.288  12.144 -0.8070 -0.8883 -0.4811
 1661TIP3   OH226473   2.504   4.702  11.582 -0.3731  0.0012  0.1771
 1661TIP3    H126474   2.428   4.664  11.625 -0.6219 -1.5221 -1.5048
 1661TIP3    H226475   2.559   4.733  11.654 -2.0405  0.1203  1.4597
 1662TIP3   OH226476   2.001   2.535  12.541 -0.2814  0.5367  0.0119
 1662TIP3    H126477   2.003   2.568  12.630 -0.8988  1.1590 -0.1920
 1662TIP3    H226478   2.028   2.609  12.487  1.8456 -0.3408 -0.2186
 1663TIP3   OH226479   4.761   3.407   5.500  0.8712  0.7646 -0.2497
 1663TIP3    H126480   4.797   3.465   5.432  1.4053  0.4681 -0.2324
 1663TIP3    H226481   4.837   3.384   5.554  0.8265 -0.5537 -0.7081
 1664TIP3   OH226482   1.916   4.336   0.660 -0.7189 -0.3110  0.1685
 1664TIP3    H126483   1.920   4.303   0.749  0.5346  0.1047  0.2754
 1664TIP3    H226484   1.858   4.412   0.665 -2.3936 -1.5166  0.1956
 1665TIP3   OH226485   2.171   5.457  11.339  0.4654 -0.7279  0.1350
 1665TIP3    H126486   2.076   5.449  11.346  0.4181  0.0684  0.5041
 1665TIP3    H226487   2.196   5.508  11.416  0.9075  1.1661 -1.1920
 1666TIP3   OH226488   3.286   1.767  15.360 -0.9716  0.3098  0.1177
 1666TIP3    H126489   3.208   1.712  15.353 -0.0817 -1.5373  2.8839
 1666TIP3    H226490   3.353   1.708  15.396  0.5677  2.7624  1.5374
 1667TIP3   OH226491   2.052   2.031  11.327 -0.2748 -0.6524 -0.2253
 1667TIP3    H126492   1.965   2.025  11.367 -0.7120 -1.2927 -1.2280
 1667TIP3    H226493   2.110   1.990  11.391 -0.4248  1.1571  1.1633
 1668TIP3   OH226494   3.950   0.066  11.384 -0.0487  0.6919 -0.5126
 1668TIP3    H126495   3.904   0.021  11.313 -0.2622  1.5391 -0.9187
 1668TIP3    H226496   3.994   0.139  11.342  0.1643  0.9629  0.1681
 1669TIP3   OH226497   0.547   4.898  13.662 -0.0618 -0.1120 -0.0640
 1669TIP3    H126498   0.627   4.926  13.706  0.6209 -0.8151 -0.8200
 1669TIP3    H226499   0.540   4.955  13.586 -0.4611  0.1604  0.1757
 1670TIP3   OH226500   3.842   5.724   2.570  0.0142 -0.3091  0.3346
 1670TIP3    H126501   3.926   5.723   2.616 -0.3898 -1.4351  1.0779
 1670TIP3    H226502   3.866   5.728   2.477  0.9327 -1.7248  0.4917
 1671TIP3   OH226503   2.100   4.535  12.051  0.3058 -0.3015  0.0805
 1671TIP3    H126504   2.158   4.462  12.031 -0.1662 -0.5620 -0.3809
 1671TIP3    H226505   2.011   4.499  12.042  0.0637  0.0009  1.0969
 1672TIP3   OH226506   1.683   0.946  14.481 -0.1522  0.6287 -0.2591
 1672TIP3    H126507   1.762   0.967  14.432  0.5925  2.2778  1.5055
 1672TIP3    H226508   1.628   1.024  14.472  0.4116  1.4055  2.1740
 1673TIP3   OH226509   3.398   4.325   1.020 -0.3371 -0.3841 -0.3030
 1673TIP3    H126510   3.483   4.311   1.062  0.1543 -0.2230 -1.2307
 1673TIP3    H226511   3.338   4.268   1.068  0.2223 -0.2651  0.5704
 1674TIP3   OH226512   6.676   4.872   0.609 -0.0351 -0.2865  0.3265
 1674TIP3    H126513   6.644   4.941   0.550  1.6606  1.3400  1.2170
 1674TIP3    H226514   6.597   4.841   0.653 -0.7995  1.7267  0.5207
 1675TIP3   OH226515   6.062   1.941   4.766 -0.0248 -0.1504  0.0911
 1675TIP3    H126516   5.983   1.995   4.756  0.9837  1.2184 -0.7686
 1675TIP3    H226517   6.134   2.004   4.764  1.0873 -1.3377  1.2782
 1676TIP3   OH226518   2.207   3.471   1.613 -0.1430 -0.4567  0.1745
 1676TIP3    H126519   2.270   3.533   1.578 -0.1679 -0.9702 -0.8232
 1676TIP3    H226520   2.257   3.418   1.675  0.5214 -1.0854 -0.8606
 1677TIP3   OH226521   2.057   3.172   3.253 -0.9349  0.4728 -0.8064
 1677TIP3    H126522   2.106   3.241   3.209 -0.4064  0.4282 -0.3032
 1677TIP3    H226523   2.120   3.133   3.314 -0.4315 -2.1762 -2.8549
 1678TIP3   OH226524   5.422   2.138  13.193  0.2770  0.1871  1.0240
 1678TIP3    H126525   5.484   2.078  13.151 -0.6903 -1.0323  1.2778
 1678TIP3    H226526   5.435   2.221  13.149  0.7700 -0.5300 -0.2273
 1679TIP3   OH226527   1.709   0.617  14.613  0.5015  0.4657 -0.1368
 1679TIP3    H126528   1.727   0.693  14.669 -0.4585 -0.0663  0.9255
 1679TIP3    H226529   1.620   0.631  14.581  0.2163 -0.3463  0.2918
 1680TIP3   OH226530   2.960   5.860  15.066 -0.0746 -0.4087  0.4005
 1680TIP3    H126531   2.970   5.789  15.130 -5.1200 -0.9363  1.0186
 1680TIP3    H226532   2.969   5.817  14.981 -0.3410 -1.2175  0.7738
 1681TIP3   OH226533   3.961   1.257  17.066  0.1640 -0.3120 -0.7928
 1681TIP3    H126534   3.997   1.242  16.979  2.4321  1.6551 -0.3206
 1681TIP3    H226535   3.967   1.352  17.077  1.6075 -0.6286  2.0997
 1682TIP3   OH226536   6.386   2.244  14.177 -0.7456 -0.4356  0.2416
 1682TIP3    H126537   6.331   2.166  14.173 -0.5155 -0.5544 -1.3830
 1682TIP3    H226538   6.473   2.213  14.150 -0.4953  0.2485  0.2436
 1683TIP3   OH226539   5.931   4.175  11.318  0.1918 -0.6675  0.2548
 1683TIP3    H126540   5.949   4.247  11.378 -1.0355 -1.1073  1.2041
 1683TIP3    H226541   6.004   4.114  11.330  0.4027 -0.3343  0.6604
 1684TIP3   OH226542   2.688   0.877  12.287 -0.1752  0.1103  0.1882
 1684TIP3    H126543   2.710   0.967  12.265 -1.2052 -0.2872 -3.0391
 1684TIP3    H226544   2.594   0.878  12.303 -0.4634 -0.5600 -1.2949
 1685TIP3   OH226545   1.859   3.951   4.042  0.1295  0.1390  0.4364
 1685TIP3    H126546   1.774   3.991   4.028  1.4960  3.2736  0.3165
 1685TIP3    H226547   1.853   3.911   4.129 -1.7701 -0.7866 -0.0643
 1686TIP3   OH226548   3.085   0.007   2.584 -0.2431 -0.1453  0.1039
 1686TIP3    H126549   3.162  -0.011   2.530  0.8087  2.0375  0.7530
 1686TIP3    H226550   3.099  -0.043   2.664  1.7490  1.9181  1.1765
 1687TIP3   OH226551   3.103   2.748   0.035 -0.6373  0.1630  0.4758
 1687TIP3    H126552   3.067   2.833   0.060 -1.2266 -0.2916  1.2251
 1687TIP3    H226553   3.191   2.768   0.004 -0.5039  0.9709  1.3260
 1688TIP3   OH226554   1.682   1.307   0.377  0.1588 -0.5702  0.4106
 1688TIP3    H126555   1.648   1.336   0.461 -0.2961 -1.6243  0.5980
 1688TIP3    H226556   1.755   1.366   0.360 -1.2204  1.2570  0.3750
 1689TIP3   OH226557   3.004   6.274   0.336  0.5438  0.0044 -0.4665
 1689TIP3    H126558   2.925   6.221   0.345  0.2533  0.7317  2.3042
 1689TIP3    H226559   3.072   6.212   0.309 -0.5382 -1.0401 -0.8813
 1690TIP3   OH226560   6.284   4.939   0.528  0.5650  0.1723  0.0472
 1690TIP3    H126561   6.271   4.940   0.623 -0.9282 -1.0567 -0.1106
 1690TIP3    H226562   6.369   4.895   0.517  0.5706 -0.0228  0.7960
 1691TIP3   OH226563   1.586   2.423  13.257  0.1163  0.6487  0.2907
 1691TIP3    H126564   1.547   2.489  13.314 -0.4229  1.0797 -0.5465
 1691TIP3    H226565   1.640   2.473  13.196 -2.3306  0.7007 -2.0445
 1692TIP3   OH226566   6.380   1.096   4.588 -0.7140  0.3855 -0.1456
 1692TIP3    H126567   6.420   1.094   4.501 -0.4347  0.8698 -0.0329
 1692TIP3    H226568   6.410   1.015   4.630  0.8260  1.1167  0.2268
 1693TIP3   OH226569   2.942   2.667   2.126 -0.0882 -0.1800  0.4571
 1693TIP3    H126570   2.944   2.711   2.211 -1.3448 -0.4157  0.6331
 1693TIP3    H226571   3.001   2.718   2.071  0.1959  0.3945  1.2770
 1694TIP3   OH226572   5.486   0.697   5.030 -0.4734  0.8461  0.4262
 1694TIP3    H126573   5.556   0.721   4.969  0.0050  0.4601  0.8180
 1694TIP3    H226574   5.452   0.781   5.061 -1.4429  1.0735 -1.1697
 1695TIP3   OH226575   2.338   2.684  15.144  0.1099  0.0951  0.0415
 1695TIP3    H126576   2.260   2.732  15.118  0.7754  1.4074  0.3921
 1695TIP3    H226577   2.339   2.607  15.086  0.0675  1.4936 -1.9329
 1696TIP3   OH226578   3.049   1.901   1.148 -0.1748  0.4500 -0.3254
 1696TIP3    H126579   3.071   1.858   1.066  2.9520  0.5617  0.3299
 1696TIP3    H226580   3.132   1.908   1.195 -1.3931  2.7332  1.7557
 1697TIP3   OH226581   2.618   1.712   1.298  0.3906 -0.2377 -0.3955
 1697TIP3    H126582   2.656   1.627   1.321  0.2701 -0.1054  0.3229
 1697TIP3    H226583   2.690   1.774   1.307  0.3803 -0.2066 -0.5279
 1698TIP3   OH226584   0.862   4.487  15.320 -0.3643  0.0000 -0.3892
 1698TIP3    H126585   0.789   4.484  15.381 -0.2526 -0.3206 -0.2696
 1698TIP3    H226586   0.851   4.570  15.274  0.4108  0.9826  1.1322
 1699TIP3   OH226587   1.762   5.012   5.116 -0.0510  0.3015  0.1476
 1699TIP3    H126588   1.826   5.015   5.046 -0.3221  1.5070 -0.0765
 1699TIP3    H226589   1.768   5.098   5.158 -0.2015 -0.2411  1.3232
 1700TIP3   OH226590   1.760   0.304  12.515  0.0953 -0.1010  0.4441
 1700TIP3    H126591   1.772   0.232  12.577  2.6956  0.3185  0.5651
 1700TIP3    H226592   1.722   0.374  12.568 -0.5319 -0.7070  0.8169
 1701TIP3   OH226593   0.694   1.419  11.494 -0.3727  0.0473 -0.1507
 1701TIP3    H126594   0.693   1.505  11.452 -1.7274 -0.6597 -1.6518
 1701TIP3    H226595   0.772   1.421  11.549  1.4899  1.0995 -2.6090
 1702TIP3   OH226596   4.194   6.123  14.322 -0.0789  0.0640  0.6093
 1702TIP3    H126597   4.205   6.054  14.256 -1.7160 -1.0587  1.4123
 1702TIP3    H226598   4.181   6.203  14.271 -1.7749 -0.8461 -0.4924
 1703TIP3   OH226599   5.373   4.542   2.120 -0.4404 -0.1822  0.3711
 1703TIP3    H126600   5.352   4.451   2.097  1.5676 -0.0488 -2.4500
 1703TIP3    H226601   5.437   4.534   2.191  0.2277 -1.0352 -0.2983
 1704TIP3   OH226602   1.450   2.924  11.329  0.2444  0.1097 -0.2152
 1704TIP3    H126603   1.532   2.958  11.294  0.3408  0.5438  0.4084
 1704TIP3    H226604   1.386   2.992  11.311  0.5015  0.7930  1.3168
 1705TIP3   OH226605   3.747   1.401  12.651  0.1139 -0.5622 -0.3789
 1705TIP3    H126606   3.771   1.478  12.703  0.3441  0.5121 -1.9822
 1705TIP3    H226607   3.666   1.369  12.692 -2.0553  2.6831 -1.6508
 1706TIP3   OH226608   1.992   1.519   0.977  0.0501 -0.4510  0.6094
 1706TIP3    H126609   2.082   1.524   0.943 -0.8570 -1.6403 -2.2778
 1706TIP3    H226610   1.941   1.484   0.904 -2.7042 -0.3037  2.3335
 1707TIP3   OH226611   0.994   6.811  10.915 -0.3016  0.5450  0.7295
 1707TIP3    H126612   1.026   6.761  10.840 -0.5039  0.3106  0.8001
 1707TIP3    H226613   0.899   6.812  10.904 -0.2242  2.4039 -0.2275
 1708TIP3   OH226614   5.888   6.163  14.952  0.2936  0.2039 -0.0078
 1708TIP3    H126615   5.889   6.199  15.041  0.0345  0.7298 -0.2179
 1708TIP3    H226616   5.963   6.103  14.950 -0.8177 -1.3106  1.1853
 1709TIP3   OH226617   3.655   5.619   5.058 -0.2192  0.5834  0.7438
 1709TIP3    H126618   3.749   5.599   5.056 -0.0476  1.3889 -0.3501
 1709TIP3    H226619   3.613   5.533   5.066  0.5862  0.0738 -0.1411
 1710TIP3   OH226620   0.215   2.144   5.785 -0.3445 -0.3955 -0.1542
 1710TIP3    H126621   0.203   2.054   5.756  1.9110 -0.7434 -0.2227
 1710TIP3    H226622   0.255   2.188   5.710 -0.1919  0.3091  0.3328
 1711TIP3   OH226623   0.035   3.122  11.144  0.4850 -0.1712 -0.1095
 1711TIP3    H126624   0.073   3.204  11.175  0.5451 -0.5187  0.7790
 1711TIP3    H226625   0.039   3.064  11.220 -1.5427 -0.3232 -0.0618
 1712TIP3   OH226626   6.678   4.782  11.699 -0.2387  0.2767  0.3443
 1712TIP3    H126627   6.772   4.765  11.699  0.2098  2.3233  1.9920
 1712TIP3    H226628   6.638   4.697  11.719  1.1433 -0.8747 -1.5331
 1713TIP3   OH226629   3.687   4.488   3.050 -0.1816  0.1029  0.3082
 1713TIP3    H126630   3.658   4.486   2.959  1.1511  0.0484 -0.1432
 1713TIP3    H226631   3.692   4.581   3.072  0.2792  0.1406  0.0534
 1714TIP3   OH226632   3.122   3.138  12.711  0.5566 -0.2229 -0.0792
 1714TIP3    H126633   3.072   3.070  12.667  1.0520 -1.0892  0.6461
 1714TIP3    H226634   3.211   3.129  12.677  0.4904  0.4863 -0.4486
 1715TIP3   OH226635   0.483   4.260  14.189 -0.1429 -0.4407 -0.0409
 1715TIP3    H126636   0.400   4.238  14.146 -1.9203  0.3694  2.6997
 1715TIP3    H226637   0.484   4.206  14.268  1.6562  0.0531  0.3074
 1716TIP3   OH226638   6.656   0.138   0.348  0.3691  0.0167  0.1336
 1716TIP3    H126639   6.707   0.057   0.338  0.7768  0.3522 -0.6393
 1716TIP3    H226640   6.677   0.188   0.270 -1.3076  0.1029 -0.2960
 1717TIP3   OH226641   0.258   3.060  12.842 -0.0899  0.0834 -0.4063
 1717TIP3    H126642   0.306   2.978  12.837 -1.0104 -0.4856 -0.1614
 1717TIP3    H226643   0.236   3.069  12.935 -0.3964  0.3682 -0.5055
 1718TIP3   OH226644   0.787   5.044   3.094  0.3647 -0.0953  0.5640
 1718TIP3    H126645   0.873   5.060   3.057  0.8600 -0.8487  1.3353
 1718TIP3    H226646   0.779   4.948   3.095 -1.0701 -0.0207 -0.7975
 1719TIP3   OH226647   0.682   0.454  14.226 -0.5773 -0.0350 -0.3142
 1719TIP3    H126648   0.690   0.542  14.191 -0.5879  0.4601  0.8888
 1719TIP3    H226649   0.592   0.428  14.207 -0.1473 -0.4358 -2.0620
 1720TIP3   OH226650   5.756   6.820   2.874 -0.1088 -0.5470  0.7562
 1720TIP3    H126651   5.711   6.882   2.931  0.5310 -0.5280  1.2432
 1720TIP3    H226652   5.693   6.749   2.862  0.4059 -1.4498  3.0112
 1721TIP3   OH226653   0.169   2.763   4.549 -0.0470 -0.1095 -0.1278
 1721TIP3    H126654   0.111   2.769   4.625 -1.2767 -0.6224 -1.0133
 1721TIP3    H226655   0.120   2.713   4.485  1.4819 -0.7952 -0.8091
 1722TIP3   OH226656   2.819   1.482   4.408 -0.1337 -0.0526 -0.3102
 1722TIP3    H126657   2.839   1.395   4.443 -1.0308 -0.4722 -0.8079
 1722TIP3    H226658   2.905   1.522   4.393  0.2853 -0.7541  0.1468
 1723TIP3   OH226659   5.612   6.003  16.378 -0.0141 -0.0179  0.1147
 1723TIP3    H126660   5.586   6.048  16.298 -3.9099 -0.7914  0.7701
 1723TIP3    H226661   5.626   5.912  16.351  0.3593  0.0471  0.0753
 1724TIP3   OH226662   6.349   3.375   3.811  0.5748  0.3959  0.1130
 1724TIP3    H126663   6.360   3.290   3.853 -0.4851 -0.0377 -0.4510
 1724TIP3    H226664   6.373   3.438   3.878 -0.8451 -0.2780  1.3249
 1725TIP3   OH226665   6.480   3.166  17.147  0.1062  0.8053 -0.1195
 1725TIP3    H126666   6.440   3.081  17.164 -0.2622  1.0447  0.2472
 1725TIP3    H226667   6.441   3.195  17.065 -0.2576  0.9051  0.0851
 1726TIP3   OH226668   2.825   3.779   4.982  0.3010 -0.0780 -0.2509
 1726TIP3    H126669   2.763   3.804   5.051  0.9484 -0.0934  0.3473
 1726TIP3    H226670   2.820   3.850   4.918  0.1786  0.2672  0.1373
 1727TIP3   OH226671   6.497   2.199  15.742 -0.0194 -0.0499 -0.5489
 1727TIP3    H126672   6.408   2.195  15.777 -0.0392 -0.6114 -0.6523
 1727TIP3    H226673   6.548   2.242  15.811  0.0115 -1.4417  0.3495
 1728TIP3   OH226674   2.563   1.451  12.952  0.8995  0.3567  0.3434
 1728TIP3    H126675   2.549   1.544  12.934 -0.1673  0.2115  0.3209
 1728TIP3    H226676   2.564   1.410  12.866  1.7555  0.3852  0.3318
 1729TIP3   OH226677   6.203   3.527   0.279  0.1149 -0.3868 -0.3754
 1729TIP3    H126678   6.294   3.497   0.284  0.3858  0.6157  3.1611
 1729TIP3    H226679   6.152   3.448   0.264  1.3255 -1.5818  1.4814
 1730TIP3   OH226680   6.023   3.031   4.866  0.4021 -0.0453  0.5321
 1730TIP3    H126681   6.081   2.956   4.876  0.7562  0.2235  0.5372
 1730TIP3    H226682   5.936   2.993   4.857  0.5682 -0.4519  0.6035
 1731TIP3   OH226683   4.202   1.389   5.723  0.4559 -0.1083 -0.0687
 1731TIP3    H126684   4.266   1.429   5.664  1.9700  1.1323  2.2348
 1731TIP3    H226685   4.167   1.463   5.773 -0.3122 -1.1506  0.9759
 1732TIP3   OH226686   6.232   5.348   5.815  0.1098  0.5092 -0.8927
 1732TIP3    H126687   6.205   5.266   5.857  0.2810  0.8907 -0.0088
 1732TIP3    H226688   6.327   5.344   5.815  0.4169  2.4567  2.9942
 1733TIP3   OH226689   1.716   5.547  17.152  0.2544  0.4687 -0.3126
 1733TIP3    H126690   1.721   5.642  17.155 -0.1555  0.5104 -0.7806
 1733TIP3    H226691   1.798   5.517  17.191  0.2890  1.0105  0.0348
 1734TIP3   OH226692   1.737   5.037  15.922  0.3035  0.2472  0.1477
 1734TIP3    H126693   1.730   5.040  15.826 -0.2404  1.8725  0.2068
 1734TIP3    H226694   1.830   5.053  15.939  0.4410 -0.2564 -0.1094
 1735TIP3   OH226695   6.497   6.294  16.025 -0.2100  0.1863  0.1236
 1735TIP3    H126696   6.441   6.350  16.079  0.1425  0.4398  0.2314
 1735TIP3    H226697   6.546   6.241  16.088  1.6259  1.8261  0.1867
 1736TIP3   OH226698   0.251   2.081   2.784 -0.7681  0.2050  0.2268
 1736TIP3    H126699   0.163   2.119   2.784 -0.5926  0.6889  1.8467
 1736TIP3    H226700   0.258   2.036   2.868  0.9921  1.3437  0.7454
 1737TIP3   OH226701   5.260   2.153   3.023  0.2531  0.2566 -0.1825
 1737TIP3    H126702   5.245   2.181   2.933 -2.3115 -1.0573 -0.2715
 1737TIP3    H226703   5.326   2.084   3.017  1.6660  1.6247 -0.7500
 1738TIP3   OH226704   0.224   1.780  13.693  0.0709  0.3072 -0.1819
 1738TIP3    H126705   0.220   1.743  13.605  1.9964 -0.2966 -0.0610
 1738TIP3    H226706   0.189   1.869  13.683 -2.3837 -0.6571 -0.9484
 1739TIP3   OH226707   5.973   1.624   4.398 -0.4562 -0.1573  0.0926
 1739TIP3    H126708   5.881   1.601   4.411 -0.5498  0.1256 -0.0317
 1739TIP3    H226709   6.015   1.604   4.481 -0.1924 -2.2991 -0.5026
 1740TIP3   OH226710   0.367   6.132   2.788  0.0486 -0.2679  0.2590
 1740TIP3    H126711   0.454   6.102   2.760  0.4046  1.6209 -0.8952
 1740TIP3    H226712   0.367   6.119   2.883  2.5488  1.6953  0.6570
 1741TIP3   OH226713   0.110   0.987  11.362  0.4502 -0.3967 -0.6659
 1741TIP3    H126714   0.020   0.957  11.374  0.7534 -1.3316 -0.6327
 1741TIP3    H226715   0.146   0.989  11.451  0.2562  0.6867 -0.5996
 1742TIP3   OH226716   0.353   4.762   0.992  0.3920 -0.3194 -0.6136
 1742TIP3    H126717   0.260   4.745   1.002  0.1406 -0.2923 -2.4630
 1742TIP3    H226718   0.391   4.740   1.077 -1.1992 -0.9430 -0.0249
 1743TIP3   OH226719   6.670   6.514  10.692 -0.2022 -0.1628  0.1980
 1743TIP3    H126720   6.639   6.582  10.752 -0.6839 -1.3538  1.3608
 1743TIP3    H226721   6.759   6.496  10.721  1.1296  2.1165 -2.1121
 1744TIP3   OH226722   1.382   0.889  13.915  0.1370 -0.0251  1.3116
 1744TIP3    H126723   1.416   0.955  13.976  0.7046 -0.9435  2.0084
 1744TIP3    H226724   1.401   0.805  13.957  0.5401 -0.6874 -0.1242
 1745TIP3   OH226725   1.129   2.941  14.767  0.0884  0.1714  0.2178
 1745TIP3    H126726   1.123   2.915  14.859 -1.4360  0.3580  0.1989
 1745TIP3    H226727   1.156   3.033  14.770 -0.2860  0.2755  0.4988
 1746TIP3   OH226728   5.473   4.181  12.474  0.2480  0.2936 -0.5927
 1746TIP3    H126729   5.461   4.275  12.467 -0.0213  0.2660 -0.5315
 1746TIP3    H226730   5.475   4.150  12.383  0.8104  0.4153 -0.6213
 1747TIP3   OH226731   3.740   6.162  15.606  0.2507 -0.0418  0.6991
 1747TIP3    H126732   3.709   6.204  15.686  0.0603 -0.7819  1.0187
 1747TIP3    H226733   3.661   6.151  15.552  0.5504  1.6094 -0.1602
 1748TIP3   OH226734   5.086   5.873   0.029 -0.5533  0.3885  0.5387
 1748TIP3    H126735   5.002   5.840  -0.004 -1.1876  0.0589  2.3481
 1748TIP3    H226736   5.081   5.860   0.124  1.8902 -0.4452  0.6316
 1749TIP3   OH226737   4.325   2.841  13.691 -0.5243 -0.0192 -0.4254
 1749TIP3    H126738   4.243   2.877  13.724 -2.0125 -2.0916 -1.6441
 1749TIP3    H226739   4.362   2.910  13.637 -1.4815  0.9341  0.1110
 1750TIP3   OH226740   1.784   3.823   0.084 -0.2439  0.0601 -0.2288
 1750TIP3    H126741   1.873   3.820   0.120 -1.1262  0.9723  2.2137
 1750TIP3    H226742   1.759   3.731   0.077  0.3206 -0.1665  0.5728
 1751TIP3   OH226743   1.819   6.278   0.068  0.1804 -0.5183  0.0099
 1751TIP3    H126744   1.746   6.236   0.022 -0.4381  0.5171  0.0310
 1751TIP3    H226745   1.780   6.311   0.149  0.2161  1.6917 -0.8134
 1752TIP3   OH226746   0.574   4.052  12.370  0.0568  0.4464  0.5343
 1752TIP3    H126747   0.592   4.049  12.277  3.1489  0.9115  1.0214
 1752TIP3    H226748   0.492   4.102  12.377 -0.5534 -0.0948 -1.9041
 1753TIP3   OH226749   6.676   3.597   5.868  0.0410 -0.6830  0.4152
 1753TIP3    H126750   6.697   3.688   5.850 -1.0595 -0.3505  0.7431
 1753TIP3    H226751   6.710   3.549   5.792 -0.4287  0.1460 -0.3369
 1754TIP3   OH226752   1.481   4.271   5.346 -0.0369 -0.3600 -0.0749
 1754TIP3    H126753   1.492   4.302   5.256  0.5046 -1.1192 -0.2686
 1754TIP3    H226754   1.569   4.252   5.377 -0.2832 -0.8336  0.3573
 1755TIP3   OH226755   0.731   6.655  16.438 -0.0350 -0.0737  0.0935
 1755TIP3    H126756   0.803   6.667  16.501  0.1188 -0.3245 -0.0329
 1755TIP3    H226757   0.732   6.735  16.386 -0.0294  0.0463  0.2780
 1756TIP3   OH226758   5.833   1.966   2.181 -0.1535  0.3461  0.1265
 1756TIP3    H126759   5.891   1.943   2.254  0.0197  0.5542  0.0545
 1756TIP3    H226760   5.818   1.884   2.135  0.0379  0.2835  0.1773
 1757TIP3   OH226761   4.628   5.997   5.031 -0.1341  0.5837 -0.1499
 1757TIP3    H126762   4.696   5.942   5.070 -1.5012 -0.6431  0.5760
 1757TIP3    H226763   4.650   6.086   5.060  0.2559  0.0096  1.4466
 1758TIP3   OH226764   3.385   3.396   5.907  0.1428  0.2507 -0.0934
 1758TIP3    H126765   3.436   3.451   5.848  0.4977 -0.8390 -0.8371
 1758TIP3    H226766   3.351   3.456   5.973  0.5503  1.3408 -0.8528
 1759TIP3   OH226767   0.361   4.055   0.661  0.3715  0.3361 -0.2283
 1759TIP3    H126768   0.341   4.043   0.568 -3.2017  1.0958  0.3187
 1759TIP3    H226769   0.388   3.968   0.690  1.4051  0.0396 -1.8993
 1760TIP3   OH226770   6.370   1.635   6.130  0.9225 -0.7653  0.0666
 1760TIP3    H126771   6.360   1.597   6.218 -1.3892 -0.8099 -0.1318
 1760TIP3    H226772   6.324   1.573   6.073  1.9144 -0.4459 -1.1034
 1761TIP3   OH226773   2.933   6.471  12.448  0.0069  0.3648  0.3586
 1761TIP3    H126774   2.995   6.439  12.514  0.5204 -0.1939 -0.3866
 1761TIP3    H226775   2.864   6.405  12.446 -0.8773  1.1879  1.4885
 1762TIP3   OH226776   6.627   0.941   1.384  0.9016  0.4881  0.6328
 1762TIP3    H126777   6.602   1.012   1.442 -2.8596  0.3493 -0.5437
 1762TIP3    H226778   6.699   0.976   1.332  1.7062  1.9730  2.6397
 1763TIP3   OH226779   0.763   0.958  10.934 -0.2003 -0.1489 -0.1840
 1763TIP3    H126780   0.741   1.047  10.907  0.9900  0.1398 -0.2256
 1763TIP3    H226781   0.771   0.963  11.030  2.5013  0.4413 -0.3598
 1764TIP3   OH226782   0.102   3.619  12.423 -0.5522 -0.4745 -0.5393
 1764TIP3    H126783   0.105   3.536  12.470  0.8176  0.7540  1.7262
 1764TIP3    H226784   0.014   3.652  12.438 -0.1877 -0.1684  1.1709
 1765TIP3   OH226785   5.694   3.193  10.895 -0.3857  0.1220 -0.3019
 1765TIP3    H126786   5.683   3.250  10.819 -2.2935  0.0565 -0.1292
 1765TIP3    H226787   5.669   3.106  10.865  2.1415 -0.6450 -0.4567
 1766TIP3   OH226788   0.355   2.722   4.301 -0.5522  0.4838 -0.0008
 1766TIP3    H126789   0.293   2.793   4.319 -0.8460  0.2608 -0.1285
 1766TIP3    H226790   0.435   2.767   4.272 -0.2297  0.8330  1.3621
 1767TIP3   OH226791   2.296   1.445  13.729  0.4536 -0.0006 -0.2288
 1767TIP3    H126792   2.376   1.441  13.781  1.4137  0.7232 -1.6080
 1767TIP3    H226793   2.226   1.455  13.794  1.4282 -0.8819  1.0081
 1768TIP3   OH226794   2.152   0.796   4.360 -0.2662 -0.8167 -0.5060
 1768TIP3    H126795   2.096   0.871   4.343 -1.4371 -1.3585  0.7256
 1768TIP3    H226796   2.136   0.736   4.286  0.1396 -0.1858 -1.1195
 1769TIP3   OH226797   4.552   4.451  15.867  0.6069 -0.5874 -0.3383
 1769TIP3    H126798   4.605   4.409  15.934  0.1624 -3.0793 -1.4470
 1769TIP3    H226799   4.468   4.468  15.910  0.6467 -1.2554  0.0032
 1770TIP3   OH226800   1.166   2.771   2.037 -0.5745 -0.1778 -0.3923
 1770TIP3    H126801   1.155   2.771   1.941  0.5687 -1.0490 -0.5488
 1770TIP3    H226802   1.133   2.856   2.064 -0.0029  0.5031 -1.6965
 1771TIP3   OH226803   4.430   1.133  15.116 -0.5513  0.3277 -0.0633
 1771TIP3    H126804   4.487   1.075  15.166  0.0053  1.2335  0.3782
 1771TIP3    H226805   4.428   1.095  15.029 -1.0100 -0.9152  0.4627
 1772TIP3   OH226806   3.566   0.298   0.654 -0.2992  0.3275  0.4184
 1772TIP3    H126807   3.561   0.214   0.700 -1.2963  1.2542  2.0631
 1772TIP3    H226808   3.571   0.364   0.723 -1.4810  1.7530 -0.7912
 1773TIP3   OH226809   5.768   2.816   3.875  0.1991 -0.4995  0.0105
 1773TIP3    H126810   5.802   2.769   3.799 -3.0949 -1.2773 -1.1302
 1773TIP3    H226811   5.723   2.749   3.927  2.4032 -0.0115  2.8332
 1774TIP3   OH226812   5.544   5.108  10.891  0.3596  0.4011 -0.2688
 1774TIP3    H126813   5.592   5.036  10.851  1.3489  1.0484 -0.2747
 1774TIP3    H226814   5.546   5.178  10.826 -0.5634  0.4533 -0.2517
 1775TIP3   OH226815   3.921   5.198   1.963 -0.0551 -0.2460  0.0885
 1775TIP3    H126816   3.991   5.132   1.958 -1.1869 -1.4044 -1.4524
 1775TIP3    H226817   3.933   5.251   1.885 -0.5366 -0.0680  0.1342
 1776TIP3   OH226818   5.305   0.938   4.232 -0.9624  0.1367  0.1396
 1776TIP3    H126819   5.373   0.871   4.231 -0.4972  0.5988  0.3745
 1776TIP3    H226820   5.293   0.959   4.324 -0.7059  0.7651  0.0407
 1777TIP3   OH226821   3.437   0.487   2.202 -0.0522  0.2053 -0.1153
 1777TIP3    H126822   3.494   0.424   2.245  3.1735  1.7599 -1.7133
 1777TIP3    H226823   3.351   0.471   2.239  1.7400 -0.8415  4.2242
 1778TIP3   OH226824   4.066   5.386   6.567 -0.4644 -0.0336  0.2154
 1778TIP3    H126825   4.127   5.438   6.619 -1.0608  1.1824 -0.2703
 1778TIP3    H226826   4.053   5.437   6.487 -1.6352 -0.5669  0.0460
 1779TIP3   OH226827   2.064   0.739   2.927  0.0727  0.3755  0.0256
 1779TIP3    H126828   2.055   0.829   2.956 -3.1475 -0.0054  0.5910
 1779TIP3    H226829   1.978   0.717   2.889  0.3769 -2.7482  0.8667
 1780TIP3   OH226830   1.291   4.412  12.385 -0.1608 -0.3448  0.4482
 1780TIP3    H126831   1.204   4.422  12.422  0.6428 -0.3826  2.4494
 1780TIP3    H226832   1.341   4.365  12.452  1.6503  0.4876 -0.2539
 1781TIP3   OH226833   2.535   0.085  13.447 -0.0027 -0.1644  0.0881
 1781TIP3    H126834   2.622   0.048  13.444 -0.0431 -0.2500 -0.0173
 1781TIP3    H226835   2.502   0.077  13.358  0.3675  1.0343 -0.1738
 1782TIP3   OH226836   6.390   1.723  13.438 -0.5731 -0.0152  0.0839
 1782TIP3    H126837   6.447   1.684  13.503 -0.9308  0.7505  0.8856
 1782TIP3    H226838   6.358   1.803  13.480 -1.1828  0.2462 -0.8538
 1783TIP3   OH226839   0.349   6.291  11.265 -0.2201  0.3978  0.5852
 1783TIP3    H126840   0.428   6.323  11.222  1.8396 -1.1521  2.9535
 1783TIP3    H226841   0.317   6.220  11.209 -0.0833  1.1820 -0.4965
 1784TIP3   OH226842   0.039   5.073   4.727  0.3180 -0.0346 -0.6790
 1784TIP3    H126843   0.107   5.056   4.792 -0.4018  0.7873  0.3349
 1784TIP3    H226844   0.077   5.139   4.669  0.4303  0.3761 -0.1501
 1785TIP3   OH226845   4.711   6.024   6.194 -0.4373  0.9565  0.4723
 1785TIP3    H126846   4.790   6.066   6.227 -0.2857  1.3821 -0.4115
 1785TIP3    H226847   4.640   6.060   6.247 -0.2779  2.1327 -0.0720
 1786TIP3   OH226848   3.144   6.223   5.928  0.6993 -0.0799  0.4151
 1786TIP3    H126849   3.144   6.156   5.859 -0.3491  0.9962 -0.6918
 1786TIP3    H226850   3.051   6.241   5.944  0.9527  1.0302  0.7530
 1787TIP3   OH226851   1.420   2.177  11.470 -0.3660 -0.5970  0.2596
 1787TIP3    H126852   1.444   2.257  11.517 -1.1349  0.1548 -0.5880
 1787TIP3    H226853   1.452   2.106  11.525 -0.7938  0.2694  1.6610
 1788TIP3   OH226854   5.505   0.764  10.534 -0.1193  0.1724  0.4337
 1788TIP3    H126855   5.518   0.852  10.569  1.2386 -0.6004  1.9618
 1788TIP3    H226856   5.472   0.713  10.608 -1.6170 -0.4778 -0.6196
 1789TIP3   OH226857   5.246   1.678  11.789 -0.2166  0.8747  0.1563
 1789TIP3    H126858   5.215   1.588  11.781  2.2103 -0.2861  2.4170
 1789TIP3    H226859   5.179   1.723  11.841 -1.6972  0.6367 -1.4137
 1790TIP3   OH226860   6.587   3.430  13.184 -0.2220  0.1458 -0.6113
 1790TIP3    H126861   6.622   3.474  13.107  0.5054 -0.1236 -0.4431
 1790TIP3    H226862   6.623   3.478  13.258 -0.5001  0.0848 -0.4334
 1791TIP3   OH226863   0.537   3.309   1.340  0.5237  0.5347 -0.3808
 1791TIP3    H126864   0.543   3.237   1.276  0.0115  1.0945 -1.0797
 1791TIP3    H226865   0.456   3.354   1.317 -1.1908 -0.8910  2.4397
 1792TIP3   OH226866   1.290   3.260   0.144 -0.2135 -0.0235 -0.3949
 1792TIP3    H126867   1.294   3.355   0.133  2.0760 -0.2027 -1.8191
 1792TIP3    H226868   1.331   3.225   0.065 -2.6944 -2.3083 -0.8146
 1793TIP3   OH226869   3.602   5.622  15.321 -0.2972 -0.2049 -0.4150
 1793TIP3    H126870   3.696   5.625  15.337  0.0651 -2.0990 -1.7937
 1793TIP3    H226871   3.564   5.676  15.390  1.6118 -1.7194  2.0189
 1794TIP3   OH226872   0.717   6.116  12.479  0.1601 -0.4991  0.6351
 1794TIP3    H126873   0.732   6.154  12.565  0.2347 -0.9345  0.8165
 1794TIP3    H226874   0.634   6.155  12.450 -0.8056 -1.6702  1.6641
 1795TIP3   OH226875   2.710   5.664  13.604 -0.2290 -0.3493 -0.4918
 1795TIP3    H126876   2.679   5.751  13.630  0.3204 -0.8418  2.1701
 1795TIP3    H226877   2.786   5.682  13.549 -1.3353  0.8282 -1.7119
 1796TIP3   OH226878   4.156   2.879   0.182 -0.2849  0.1931  0.2059
 1796TIP3    H126879   4.100   2.805   0.207 -1.0353  1.0985  1.2599
 1796TIP3    H226880   4.177   2.862   0.090  0.5384 -1.9454  0.7097
 1797TIP3   OH226881   4.082   1.587  13.154  0.8620 -0.0642 -0.9875
 1797TIP3    H126882   4.092   1.618  13.064 -0.7241  0.7995 -0.8988
 1797TIP3    H226883   4.046   1.662  13.201 -0.8104 -1.2787 -0.2229
 1798TIP3   OH226884   4.774   5.310  14.757 -0.0708  0.1616 -0.2764
 1798TIP3    H126885   4.817   5.394  14.743 -0.5415  0.6277  0.9840
 1798TIP3    H226886   4.759   5.305  14.851 -0.8553 -0.9367 -0.4311
 1799TIP3   OH226887   2.894   1.086   4.230  0.5650 -0.4529  0.3533
 1799TIP3    H126888   2.834   1.024   4.187  1.6460 -2.0536  1.0327
 1799TIP3    H226889   2.936   1.133   4.158  0.6297 -1.4150 -0.2520
 1800TIP3   OH226890   4.106   2.993   0.994 -0.2220 -0.5313 -0.3623
 1800TIP3    H126891   4.176   2.969   1.055  0.9410  2.6437 -0.2353
 1800TIP3    H226892   4.047   2.917   0.994  1.6287 -2.1334  1.8592
 1801TIP3   OH226893   1.220   3.165   1.287 -0.3587 -0.1818  0.4042
 1801TIP3    H126894   1.242   3.159   1.194  1.9967  0.1489  0.8753
 1801TIP3    H226895   1.161   3.240   1.293  0.6238  0.7164 -0.6772
 1802TIP3   OH226896   4.343   5.539  12.867 -0.2793  0.0537 -0.1941
 1802TIP3    H126897   4.255   5.555  12.902  0.1481  0.1557  0.8776
 1802TIP3    H226898   4.361   5.615  12.812 -1.1313 -0.3057 -1.0119
 1803TIP3   OH226899   5.413   5.597   4.691 -0.3291  0.3556 -0.1174
 1803TIP3    H126900   5.326   5.631   4.711 -0.8428 -0.6262 -0.5862
 1803TIP3    H226901   5.403   5.502   4.695  1.1643  0.2036  1.6245
 1804TIP3   OH226902   2.798   0.635  12.462  0.1614 -0.0116 -0.3094
 1804TIP3    H126903   2.842   0.720  12.461 -0.2357  0.2245  1.0653
 1804TIP3    H226904   2.719   0.650  12.515  1.1356 -1.7414  1.7447
 1805TIP3   OH226905   6.697   1.501  15.223  0.1256  0.2933  0.9227
 1805TIP3    H126906   6.767   1.474  15.164 -0.8043  0.6541 -0.3779
 1805TIP3    H226907   6.729   1.583  15.261  0.9342 -0.1869  1.3080
 1806TIP3   OH226908   5.941   3.202   1.254 -0.2535 -0.1212  0.0772
 1806TIP3    H126909   5.969   3.264   1.186  0.0551 -0.2229  0.1090
 1806TIP3    H226910   5.917   3.123   1.206 -0.7938  0.0708  0.0238
 1807TIP3   OH226911   5.862   6.323  15.814  0.8557 -0.0848  0.2076
 1807TIP3    H126912   5.805   6.393  15.845  1.5667  1.7266 -2.3314
 1807TIP3    H226913   5.935   6.322  15.877 -0.2336 -0.0846  1.5068
 1808TIP3   OH226914   6.449   0.187  16.636  0.0622  0.2816 -0.1751
 1808TIP3    H126915   6.496   0.111  16.668  0.2652  0.8161  0.8518
 1808TIP3    H226916   6.507   0.261  16.655 -1.1468  0.9570  1.1562
 1809TIP3   OH226917   6.176   3.905  16.809 -0.0680 -1.0944  0.2504
 1809TIP3    H126918   6.248   3.968  16.807 -2.3431  1.6981 -0.1747
 1809TIP3    H226919   6.184   3.858  16.726  1.1382 -0.7015  0.1149
 1810TIP3   OH226920   2.154   4.539   5.592 -0.3208  0.0747 -0.0515
 1810TIP3    H126921   2.239   4.494   5.592  0.0916  0.7667  1.6852
 1810TIP3    H226922   2.151   4.585   5.508  0.8660 -0.2423 -0.2914
 1811TIP3   OH226923   1.199   4.955  14.069  0.0093 -0.5810  0.2083
 1811TIP3    H126924   1.239   4.893  14.008 -0.5725 -1.6860  0.9085
 1811TIP3    H226925   1.257   4.953  14.145  1.0875  1.2758 -0.5163
 1812TIP3   OH226926   1.631   2.781   5.117 -0.0425  0.3460  0.0366
 1812TIP3    H126927   1.583   2.752   5.040  0.4617  0.3668 -0.2924
 1812TIP3    H226928   1.640   2.875   5.107 -1.3001  0.5718  0.8899
 1813TIP3   OH226929   3.455   3.842   0.546  0.2478  0.2739 -0.2396
 1813TIP3    H126930   3.468   3.937   0.547  1.4736  0.1166  0.3948
 1813TIP3    H226931   3.458   3.817   0.639  2.3739 -0.6658 -0.5051
 1814TIP3   OH226932   4.809   5.685  13.098 -0.2979  0.0374  0.6775
 1814TIP3    H126933   4.727   5.644  13.069 -1.9516  3.3292  0.2061
 1814TIP3    H226934   4.843   5.730  13.021  1.6968 -0.7513  1.0256
 1815TIP3   OH226935   2.470   4.065  14.226 -0.4909  0.2193  0.0656
 1815TIP3    H126936   2.558   4.073  14.190 -0.1289 -0.4522  0.7671
 1815TIP3    H226937   2.421   4.138  14.188  0.6403  1.2097  0.4702
 1816TIP3   OH226938   1.714   6.062  10.489  0.2251 -0.4170 -0.5752
 1816TIP3    H126939   1.680   6.077  10.400  2.0998 -1.4129 -1.5096
 1816TIP3    H226940   1.689   5.972  10.509 -1.9260  0.4091  0.7812
 1817TIP3   OH226941   2.927   4.860  13.851 -0.6438 -0.2711  0.1921
 1817TIP3    H126942   3.019   4.838  13.866 -0.3774 -0.3797 -1.3845
 1817TIP3    H226943   2.885   4.775  13.834 -0.8587 -0.1482  0.1017
 1818TIP3   OH226944   2.366   0.237  13.872  0.4519 -0.0205 -0.2484
 1818TIP3    H126945   2.435   0.289  13.830 -0.3954  0.9812 -0.4444
 1818TIP3    H226946   2.329   0.296  13.938 -0.7822 -0.2292 -0.7353
 1819TIP3   OH226947   5.693   0.648  15.844  0.6485 -0.3465  0.9333
 1819TIP3    H126948   5.602   0.626  15.863  0.5816 -0.6452  0.3027
 1819TIP3    H226949   5.701   0.741  15.866 -0.0808 -0.0554  0.0292
 1820TIP3   OH226950   5.198   2.086   5.943  0.2751  0.3937 -0.0535
 1820TIP3    H126951   5.159   2.023   6.002  0.8910  1.2460  1.3156
 1820TIP3    H226952   5.283   2.108   5.982  1.0263  0.4751 -1.6151
 1821TIP3   OH226953   0.526   5.118  15.137 -0.0589 -0.5220  0.2519
 1821TIP3    H126954   0.566   5.059  15.201  2.0227 -0.6843 -1.1081
 1821TIP3    H226955   0.433   5.093  15.137  0.4707 -2.7351  0.8446
 1822TIP3   OH226956   4.447   5.026   4.241  0.1001  0.5591 -0.3877
 1822TIP3    H126957   4.482   5.051   4.327  1.2924 -1.0309 -0.3659
 1822TIP3    H226958   4.352   5.031   4.251  0.1782 -0.8922  1.4514
 1823TIP3   OH226959   2.555   6.124   6.265  0.2186 -0.4510 -0.2593
 1823TIP3    H126960   2.602   6.092   6.342  1.0383  1.4890  0.1141
 1823TIP3    H226961   2.612   6.104   6.191  1.4719  1.4269  0.1364
 1824TIP3   OH226962   2.362   5.572  14.912  0.1170 -1.2639  0.1295
 1824TIP3    H126963   2.302   5.646  14.905 -0.8118 -1.8725  1.2144
 1824TIP3    H226964   2.434   5.604  14.966  0.6525 -0.6031 -0.9665
 1825TIP3   OH226965   4.286   1.049   6.193 -0.8263 -0.4287 -0.1575
 1825TIP3    H126966   4.260   1.135   6.159  1.1760  0.3329  0.0763
 1825TIP3    H226967   4.315   1.067   6.283 -0.8822 -1.4550  0.0752
 1826TIP3   OH226968   5.890   3.860   0.499 -0.3130  0.0509  0.0795
 1826TIP3    H126969   5.906   3.792   0.434 -1.0599  0.8772 -1.0062
 1826TIP3    H226970   5.850   3.813   0.573 -0.6245 -0.7239 -0.5639
 1827TIP3   OH226971   5.557   6.204   0.671 -0.5412  0.6516 -0.1308
 1827TIP3    H126972   5.611   6.139   0.716 -0.5485  0.2440 -0.7098
 1827TIP3    H226973   5.468   6.184   0.698 -0.4463  1.1148  0.5596
 1828TIP3   OH226974   1.175   4.925  11.323 -0.1194 -0.3359  0.5960
 1828TIP3    H126975   1.131   5.002  11.287  2.3086  1.0200  0.2551
 1828TIP3    H226976   1.208   4.955  11.408  1.9193 -0.5074 -0.0678
 1829TIP3   OH226977   5.328   0.978  11.904  0.3332  0.2127  0.4423
 1829TIP3    H126978   5.391   0.942  11.840  1.3621 -1.2057  2.1543
 1829TIP3    H226979   5.352   1.070  11.912  0.3825  0.3436 -0.9684
 1830TIP3   OH226980   2.350   3.697   3.227  0.4666 -0.0909 -0.6343
 1830TIP3    H126981   2.342   3.619   3.282 -1.9799  0.2546 -0.3912
 1830TIP3    H226982   2.293   3.762   3.269  1.4287  1.4271 -1.5594
 1831TIP3   OH226983   0.784   5.624  13.462  0.2268 -0.8130 -0.2604
 1831TIP3    H126984   0.744   5.669  13.388 -1.9662 -0.0586  1.2677
 1831TIP3    H226985   0.749   5.534  13.457  0.6980 -0.9783 -0.5767
 1832TIP3   OH226986   2.681   0.238   1.232  0.2450  0.5826 -0.1992
 1832TIP3    H126987   2.673   0.312   1.172  0.6216  0.9696  0.2294
 1832TIP3    H226988   2.758   0.190   1.202 -0.4252 -0.0655 -0.9364
 1833TIP3   OH226989   0.719   2.268  12.120  0.0716  0.4938 -0.0353
 1833TIP3    H126990   0.625   2.251  12.123  0.0281  0.3661 -1.3713
 1833TIP3    H226991   0.738   2.282  12.027  1.4684 -0.0832  0.1319
 1834TIP3   OH226992   3.510   3.645   6.122 -0.4743 -0.1100 -0.1920
 1834TIP3    H126993   3.570   3.577   6.091  1.0557  1.2556 -0.3277
 1834TIP3    H226994   3.430   3.632   6.070  0.1794 -1.1224 -0.9724
 1835TIP3   OH226995   4.234   2.599  13.567  0.0461 -0.1800 -0.2872
 1835TIP3    H126996   4.264   2.624  13.480 -2.3779  0.0677 -1.1358
 1835TIP3    H226997   4.222   2.683  13.613  1.1440 -0.3022  0.2567
 1836TIP3   OH226998   1.563   2.369   0.326 -0.3967 -0.0280  0.2801
 1836TIP3    H126999   1.614   2.422   0.386 -1.1285 -2.1568  2.9434
 1836TIP3    H227000   1.480   2.355   0.371 -1.5502 -0.5828 -1.8658
 1837TIP3   OH227001   5.682   0.835  11.715 -0.1425  0.5190  0.2895
 1837TIP3    H127002   5.622   0.901  11.680 -0.7374 -0.3345 -0.3615
 1837TIP3    H227003   5.731   0.880  11.783 -0.9280  1.4754  0.2422
 1838TIP3   OH227004   4.571   3.939   1.179 -0.0736  0.3446 -0.2892
 1838TIP3    H127005   4.539   3.851   1.200  0.3823  0.2797  0.1699
 1838TIP3    H227006   4.503   3.977   1.123 -0.2245 -0.3369 -0.5796
 1839TIP3   OH227007   0.595   0.295   3.136  0.0771  0.6388 -0.2065
 1839TIP3    H127008   0.598   0.208   3.177  4.9726 -0.1080 -1.5479
 1839TIP3    H227009   0.596   0.277   3.042  0.1421  2.1603 -0.5177
 1840TIP3   OH227010   3.113   3.113  17.137 -0.3320 -0.4041 -0.1302
 1840TIP3    H127011   3.135   3.185  17.197  2.7860 -0.7951 -0.6046
 1840TIP3    H227012   3.093   3.039  17.194 -1.3244  0.2413  0.3742
 1841TIP3   OH227013   6.334   0.662   1.082 -0.4908  0.4556  0.5175
 1841TIP3    H127014   6.252   0.622   1.053 -0.0747  0.6878 -1.0284
 1841TIP3    H227015   6.392   0.589   1.100  0.4911  0.2451 -2.9341
 1842TIP3   OH227016   6.640   6.742   0.891  0.0934 -0.0317 -0.2489
 1842TIP3    H127017   6.616   6.651   0.876 -0.6560  0.0449  0.4246
 1842TIP3    H227018   6.694   6.766   0.815  0.5085 -1.1053 -0.3026
 1843TIP3   OH227019   5.377   4.557   0.567 -0.0541  0.3677 -0.7483
 1843TIP3    H127020   5.337   4.643   0.561 -0.7102  0.1585  0.4150
 1843TIP3    H227021   5.309   4.497   0.537 -1.1892 -0.1103  2.3992
 1844TIP3   OH227022   0.613   3.391   5.523 -0.5982 -0.1053  0.0105
 1844TIP3    H127023   0.592   3.484   5.514 -1.5682 -0.1477  1.4442
 1844TIP3    H227024   0.568   3.364   5.603  0.4190 -1.6003  0.1272
 1845TIP3   OH227025   5.028   3.834  15.462  0.1436  0.2816 -0.0060
 1845TIP3    H127026   5.016   3.928  15.479 -1.4683 -0.0490  0.9201
 1845TIP3    H227027   4.979   3.791  15.532 -0.9156 -1.2466 -1.6049
 1846TIP3   OH227028   0.170   6.367  13.501 -0.5999 -0.6280  0.1268
 1846TIP3    H127029   0.143   6.450  13.461 -3.2379 -1.9938 -1.1634
 1846TIP3    H227030   0.263   6.379  13.521 -0.5294  2.0883 -1.4097
 1847TIP3   OH227031   6.256   2.181   5.246  0.1507 -0.3452 -0.5763
 1847TIP3    H127032   6.165   2.158   5.260  0.3808 -0.8562  0.1088
 1847TIP3    H227033   6.266   2.267   5.287 -0.3192  0.3023 -1.7618
 1848TIP3   OH227034   0.322   3.428   5.374  0.1295 -0.3952 -0.0627
 1848TIP3    H127035   0.358   3.348   5.413  2.2205  0.7841  0.6214
 1848TIP3    H227036   0.400   3.480   5.351 -1.0744  0.2050 -3.2385
 1849TIP3   OH227037   2.333   6.656  15.966 -0.1038 -0.0791  0.5501
 1849TIP3    H127038   2.385   6.698  15.898 -0.2406  0.7711  0.9490
 1849TIP3    H227039   2.242   6.681  15.945 -0.4248 -1.9104 -0.3988
 1850TIP3   OH227040   0.138   4.046   1.343 -0.1885 -0.4864  0.4058
 1850TIP3    H127041   0.045   4.042   1.325 -0.2931 -0.0781  0.8347
 1850TIP3    H227042   0.147   4.111   1.413  0.5054  0.1901 -0.2823
 1851TIP3   OH227043   4.839   3.621  11.902 -0.1623 -0.0746 -0.1561
 1851TIP3    H127044   4.852   3.559  11.974 -2.4581 -0.4014  0.0525
 1851TIP3    H227045   4.833   3.706  11.944  2.5117  0.3396 -0.4033
 1852TIP3   OH227046   4.852   3.299  14.513 -0.5939 -0.3391 -0.4253
 1852TIP3    H127047   4.890   3.243  14.444  0.4342  0.8088 -0.8212
 1852TIP3    H227048   4.812   3.371  14.465  0.3570  0.6078  0.1785
 1853TIP3   OH227049   4.936   1.587  11.612  0.6641  0.3120 -0.7985
 1853TIP3    H127050   4.855   1.538  11.622  0.5790  0.6382  0.1823
 1853TIP3    H227051   4.997   1.545  11.673  1.6778 -0.8038 -2.4852
 1854TIP3   OH227052   4.641   5.051   5.537 -0.0361 -0.1730 -0.2529
 1854TIP3    H127053   4.732   5.033   5.513  0.5555  1.3119  0.7475
 1854TIP3    H227054   4.625   5.141   5.507  0.0190  0.9445  2.7033
 1855TIP3   OH227055   5.621   1.593  17.156 -0.2651  0.1428 -0.1331
 1855TIP3    H127056   5.540   1.628  17.119 -0.8588 -0.4496  0.5723
 1855TIP3    H227057   5.622   1.626  17.246 -0.6402 -1.3103  0.4213
 1856TIP3   OH227058   4.164   3.796   5.555  0.4550 -0.1870 -0.1318
 1856TIP3    H127059   4.103   3.736   5.598 -1.1128  0.6145 -1.1316
 1856TIP3    H227060   4.108   3.863   5.516  2.0329  0.9081 -0.6166
 1857TIP3   OH227061   2.731   2.225  12.110  0.0858  0.3400  0.0379
 1857TIP3    H127062   2.679   2.241  12.031  0.1801 -1.1388 -0.3491
 1857TIP3    H227063   2.800   2.291  12.107 -1.0225  1.5432 -0.0835
 1858TIP3   OH227064   0.858   0.367  14.401  0.0738 -0.2185 -0.5842
 1858TIP3    H127065   0.851   0.438  14.465 -0.9659 -0.0995 -0.8107
 1858TIP3    H227066   0.798   0.392  14.331  0.2159 -0.9917 -0.9912
 1859TIP3   OH227067   6.372   6.192  13.668  0.1550  1.0345 -0.0878
 1859TIP3    H127068   6.427   6.130  13.620 -1.8940  0.5589 -1.9882
 1859TIP3    H227069   6.369   6.269  13.611 -1.0619  1.0638  0.0048
 1860TIP3   OH227070   3.607   0.667   2.679 -0.1748 -0.1461  0.7239
 1860TIP3    H127071   3.533   0.648   2.736 -0.2181 -1.8353  0.1455
 1860TIP3    H227072   3.661   0.588   2.683 -0.7535 -0.8068 -2.4629
 1861TIP3   OH227073   0.754   5.354   2.287 -0.1100  0.1940  0.1675
 1861TIP3    H127074   0.836   5.314   2.258  0.0631 -0.3869  1.3925
 1861TIP3    H227075   0.781   5.433   2.333 -0.1449 -0.5750  1.5379
 1862TIP3   OH227076   0.030   4.273   1.548  0.6752  0.5524  0.0863
 1862TIP3    H127077   0.037   4.336   1.476  1.9031  0.0009 -0.3024
 1862TIP3    H227078  -0.020   4.319   1.615  0.0424  1.3053 -0.8634
 1863TIP3   OH227079   2.733   3.174   2.650 -0.3863 -0.6267 -0.9607
 1863TIP3    H127080   2.691   3.093   2.681 -0.4279  0.1053  1.0301
 1863TIP3    H227081   2.827   3.157   2.660 -0.4046 -0.3201 -0.1516
 1864TIP3   OH227082   5.263   6.509   0.695  0.0751  0.1637 -0.3582
 1864TIP3    H127083   5.190   6.558   0.733  0.2352  1.0729 -1.1648
 1864TIP3    H227084   5.268   6.541   0.605  1.1447 -0.2605 -0.4609
 1865TIP3   OH227085   4.795   5.117  16.327 -0.4949  0.8646  0.6778
 1865TIP3    H127086   4.848   5.192  16.352 -0.0171  1.0295 -0.7329
 1865TIP3    H227087   4.845   5.073  16.258 -1.6719  0.3999  0.0711
 1866TIP3   OH227088   3.474   3.435  16.617 -0.0503 -0.5973  0.5372
 1866TIP3    H127089   3.527   3.474  16.547 -1.2475  1.4558  0.6950
 1866TIP3    H227090   3.384   3.456  16.594 -0.4869  0.0128  2.5923
 1867TIP3   OH227091   0.387   6.791   1.919  0.0474 -0.2263  0.4777
 1867TIP3    H127092   0.413   6.703   1.894  0.0381 -0.0073 -0.3420
 1867TIP3    H227093   0.390   6.841   1.837 -0.2614  0.4540  0.8716
 1868TIP3   OH227094   0.180   2.614   5.016  0.4834 -0.0346  0.0340
 1868TIP3    H127095   0.136   2.674   4.957  0.2463 -0.3672 -0.1286
 1868TIP3    H227096   0.113   2.548   5.038 -0.1569  1.2856  2.4195
 1869TIP3   OH227097   5.270   5.604  16.091 -0.3217  0.1544  0.2618
 1869TIP3    H127098   5.358   5.627  16.121 -0.3842 -0.3161  0.8165
 1869TIP3    H227099   5.215   5.679  16.116 -0.0754  0.4742 -0.1383
 1870TIP3   OH227100   1.433   1.161  17.205  0.3053 -0.7897 -0.2298
 1870TIP3    H127101   1.450   1.187  17.115  1.4808 -0.4735  0.0732
 1870TIP3    H227102   1.518   1.167  17.249 -0.5786  0.9254  1.3717
 1871TIP3   OH227103   2.057   2.190   5.628  0.1911 -0.1558 -0.1612
 1871TIP3    H127104   2.043   2.275   5.669  0.2100 -0.1414 -0.1849
 1871TIP3    H227105   2.129   2.204   5.566 -1.2182  0.3613 -1.7726
 1872TIP3   OH227106   1.955   0.310   4.759  0.6458  0.1242 -0.2965
 1872TIP3    H127107   1.963   0.377   4.827 -0.3310  1.1111 -1.1171
 1872TIP3    H227108   2.028   0.326   4.700 -0.3861  1.4360 -1.2775
 1873TIP3   OH227109   6.681   3.840   1.165  0.1746 -0.2573 -0.1512
 1873TIP3    H127110   6.658   3.758   1.209  0.1648 -0.1858 -0.0227
 1873TIP3    H227111   6.764   3.821   1.121 -0.8172 -0.9634 -1.8310
 1874TIP3   OH227112   0.066   0.276   5.226  0.1072 -0.2140 -0.1195
 1874TIP3    H127113   0.160   0.283   5.214  0.1670  0.7138  0.7420
 1874TIP3    H227114   0.052   0.187   5.258  1.1408  0.7026  3.2418
 1875TIP3   OH227115   4.277   4.153  15.871 -0.0994  0.2210  0.1001
 1875TIP3    H127116   4.269   4.209  15.793  0.0422  1.4509  0.9379
 1875TIP3    H227117   4.264   4.064  15.838 -3.3720  0.9188 -0.8690
 1876TIP3   OH227118   1.175   1.506  13.541 -0.3327  0.1168  0.3282
 1876TIP3    H127119   1.242   1.529  13.606  0.9526 -0.5925 -0.7025
 1876TIP3    H227120   1.176   1.411  13.537  0.4633  0.1625 -1.5488
 1877TIP3   OH227121   5.891   0.720   0.040  0.3866 -0.2194 -0.1620
 1877TIP3    H127122   5.931   0.756  -0.039  1.9345 -2.5478 -0.5218
 1877TIP3    H227123   5.965   0.703   0.099 -0.6986  1.1651  1.7314
 1878TIP3   OH227124   2.637   4.502  15.326 -0.0902 -0.1019  0.4494
 1878TIP3    H127125   2.600   4.418  15.297 -0.0843 -0.0672  0.3406
 1878TIP3    H227126   2.564   4.563  15.320 -0.0560 -0.0668  0.3830
 1879TIP3   OH227127   6.455   5.669  16.600  0.0355 -0.0914 -0.1284
 1879TIP3    H127128   6.414   5.583  16.613  1.1722 -0.5225  0.6721
 1879TIP3    H227129   6.446   5.713  16.684  2.7632 -0.8838  0.6554
 1880TIP3   OH227130   6.307   3.870  17.118  0.5375  0.2331  0.0033
 1880TIP3    H127131   6.382   3.909  17.164  1.7038  0.4963 -1.9790
 1880TIP3    H227132   6.347   3.809  17.056 -0.9831 -0.4573 -0.3282
 1881TIP3   OH227133   6.315   3.940   5.471  0.3727 -0.1888 -0.0313
 1881TIP3    H127134   6.399   3.982   5.491  0.7664 -0.6216 -0.7065
 1881TIP3    H227135   6.340   3.855   5.434 -0.3577 -0.2041 -0.4983
 1882TIP3   OH227136   4.927   0.617  17.104 -0.0712  0.0452  0.4243
 1882TIP3    H127137   4.879   0.598  17.185 -0.2047  0.6431  0.4875
 1882TIP3    H227138   4.859   0.622  17.037  0.0231 -0.2755  0.2996
 1883TIP3   OH227139   5.411   6.341   5.130  0.1327  0.0948 -0.2460
 1883TIP3    H127140   5.479   6.331   5.197 -0.7717 -1.1705  0.5071
 1883TIP3    H227141   5.364   6.420   5.155  0.5005  0.2462 -0.0245
 1884TIP3   OH227142   5.694   4.334  12.386 -0.1216  0.5820 -0.1508
 1884TIP3    H127143   5.752   4.366  12.317  3.4859  1.5158  3.0027
 1884TIP3    H227144   5.628   4.402  12.396  0.6632  1.5228 -1.1364
 1885TIP3   OH227145   0.174   0.896  10.656  0.3962  0.1787  0.0313
 1885TIP3    H127146   0.183   0.927  10.566 -2.7610  0.9707 -0.1447
 1885TIP3    H227147   0.133   0.810  10.647 -0.9605  0.7303  0.6787
 1886TIP3   OH227148   3.128   5.377  16.211  0.8948 -0.4589  0.6116
 1886TIP3    H127149   3.165   5.297  16.175 -0.7441 -0.9149 -0.1427
 1886TIP3    H227150   3.096   5.352  16.298 -0.5402 -0.9086 -0.0292
 1887TIP3   OH227151   1.056   5.923  15.591  0.4074 -0.0990  0.7383
 1887TIP3    H127152   0.977   5.885  15.629 -0.0334  0.3687  0.2907
 1887TIP3    H227153   1.118   5.850  15.587  0.0148 -0.4605  1.1096
 1888TIP3   OH227154   0.484   4.440  15.171  0.1633  0.4192  0.0959
 1888TIP3    H127155   0.544   4.379  15.215  0.7999  1.0047  0.0585
 1888TIP3    H227156   0.540   4.493  15.114 -0.5008  0.4526 -0.5412
 1889TIP3   OH227157   5.432   6.581   4.406 -0.0141  0.6735 -0.2326
 1889TIP3    H127158   5.425   6.509   4.470 -1.2825  0.7486 -0.2599
 1889TIP3    H227159   5.523   6.610   4.412  0.4952 -0.8597 -0.1378
 1890TIP3   OH227160   1.466   2.623   2.313 -0.4490  0.3538  0.3388
 1890TIP3    H127161   1.405   2.595   2.382 -0.9409 -3.3084 -1.3613
 1890TIP3    H227162   1.546   2.575   2.332  0.1555  1.0440 -0.4167
 1891TIP3   OH227163   0.058   1.186   0.473  0.4073  0.0634 -0.5574
 1891TIP3    H127164   0.127   1.127   0.504 -0.1557 -0.7818 -0.8685
 1891TIP3    H227165  -0.024   1.146   0.504 -0.0201  0.3918 -1.2329
 1892TIP3   OH227166   1.314   6.129  15.291 -0.1733  0.3880 -0.1151
 1892TIP3    H127167   1.284   6.171  15.371 -0.2150  1.3009 -0.6012
 1892TIP3    H227168   1.270   6.044  15.291 -0.6928  0.6471  0.4917
 1893TIP3   OH227169   1.421   2.129  13.504  0.6239  0.1763  0.1211
 1893TIP3    H127170   1.447   2.087  13.422 -0.3693  0.3412 -0.2956
 1893TIP3    H227171   1.501   2.169  13.537  0.5762  2.4252 -2.1369
 1894TIP3   OH227172   1.593   5.361   1.672  0.1403  0.1994  0.1125
 1894TIP3    H127173   1.631   5.411   1.743 -0.2767  0.6089  0.0487
 1894TIP3    H227174   1.593   5.421   1.597  1.0138 -0.3721 -0.3737
 1895TIP3   OH227175   4.039   6.117  12.766  0.1993  0.2204 -0.1687
 1895TIP3    H127176   4.004   6.156  12.846  1.0067  0.0852  0.2586
 1895TIP3    H227177   4.131   6.146  12.763 -0.0510  0.9420 -1.4973
 1896TIP3   OH227178   0.251   4.488   4.494 -0.3005 -0.3542 -0.1968
 1896TIP3    H127179   0.258   4.552   4.424  1.0002 -0.3650 -0.1105
 1896TIP3    H227180   0.224   4.538   4.571 -1.8717 -0.3659 -0.7069
 1897TIP3   OH227181   4.618   1.913   2.401  0.1586 -0.2120 -0.2364
 1897TIP3    H127182   4.548   1.850   2.416  0.7254 -1.0312 -0.8960
 1897TIP3    H227183   4.653   1.890   2.315  0.8322  0.5704 -0.1900
 1898TIP3   OH227184   3.273   3.064  16.417  0.2921  0.5641 -0.0511
 1898TIP3    H127185   3.180   3.082  16.424  0.1795 -0.1252  0.3209
 1898TIP3    H227186   3.314   3.150  16.405 -0.6821  0.6968 -3.7737
 1899TIP3   OH227187   4.713   1.746  12.385  0.0050  0.1637 -0.0192
 1899TIP3    H127188   4.787   1.694  12.351  0.4164 -0.8705  2.2418
 1899TIP3    H227189   4.725   1.833  12.347  1.5291 -0.3815 -0.8785
 1900TIP3   OH227190   1.198   0.164   4.031  0.2176  0.1866  0.0390
 1900TIP3    H127191   1.266   0.113   4.076 -0.0153 -1.3941 -1.2887
 1900TIP3    H227192   1.223   0.255   4.044  0.6812 -0.2305  2.4999
 1901TIP3   OH227193   0.061   1.883  12.786 -0.1667  0.2982 -0.6469
 1901TIP3    H127194   0.018   1.903  12.869 -0.4579 -0.2880 -0.6511
 1901TIP3    H227195  -0.006   1.898  12.719  0.4783  2.2001 -0.9372
 1902TIP3   OH227196   6.035   0.094   2.811 -0.1574 -0.2476  0.3572
 1902TIP3    H127197   6.006   0.183   2.792  2.1131  1.4621  3.8471
 1902TIP3    H227198   5.958   0.052   2.850 -0.6717  0.9307  0.6549
 1903TIP3   OH227199   4.204   3.540  11.787 -0.1541 -0.1870 -0.4487
 1903TIP3    H127200   4.299   3.548  11.801 -0.2001 -0.4045  0.0120
 1903TIP3    H227201   4.193   3.542  11.692  0.2753  0.2747 -0.4915
 1904TIP3   OH227202   3.361   1.545   0.411 -0.2255 -0.0098 -0.2808
 1904TIP3    H127203   3.306   1.599   0.355 -0.1626 -1.0146 -1.3608
 1904TIP3    H227204   3.304   1.473   0.439  0.0058 -0.0114  0.2090
 1905TIP3   OH227205   6.038   5.877  11.501 -0.5258 -0.1780 -0.0575
 1905TIP3    H127206   5.962   5.825  11.524 -1.0604  0.2399 -0.8351
 1905TIP3    H227207   6.003   5.963  11.477  0.2669  0.2943  0.4152
 1906TIP3   OH227208   0.077   4.940  16.684 -0.1661 -0.1460 -0.4396
 1906TIP3    H127209   0.120   4.878  16.743  1.6709  1.0815 -0.3822
 1906TIP3    H227210   0.127   4.933  16.602 -0.6410  0.4723 -0.7910
 1907TIP3   OH227211   1.240   0.279   4.729  0.6214 -0.2259  0.2653
 1907TIP3    H127212   1.327   0.255   4.760  0.2489  0.5727  2.1184
 1907TIP3    H227213   1.234   0.373   4.745 -0.2940 -0.1222 -0.5998
 1908TIP3   OH227214   2.109   3.724  15.258  0.3001 -0.5155 -0.9203
 1908TIP3    H127215   2.072   3.704  15.344 -1.6687  0.9158 -1.3715
 1908TIP3    H227216   2.187   3.669  15.252 -0.2080 -1.5674  1.2573
 1909TIP3   OH227217   5.604   4.825  12.142  0.0963 -0.3284  0.2081
 1909TIP3    H127218   5.516   4.863  12.136  0.8977  1.6184 -0.1637
 1909TIP3    H227219   5.590   4.731  12.153 -2.0551  0.1401  2.1259
 1910TIP3   OH227220   6.506   4.945   1.432 -0.1657 -0.6883 -0.1730
 1910TIP3    H127221   6.490   4.997   1.511 -1.3977 -0.9174 -0.2593
 1910TIP3    H227222   6.577   4.992   1.387  0.3645 -0.3978  0.9136
 1911TIP3   OH227223   1.309   1.294   1.095  0.4165 -0.6590 -0.0702
 1911TIP3    H127224   1.387   1.252   1.130  0.0056 -2.5934 -1.3434
 1911TIP3    H227225   1.327   1.303   1.001 -0.8297 -1.0147 -0.3559
 1912TIP3   OH227226   4.748   3.787  12.613  0.3642 -0.5270 -0.5412
 1912TIP3    H127227   4.807   3.826  12.677  0.3856  0.3862 -1.0971
 1912TIP3    H227228   4.660   3.801  12.650  0.3319  0.6299 -1.0276
 1913TIP3   OH227229   2.069   1.554   1.482 -0.1026  0.6282  0.0913
 1913TIP3    H127230   2.069   1.489   1.552 -0.1365  2.2641  1.7029
 1913TIP3    H227231   2.158   1.590   1.482  0.0875  0.2003 -1.1765
 1914TIP3   OH227232   5.735   5.743   1.853 -0.9812 -0.4048  0.4286
 1914TIP3    H127233   5.640   5.736   1.853 -0.9714 -1.2685 -1.7466
 1914TIP3    H227234   5.756   5.793   1.932 -3.2961  0.6700  0.4175
 1915TIP3   OH227235   5.927   6.542  12.894 -0.1699 -0.7809 -0.1797
 1915TIP3    H127236   6.017   6.515  12.875  0.2155  1.2119 -1.5513
 1915TIP3    H227237   5.888   6.468  12.940  1.7260 -2.2699 -0.8679
 1916TIP3   OH227238   5.450   0.610  11.039  0.0632  0.5328  0.4513
 1916TIP3    H127239   5.396   0.584  10.963 -0.3839  0.2196  0.8714
 1916TIP3    H227240   5.504   0.533  11.057  2.0709  1.4623 -1.1495
 1917TIP3   OH227241   4.251   2.154   5.377  0.5328 -0.3357 -0.4173
 1917TIP3    H127242   4.194   2.092   5.424  3.4485 -3.1229 -0.1870
 1917TIP3    H227243   4.193   2.200   5.317 -2.3865 -0.8223  1.8183
 1918TIP3   OH227244   2.891   4.490  13.799  0.2010 -0.8019  0.5317
 1918TIP3    H127245   2.855   4.421  13.744 -0.2509 -0.8251  0.8465
 1918TIP3    H227246   2.967   4.522  13.752 -1.4196  0.7142 -1.2322
 1919TIP3   OH227247   2.916   0.986   2.291 -0.1679  0.0757 -0.1104
 1919TIP3    H127248   2.911   1.082   2.283 -2.1493  0.1740  1.4139
 1919TIP3    H227249   2.960   0.971   2.374 -0.3677 -0.3103 -0.0711
 1920TIP3   OH227250   3.305   2.581  16.825 -0.0634 -0.2573 -0.2815
 1920TIP3    H127251   3.335   2.651  16.767 -1.3111  1.9313  1.5582
 1920TIP3    H227252   3.371   2.512  16.814  1.9991  1.7080 -1.1959
 1921TIP3   OH227253   1.170   2.494   0.914 -0.3547 -0.7379 -0.1750
 1921TIP3    H127254   1.168   2.465   0.823  0.7975 -1.0657 -0.1173
 1921TIP3    H227255   1.151   2.415   0.965  0.9065 -1.0110 -0.0847
 1922TIP3   OH227256   0.917   4.232  12.673  0.0672 -0.0060 -0.1544
 1922TIP3    H127257   0.867   4.217  12.593 -0.5121 -0.0447  0.2094
 1922TIP3    H227258   0.863   4.292  12.725 -0.4735 -1.4562  1.0368
 1923TIP3   OH227259   6.366   1.743   3.216  0.0733 -0.1319  0.3954
 1923TIP3    H127260   6.371   1.761   3.310  2.0830  0.0908  0.3059
 1923TIP3    H227261   6.454   1.763   3.183 -0.6496  0.0647 -1.5919
 1924TIP3   OH227262   2.111   4.922   5.040 -0.4052 -0.6987  0.0763
 1924TIP3    H127263   2.067   5.007   5.039  0.6126 -0.1640 -0.4685
 1924TIP3    H227264   2.160   4.920   5.122  0.5161 -0.2425 -0.4432
 1925TIP3   OH227265   3.385   1.888   3.063 -0.6318  0.3614 -0.0706
 1925TIP3    H127266   3.314   1.941   3.027 -0.8541 -0.8442 -1.5620
 1925TIP3    H227267   3.350   1.854   3.145 -1.7478 -0.0607 -0.6838
 1926TIP3   OH227268   3.630   3.422   2.502  0.3226 -0.0217  0.6094
 1926TIP3    H127269   3.543   3.383   2.516 -0.6998  2.2317  1.0241
 1926TIP3    H227270   3.655   3.395   2.414 -0.5631 -1.1184  0.6748
 1927TIP3   OH227271   3.455   4.055   2.048 -0.0786 -0.5663 -0.0178
 1927TIP3    H127272   3.376   4.033   2.098 -0.6986 -2.0272 -1.5640
 1927TIP3    H227273   3.449   4.150   2.035 -1.6640 -0.6643 -0.2333
 1928TIP3   OH227274   1.871   2.770  17.232 -0.5658  0.2544  0.1561
 1928TIP3    H127275   1.932   2.820  17.177 -0.2907 -0.7324 -0.4653
 1928TIP3    H227276   1.834   2.835  17.292  0.0728  1.1245 -0.3644
 1929TIP3   OH227277   0.238   2.717  14.064 -0.2993 -0.1283  0.1336
 1929TIP3    H127278   0.146   2.697  14.084  0.1124 -0.3391  1.9190
 1929TIP3    H227279   0.283   2.633  14.066 -0.0945 -0.0590 -1.0032
 1930TIP3   OH227280   0.182   2.599  16.336  0.0287 -0.4613 -0.4158
 1930TIP3    H127281   0.153   2.677  16.290  0.4235 -0.9309 -1.5288
 1930TIP3    H227282   0.262   2.573  16.289  2.8503  1.2418  2.9497
 1931TIP3   OH227283   3.205   2.430   6.430  0.8650  0.6721  0.2043
 1931TIP3    H127284   3.234   2.498   6.369 -0.4091  1.1998  0.1425
 1931TIP3    H227285   3.110   2.428   6.419  0.9092 -1.3901 -0.0540
 1932TIP3   OH227286   3.421   0.318  15.586 -0.1812 -0.5215 -0.1620
 1932TIP3    H127287   3.512   0.301  15.611 -0.0395 -1.3845 -1.2368
 1932TIP3    H227288   3.407   0.409  15.611  1.6539  0.3167 -1.8915
 1933TIP3   OH227289   0.827   6.541   3.532  0.3597  0.2490  0.0876
 1933TIP3    H127290   0.831   6.542   3.436  0.5998 -0.7784  0.0664
 1933TIP3    H227291   0.778   6.619   3.556 -1.5402 -0.5459 -0.9886
 1934TIP3   OH227292   4.561   5.026  15.996 -0.4126  0.3708 -0.0055
 1934TIP3    H127293   4.556   5.053  16.088 -1.7312  0.7976 -0.1757
 1934TIP3    H227294   4.543   4.932  15.997 -0.2731  0.3452  0.1823
 1935TIP3   OH227295   5.935   1.481   0.002 -0.4379 -0.0271  0.1168
 1935TIP3    H127296   5.921   1.558  -0.053  1.5629  1.3645  1.4118
 1935TIP3    H227297   5.995   1.425  -0.048 -0.6304  0.0127 -0.1582
 1936TIP3   OH227298   4.924   5.990   1.185 -0.1467 -0.0565 -0.1327
 1936TIP3    H127299   4.994   5.935   1.219  0.5335  1.0295  0.2605
 1936TIP3    H227300   4.902   5.951   1.100  2.3568  0.7380 -1.2371
 1937TIP3   OH227301   3.816   3.287   4.911  0.0264  0.2969  0.6217
 1937TIP3    H127302   3.893   3.344   4.907  0.2497 -0.0503 -0.4254
 1937TIP3    H227303   3.813   3.256   5.001  0.3162  1.3891  1.0283
 1938TIP3   OH227304   1.266   5.864  16.875  0.2838 -0.1484 -0.0404
 1938TIP3    H127305   1.322   5.788  16.895  1.4730  0.8472  0.5634
 1938TIP3    H227306   1.281   5.924  16.948 -0.9476  0.5128 -0.3052
 1939TIP3   OH227307   3.431   0.593   0.267  0.3187  0.3273 -0.8713
 1939TIP3    H127308   3.502   0.590   0.203  0.2541  0.8941 -0.9711
 1939TIP3    H227309   3.474   0.574   0.351  0.8783  2.1453 -0.6990
 1940TIP3   OH227310   6.206   0.623   1.970  0.1391 -0.2272 -0.6732
 1940TIP3    H127311   6.252   0.705   1.953 -0.9944  0.6398  0.2776
 1940TIP3    H227312   6.275   0.561   1.994  1.0537  0.3101 -1.8179
 1941TIP3   OH227313   1.786   0.686   1.763 -0.5322  0.1212 -0.0135
 1941TIP3    H127314   1.729   0.629   1.814 -0.1905 -0.3744 -0.1867
 1941TIP3    H227315   1.750   0.684   1.675 -0.2256 -0.2224 -0.1319
 1942TIP3   OH227316   4.822   4.048  13.989  0.2118  0.3959  0.7012
 1942TIP3    H127317   4.727   4.034  13.982  0.2653 -0.7579  1.9165
 1942TIP3    H227318   4.856   4.027  13.902 -0.3721 -1.8797  0.9561
 1943TIP3   OH227319   5.558   6.314   3.761 -0.0325  0.0172 -0.0543
 1943TIP3    H127320   5.536   6.315   3.668 -0.8805  1.1365  0.1333
 1943TIP3    H227321   5.653   6.299   3.763 -0.0889 -0.6328 -1.0556
 1944TIP3   OH227322   0.869   1.643  12.742 -0.1014  0.0506 -0.3501
 1944TIP3    H127323   0.956   1.655  12.783  0.6425  1.3212 -2.1742
 1944TIP3    H227324   0.877   1.687  12.658 -2.7408  0.7347 -0.3066
 1945TIP3   OH227325   3.474   5.787   0.313  0.4887 -0.0622 -0.2914
 1945TIP3    H127326   3.526   5.865   0.332  0.3034  0.1483 -0.6277
 1945TIP3    H227327   3.429   5.768   0.395 -1.4270  1.6967 -0.8534
 1946TIP3   OH227328   1.827   4.878  12.962 -0.2158  0.3819 -0.2141
 1946TIP3    H127329   1.825   4.971  12.983  1.2332  0.4473 -0.2618
 1946TIP3    H227330   1.745   4.844  12.997 -0.5375  1.5794  0.2483
 1947TIP3   OH227331   3.875   5.293   4.466  0.1916  0.0478  0.0979
 1947TIP3    H127332   3.965   5.312   4.490  0.6379  0.2383 -1.5943
 1947TIP3    H227333   3.855   5.356   4.396 -1.4332  0.3573  0.8011
 1948TIP3   OH227334   5.462   6.092   5.026  0.3246  0.2512  0.3169
 1948TIP3    H127335   5.518   6.032   5.076  1.2250  0.7871 -0.0246
 1948TIP3    H227336   5.436   6.159   5.090 -1.0700 -0.7362  0.8165
 1949TIP3   OH227337   1.289   4.386   5.681 -0.3415 -0.1803 -0.1016
 1949TIP3    H127338   1.272   4.449   5.752  1.2460 -2.0636  2.1158
 1949TIP3    H227339   1.365   4.422   5.636 -0.2850  0.1647  0.2557
 1950TIP3   OH227340   4.996   5.249   4.255 -0.5898  0.2657 -0.4306
 1950TIP3    H127341   5.037   5.286   4.177 -0.4451 -0.2862 -0.6202
 1950TIP3    H227342   4.929   5.189   4.221 -0.8491  0.3836 -0.1305
 1951TIP3   OH227343   1.812   4.322  15.417 -0.1151  0.4395 -0.9000
 1951TIP3    H127344   1.786   4.257  15.352  2.2789  0.0608 -1.5654
 1951TIP3    H227345   1.801   4.406  15.373  1.4020  0.1919 -1.8249
 1952TIP3   OH227346   6.804   2.677   2.913 -0.3687 -0.0303  0.6474
 1952TIP3    H127347   6.756   2.617   2.856 -0.0164 -0.9449  1.2792
 1952TIP3    H227348   6.875   2.623   2.950  0.9155  1.1777  0.0288
 1953TIP3   OH227349   4.491   4.791   1.510 -0.1572  0.1090  0.0776
 1953TIP3    H127350   4.448   4.715   1.472 -1.1877  1.1023 -0.8560
 1953TIP3    H227351   4.432   4.819   1.580  0.0575  0.2113  0.2170
 1954TIP3   OH227352   3.950   3.991   2.056 -0.0868  0.1425 -0.0090
 1954TIP3    H127353   3.870   3.987   2.109 -1.1141 -1.1652 -1.5740
 1954TIP3    H227354   4.007   3.925   2.095 -0.3495  0.0330  0.1958
 1955TIP3   OH227355   5.077   6.615   2.215  0.3172 -0.3075 -0.1645
 1955TIP3    H127356   5.129   6.549   2.168  0.4801  0.2705 -0.8009
 1955TIP3    H227357   5.066   6.578   2.303 -0.0425 -1.4307 -0.6639
 1956TIP3   OH227358   2.379   6.307  11.365 -0.2361 -0.8261 -0.0674
 1956TIP3    H127359   2.465   6.343  11.387 -0.3961  1.4337 -2.5466
 1956TIP3    H227360   2.398   6.237  11.302 -0.1550  0.4801 -1.5718
 1957TIP3   OH227361   3.803   5.616   1.552  0.1330 -0.4875 -0.4624
 1957TIP3    H127362   3.734   5.633   1.616  0.2444 -2.2506  0.1834
 1957TIP3    H227363   3.820   5.701   1.511 -1.3230  0.2794  0.4563
 1958TIP3   OH227364   4.919   3.426   3.602  0.0981  0.1342 -0.3687
 1958TIP3    H127365   4.984   3.485   3.640 -0.7881 -0.4974  2.3140
 1958TIP3    H227366   4.836   3.472   3.609 -0.0160  0.2803 -2.2845
 1959TIP3   OH227367   2.152   1.689  13.016  0.2473  0.1797  0.3868
 1959TIP3    H127368   2.154   1.739  13.098 -0.0369 -1.0937  1.2046
 1959TIP3    H227369   2.104   1.609  13.039 -1.2057  0.4696 -1.4242
 1960TIP3   OH227370   5.553   4.685  16.060  0.0826 -0.2205 -0.1407
 1960TIP3    H127371   5.559   4.598  16.099 -1.0578  0.4383  1.6721
 1960TIP3    H227372   5.459   4.701  16.051  0.2423  1.1129  0.3088
 1961TIP3   OH227373   2.206   0.564  14.944  0.5650 -0.5017 -0.3908
 1961TIP3    H127374   2.269   0.541  14.876  0.6157 -0.5777 -0.3190
 1961TIP3    H227375   2.203   0.487  15.001  0.6690 -0.3635 -0.1971
 1962TIP3   OH227376   6.321   4.489  11.383  0.2205 -0.3101 -0.6221
 1962TIP3    H127377   6.325   4.395  11.366  1.0545 -0.1531 -1.3509
 1962TIP3    H227378   6.290   4.528  11.301 -1.9975 -0.0839  0.2475
 1963TIP3   OH227379   4.437   4.470   5.437  0.4820  0.3995  0.3043
 1963TIP3    H127380   4.390   4.447   5.517  0.9487  1.0529  0.7749
 1963TIP3    H227381   4.512   4.411   5.436  0.3221  0.1965  0.1962
 1964TIP3   OH227382   0.356   4.506  13.890 -0.5940  0.2343  0.1636
 1964TIP3    H127383   0.409   4.562  13.833 -1.6348  0.0722 -0.9907
 1964TIP3    H227384   0.358   4.420  13.847  0.3145 -0.4426  1.4826
 1965TIP3   OH227385   0.181   2.296   5.277  0.3613 -0.1313 -0.3205
 1965TIP3    H127386   0.172   2.229   5.209 -0.1587 -0.4135  0.0156
 1965TIP3    H227387   0.091   2.310   5.308  0.6508 -0.3618  0.6480
 1966TIP3   OH227388   4.033   2.674  11.511  0.1857  0.0122 -0.1608
 1966TIP3    H127389   4.068   2.762  11.525 -0.2660  0.2105 -0.2820
 1966TIP3    H227390   4.019   2.668  11.417 -1.6574  0.5346  0.0434
 1967TIP3   OH227391   1.820   0.797   0.445  0.2085  0.1752  0.5038
 1967TIP3    H127392   1.763   0.858   0.491  3.4781  3.3169  0.8658
 1967TIP3    H227393   1.806   0.816   0.352 -0.3679 -0.1131  0.5322
 1968TIP3   OH227394   4.398   3.840  15.479 -0.0103 -0.7444 -0.5520
 1968TIP3    H127395   4.359   3.775  15.420 -0.4158 -1.6273  0.6524
 1968TIP3    H227396   4.474   3.797  15.515  0.7335  0.1082 -1.0489
 1969TIP3   OH227397   2.472   3.121  12.952  0.4776 -0.5605 -0.0683
 1969TIP3    H127398   2.389   3.088  12.987  0.2204  0.3748  0.2169
 1969TIP3    H227399   2.482   3.208  12.990  0.6597  0.1186 -1.5807
 1970TIP3   OH227400   0.747   0.175   4.658  0.1614  0.2705  0.2248
 1970TIP3    H127401   0.777   0.208   4.573 -0.6846  0.6448  0.0636
 1970TIP3    H227402   0.700   0.095   4.638 -0.5612  0.6752  0.2657
 1971TIP3   OH227403   6.285   5.670   4.998 -0.8767 -0.4586 -0.1402
 1971TIP3    H127404   6.374   5.652   4.969 -0.8050 -0.6334  0.1912
 1971TIP3    H227405   6.259   5.591   5.046 -1.3938 -0.6230 -0.6694
 1972TIP3   OH227406   4.743   0.188   2.366 -0.5016 -0.1639  0.7695
 1972TIP3    H127407   4.679   0.174   2.297 -0.5242 -0.3245  0.8223
 1972TIP3    H227408   4.692   0.193   2.447 -0.5116  0.4087  0.7349
 1973TIP3   OH227409   2.317   5.300   5.292 -0.1432 -0.4394 -0.3648
 1973TIP3    H127410   2.308   5.383   5.245  1.1341  0.2114  0.4765
 1973TIP3    H227411   2.227   5.271   5.308 -0.5968  0.4445 -1.2368
 1974TIP3   OH227412   4.718   0.762  12.664  0.4180  0.1050  0.0152
 1974TIP3    H127413   4.640   0.798  12.705  0.9940  0.1562  1.1021
 1974TIP3    H227414   4.759   0.838  12.622  1.1521  0.5945  1.5356
 1975TIP3   OH227415   6.149   5.443  12.656  0.0921 -0.2956 -0.0974
 1975TIP3    H127416   6.218   5.442  12.723 -0.4102  0.0710  0.4353
 1975TIP3    H227417   6.151   5.531  12.621 -1.2083  0.2500  1.1047
 1976TIP3   OH227418   0.135   0.359   2.594  0.7733  0.3900 -0.1356
 1976TIP3    H127419   0.083   0.316   2.662  1.4527 -0.7681 -0.3273
 1976TIP3    H227420   0.209   0.398   2.641  1.5948 -0.9653 -0.2507
 1977TIP3   OH227421   0.932   5.061   0.317 -0.2219  0.0553 -0.3285
 1977TIP3    H127422   0.856   5.046   0.261 -0.6200 -0.2047  0.2624
 1977TIP3    H227423   0.900   5.119   0.386 -0.8026 -2.5191  1.7262
 1978TIP3   OH227424   5.203   2.360  11.828  0.1056  0.2157  0.1062
 1978TIP3    H127425   5.176   2.451  11.840 -0.6072  0.2243 -1.3708
 1978TIP3    H227426   5.287   2.365  11.783 -0.2387  0.1467 -0.5514
 1979TIP3   OH227427   4.147   5.607  11.302  0.1152  0.1345 -0.4663
 1979TIP3    H127428   4.224   5.567  11.262 -0.6294 -0.8552 -0.9471
 1979TIP3    H227429   4.167   5.701  11.305  1.0809 -0.0385 -1.1483
 1980TIP3   OH227430   0.792   2.551   2.080  0.5072 -0.2665 -0.2863
 1980TIP3    H127431   0.818   2.479   2.024 -0.6335 -0.1550 -0.9862
 1980TIP3    H227432   0.699   2.537   2.097  0.2401  1.0688 -0.4955
 1981TIP3   OH227433   1.316   4.642  12.626  0.0874  0.4187  0.0190
 1981TIP3    H127434   1.375   4.580  12.669 -0.3944 -0.2554 -0.2596
 1981TIP3    H227435   1.335   4.632  12.532 -0.1789  0.4925 -0.0461
 1982TIP3   OH227436   1.447   4.046   1.768 -0.7878  0.0173 -0.0347
 1982TIP3    H127437   1.493   3.964   1.786  0.1398  0.6221  0.4426
 1982TIP3    H227438   1.418   4.038   1.677 -2.8815 -1.8372  0.7119
 1983TIP3   OH227439   6.599   6.081   2.651  0.3104 -0.0382 -0.1019
 1983TIP3    H127440   6.541   6.033   2.591 -0.0708  0.4914 -0.1670
 1983TIP3    H227441   6.599   6.170   2.617  1.9042 -0.2103 -0.6339
 1984TIP3   OH227442   1.522   6.020   3.884  0.2195  0.2381 -0.4976
 1984TIP3    H127443   1.453   5.958   3.907  0.9719 -0.5163 -0.2495
 1984TIP3    H227444   1.529   6.078   3.960  0.1704  0.0410 -0.3429
 1985TIP3   OH227445   4.403   2.909   4.523  0.0011  0.4044  0.6181
 1985TIP3    H127446   4.454   2.985   4.549 -1.8404  2.6482 -1.7494
 1985TIP3    H227447   4.416   2.902   4.428 -0.5607 -1.7409  0.6445
 1986TIP3   OH227448   1.648   2.642   2.886 -0.4509 -0.6278 -0.0258
 1986TIP3    H127449   1.659   2.573   2.821 -0.2173 -0.9132  0.3157
 1986TIP3    H227450   1.554   2.640   2.907 -0.2113 -1.7964  1.0259
 1987TIP3   OH227451   1.211   4.245  13.925  0.1818 -0.0693 -0.2865
 1987TIP3    H127452   1.118   4.226  13.941  0.5432 -1.1150  0.7410
 1987TIP3    H227453   1.211   4.314  13.859 -1.3540  0.5481  0.3156
 1988TIP3   OH227454   2.122   5.405  16.492 -0.1218  0.1533 -0.8504
 1988TIP3    H127455   2.139   5.479  16.435  2.1108  0.2641 -0.1418
 1988TIP3    H227456   2.142   5.437  16.580  0.1369 -1.0599 -0.4405
 1989TIP3   OH227457   2.596   3.882   4.580 -0.4752 -0.0596  0.1535
 1989TIP3    H127458   2.643   3.856   4.502  1.7582 -0.1730  1.4651
 1989TIP3    H227459   2.663   3.913   4.641 -2.1122  0.0847  2.0227
 1990TIP3   OH227460   6.143   0.469  14.338  0.3309  0.2679  0.0436
 1990TIP3    H127461   6.120   0.559  14.363 -1.9030 -0.6215  1.5338
 1990TIP3    H227462   6.083   0.448  14.267  0.8633 -0.0705 -0.3159
 1991TIP3   OH227463   2.447   1.823  12.742 -0.4946  0.2005  0.5291
 1991TIP3    H127464   2.493   1.812  12.825  1.1957  2.9418  0.0964
 1991TIP3    H227465   2.516   1.822  12.676 -1.8247 -2.1667 -0.9525
 1992TIP3   OH227466   5.584   1.405   3.192 -0.6036 -0.0863 -0.1179
 1992TIP3    H127467   5.609   1.395   3.100 -1.0840 -0.5673 -0.2014
 1992TIP3    H227468   5.489   1.401   3.192 -0.5719 -1.2612  0.5238
 1993TIP3   OH227469   2.856   3.495  17.223 -0.3910  0.6260  0.0699
 1993TIP3    H127470   2.809   3.431  17.170  2.0801 -1.4905  0.2196
 1993TIP3    H227471   2.824   3.579  17.193 -1.7222 -0.5920 -2.1822
 1994TIP3   OH227472   3.588   6.454  12.963 -0.4819  0.2375  0.0227
 1994TIP3    H127473   3.582   6.366  12.925 -0.7138 -0.1136  0.8651
 1994TIP3    H227474   3.654   6.498  12.909 -0.2034 -0.5202 -0.2731
 1995TIP3   OH227475   0.583   3.318  12.960 -0.3229 -0.0661 -0.4031
 1995TIP3    H127476   0.660   3.372  12.975 -0.7477  0.6510 -0.7599
 1995TIP3    H227477   0.618   3.230  12.942  0.4434  0.4166 -1.3236
 1996TIP3   OH227478   6.242   4.563   1.501 -0.3745  0.0313  0.0004
 1996TIP3    H127479   6.184   4.570   1.425  0.8272  0.7574 -0.8947
 1996TIP3    H227480   6.196   4.505   1.561 -1.4620 -0.4023 -1.1991
 1997TIP3   OH227481   1.328   6.271   0.089  0.0332  0.1172  0.0309
 1997TIP3    H127482   1.338   6.364   0.073 -0.6624  0.0122 -1.1188
 1997TIP3    H227483   1.257   6.244   0.031  0.6337 -1.2432 -0.1132
 1998TIP3   OH227484   3.172   5.896  13.935 -0.0196  0.2797  0.6316
 1998TIP3    H127485   3.223   5.964  13.980 -1.3012  0.8191  1.3349
 1998TIP3    H227486   3.161   5.827  14.001 -0.0125  0.0656  0.4100
 1999TIP3   OH227487   3.264   5.193   1.800  0.2418  0.5573  0.5275
 1999TIP3    H127488   3.298   5.113   1.761  2.5212  1.2327  0.9396
 1999TIP3    H227489   3.239   5.167   1.889  1.6279  0.3848  0.9000
 2000TIP3   OH227490   6.453   1.655  14.850  0.2281  0.0283  0.4376
 2000TIP3    H127491   6.404   1.576  14.872  0.3352 -0.0804  0.2814
 2000TIP3    H227492   6.467   1.650  14.756 -1.7893  1.3633 -0.0177
 2001TIP3   OH227493   3.640   4.636  13.482 -0.4209  0.5981 -0.1770
 2001TIP3    H127494   3.590   4.716  13.493  0.1724  0.8791  0.5446
 2001TIP3    H227495   3.694   4.630  13.560 -0.0348 -0.2045 -0.4909
 2002TIP3   OH227496   6.461   0.649   0.269 -0.2781  0.2644 -0.0201
 2002TIP3    H127497   6.450   0.742   0.288 -0.0713  0.5317 -1.1420
 2002TIP3    H227498   6.497   0.646   0.180  0.2254 -0.8699  0.1999
 2003TIP3   OH227499   0.924   6.018  16.833  0.2799  0.6332 -0.5836
 2003TIP3    H127500   0.888   5.931  16.848  1.0143  0.4274  0.0249
 2003TIP3    H227501   0.945   6.051  16.920  0.3217  1.2883 -0.8339
 2004TIP3   OH227502   3.758   0.424   2.693  0.6814  0.4191  0.6329
 2004TIP3    H127503   3.801   0.443   2.609  1.9537  0.6206  1.3033
 2004TIP3    H227504   3.820   0.368   2.740 -1.2564 -2.1818  0.3159
 2005TIP3   OH227505   2.211   3.413   5.900  0.0700  0.2863 -0.2077
 2005TIP3    H127506   2.195   3.507   5.889 -1.6639 -0.1002 -1.2915
 2005TIP3    H227507   2.266   3.390   5.825 -0.7719  0.1653 -0.8008
 2006TIP3   OH227508   2.492   0.757  15.330 -0.3644 -0.0486 -0.3597
 2006TIP3    H127509   2.452   0.758  15.243  1.8034 -0.4268 -1.4258
 2006TIP3    H227510   2.503   0.850  15.352 -0.7518  0.0477 -0.5638
 2007TIP3   OH227511   0.213   0.698  12.364  0.3087  0.4346  0.2859
 2007TIP3    H127512   0.210   0.792  12.384  3.0152  0.6320  0.1653
 2007TIP3    H227513   0.301   0.684  12.328 -1.0601 -1.6179 -2.6479
 2008TIP3   OH227514   5.527   4.464  15.029 -0.5494  0.2276  0.1041
 2008TIP3    H127515   5.602   4.518  15.003 -1.3840  1.1201 -0.5436
 2008TIP3    H227516   5.451   4.509  14.991 -1.3228 -1.1769 -0.0676
 2009TIP3   OH227517   0.173   3.833  13.960  0.0326 -0.5065 -0.0588
 2009TIP3    H127518   0.153   3.793  14.045  0.7749 -0.6731  0.0454
 2009TIP3    H227519   0.254   3.789  13.932 -0.5945 -0.9676 -1.1870
 2010TIP3   OH227520   1.308   3.172  12.001  0.2533  0.3625  0.0450
 2010TIP3    H127521   1.347   3.162  11.914 -0.2007 -0.7632 -0.0587
 2010TIP3    H227522   1.324   3.087  12.043  0.6834  0.9843  1.1571
 2011TIP3   OH227523   2.179   1.394  16.333 -0.1195 -0.5100  0.2913
 2011TIP3    H127524   2.202   1.301  16.341 -0.8813 -0.5919  1.9659
 2011TIP3    H227525   2.226   1.436  16.405 -0.3135  0.2990 -0.0477
 2012TIP3   OH227526   4.962   0.324   1.002  0.5159 -0.2283 -0.6023
 2012TIP3    H127527   4.996   0.235   1.011  1.1929  0.1431  0.6345
 2012TIP3    H227528   5.027   0.369   0.948  0.1166 -0.5028 -1.3233
 2013TIP3   OH227529   3.060   1.196  12.668  0.5875 -0.5440  0.1298
 2013TIP3    H127530   2.972   1.175  12.699  0.4615  0.7676  0.7441
 2013TIP3    H227531   3.106   1.225  12.747  1.2985 -0.3644 -0.3460
 2014TIP3   OH227532   0.072   1.115  14.300 -0.1104 -0.4658  1.1021
 2014TIP3    H127533   0.117   1.136  14.381  0.4233  0.6480  0.5447
 2014TIP3    H227534   0.106   1.029  14.275  0.1423 -0.5607  1.7644
 2015TIP3   OH227535   6.314   3.829  11.412 -0.2348 -0.1901  0.1767
 2015TIP3    H127536   6.391   3.810  11.358 -1.7371 -2.0785 -1.4427
 2015TIP3    H227537   6.250   3.762  11.387 -3.1370  2.4350 -0.0059
 2016TIP3   OH227538   4.950   1.767  17.228  0.0197  0.2078  0.5019
 2016TIP3    H127539   4.917   1.748  17.316  0.1373 -2.5009  0.0505
 2016TIP3    H227540   4.878   1.744  17.169  1.4218 -2.7767 -0.2918
 2017TIP3   OH227541   6.820   1.904  16.774  0.3313  0.3057 -0.1878
 2017TIP3    H127542   6.901   1.947  16.802  1.2083 -1.6368  0.4820
 2017TIP3    H227543   6.826   1.900  16.679  1.4854 -0.6004 -0.0988
 2018TIP3   OH227544   2.303   6.374   6.626  0.7127  0.0474 -0.1595
 2018TIP3    H127545   2.284   6.434   6.554 -0.3929 -1.4104 -1.1342
 2018TIP3    H227546   2.228   6.380   6.684  1.3769  0.8497  0.6414
 2019TIP3   OH227547   5.483   2.258   3.914 -0.3938 -0.0882 -0.2986
 2019TIP3    H127548   5.439   2.286   3.834 -1.0501  2.8461  0.9419
 2019TIP3    H227549   5.414   2.254   3.979  0.6555  2.0124  1.0724
 2020TIP3   OH227550   2.472   2.633  13.395  0.6152 -0.0759  1.0972
 2020TIP3    H127551   2.413   2.575  13.442  0.3993  0.8627  2.0058
 2020TIP3    H227552   2.463   2.718  13.438 -0.9795  1.3672 -1.7415
 2021TIP3   OH227553   0.753   4.099  16.622 -0.0448  0.0664  0.4095
 2021TIP3    H127554   0.748   4.020  16.675  0.9316  0.5596  1.2939
 2021TIP3    H227555   0.846   4.106  16.598 -0.7011 -1.1979 -3.0931
 2022TIP3   OH227556   3.648   3.317   0.910  0.1405 -0.1456 -0.1033
 2022TIP3    H127557   3.721   3.342   0.967  0.2177 -0.5704 -0.0126
 2022TIP3    H227558   3.641   3.222   0.920 -1.6295  0.0813  1.3528
 2023TIP3   OH227559   6.130   1.697   4.186 -0.8239  0.1823 -0.2798
 2023TIP3    H127560   6.077   1.680   4.264 -0.2606  0.9330  0.2831
 2023TIP3    H227561   6.196   1.760   4.215 -0.3879  0.2080 -1.2802
 2024TIP3   OH227562   6.814   1.169  13.337 -0.0616  0.3099  0.5047
 2024TIP3    H127563   6.832   1.131  13.423  0.5161  0.1140  0.2970
 2024TIP3    H227564   6.885   1.231  13.323 -0.8895  1.3417  0.7557
 2025TIP3   OH227565   4.608   0.395  14.742  0.3411  0.4855  0.4719
 2025TIP3    H127566   4.669   0.468  14.755 -0.1772  0.9728  0.2184
 2025TIP3    H227567   4.558   0.420  14.664  1.0946 -0.7893 -0.4557
 2026TIP3   OH227568   1.950   0.103   3.025 -0.1397 -0.5003 -0.9556
 2026TIP3    H127569   1.863   0.093   2.987 -1.1923  0.7171  0.9493
 2026TIP3    H227570   1.974   0.194   3.005 -0.5696  0.0531  0.8639
 2027TIP3   OH227571   5.030   0.162   2.249 -0.2611  0.3987 -1.3360
 2027TIP3    H127572   5.016   0.181   2.156  0.0573 -1.9741 -1.9404
 2027TIP3    H227573   4.942   0.162   2.287 -0.4402  0.8619 -1.7464
 2028TIP3   OH227574   3.945   3.216   0.502 -0.1261  0.1882 -0.4700
 2028TIP3    H127575   3.931   3.161   0.579 -0.6813  1.4409  0.3571
 2028TIP3    H227576   3.943   3.155   0.428 -2.2358 -0.7436  0.2747
 2029TIP3   OH227577   4.764   4.343   3.331  0.1134  0.1912  0.1495
 2029TIP3    H127578   4.741   4.334   3.238 -0.4076  1.6757  0.1062
 2029TIP3    H227579   4.724   4.426   3.358  0.3728 -0.1456  1.6737
 2030TIP3   OH227580   2.880   2.864   4.440  0.2305 -0.1018 -0.1409
 2030TIP3    H127581   2.919   2.797   4.383  1.6576  1.7157 -1.4417
 2030TIP3    H227582   2.942   2.872   4.512  0.5265  0.4317 -0.4524
 2031TIP3   OH227583   5.098   6.497   5.682 -0.0441  0.6385  0.1108
 2031TIP3    H127584   5.063   6.408   5.683 -0.4362  0.7868 -0.0988
 2031TIP3    H227585   5.104   6.521   5.774 -0.0517  0.4369  0.1645
 2032TIP3   OH227586   5.540   0.819   4.138 -0.0243 -0.2604  0.5449
 2032TIP3    H127587   5.596   0.747   4.107 -0.1282  0.5878 -1.8680
 2032TIP3    H227588   5.598   0.894   4.144 -0.1885 -0.2083  1.7572
 2033TIP3   OH227589   3.922   5.895  10.696 -0.4399  0.8363 -0.1634
 2033TIP3    H127590   3.924   5.816  10.642 -0.0054  0.4556  0.3898
 2033TIP3    H227591   3.974   5.959  10.646 -1.1361  0.9103 -0.8064
 2034TIP3   OH227592   5.118   0.180   6.619 -0.5307  0.0432  0.2287
 2034TIP3    H127593   5.093   0.247   6.682 -0.9753  0.7316 -0.6658
 2034TIP3    H227594   5.152   0.108   6.673 -1.2613  0.4569  1.2687
 2035TIP3   OH227595   6.525   3.795  11.238 -0.2452 -0.0172  0.6234
 2035TIP3    H127596   6.563   3.731  11.178  0.6087  0.1424  0.9720
 2035TIP3    H227597   6.589   3.801  11.310 -1.2934 -0.2950  1.6080
 2036TIP3   OH227598   5.075   0.864   1.399  0.1866 -0.1071  0.2874
 2036TIP3    H127599   4.994   0.907   1.425  0.1322  0.2120 -0.3941
 2036TIP3    H227600   5.089   0.796   1.465 -0.6806 -0.2150  0.3623
 2037TIP3   OH227601   6.033   5.874  14.448  0.0431 -0.4322 -0.4140
 2037TIP3    H127602   6.040   5.805  14.514 -0.1069 -0.1095 -0.0576
 2037TIP3    H227603   5.951   5.857  14.403  0.1084 -0.6084 -0.4658
 2038TIP3   OH227604   5.385   1.855  16.509 -1.0251 -0.3369  0.0657
 2038TIP3    H127605   5.453   1.814  16.455 -1.3967 -0.4891 -0.2963
 2038TIP3    H227606   5.364   1.789  16.575  1.4071  0.8668  2.1874
 2039TIP3   OH227607   1.167   4.098  12.324  0.0772 -0.1970 -0.0389
 2039TIP3    H127608   1.228   4.041  12.278  0.3345  0.5672 -0.6502
 2039TIP3    H227609   1.217   4.177  12.344 -0.7214  0.4761 -0.6179
 2040TIP3   OH227610   0.064   4.800   3.174  0.2815 -0.4725  0.0386
 2040TIP3    H127611   0.062   4.768   3.084 -2.6653  0.0149 -0.1474
 2040TIP3    H227612   0.144   4.853   3.179  0.0439  0.2461 -2.5539
 2041TIP3   OH227613   1.539   2.753   5.696 -0.2593  0.0141  0.7460
 2041TIP3    H127614   1.469   2.773   5.634  0.2630  1.4923  0.5742
 2041TIP3    H227615   1.496   2.705   5.767 -0.9438 -1.3193 -0.5301
 2042TIP3   OH227616   6.341   0.604   0.733  0.4504 -0.1861  0.6678
 2042TIP3    H127617   6.426   0.647   0.741  0.8451 -0.8145 -0.1617
 2042TIP3    H227618   6.339   0.569   0.644 -0.8718  0.2345  0.4988
 2043TIP3   OH227619   3.719   3.524   1.886  0.4208  0.0899  0.5561
 2043TIP3    H127620   3.668   3.594   1.925  0.3250 -0.5351  1.5911
 2043TIP3    H227621   3.735   3.552   1.796  2.2365  2.4503  1.5018
 2044TIP3   OH227622   6.577   3.482   2.474 -0.0537  0.0574 -0.6562
 2044TIP3    H127623   6.549   3.537   2.548 -2.4677  0.2160 -1.5748
 2044TIP3    H227624   6.665   3.453   2.497  0.0442  1.7070  1.3447
 2045TIP3   OH227625   0.165   6.600   4.693 -1.0157  0.3926 -0.1808
 2045TIP3    H127626   0.099   6.550   4.740  0.1690 -1.1600 -0.0867
 2045TIP3    H227627   0.118   6.635   4.617 -1.8460 -1.0668 -0.3815
 2046TIP3   OH227628   2.330   3.834   4.677 -0.2903  0.1264 -0.2413
 2046TIP3    H127629   2.308   3.856   4.767 -1.4698  0.2636 -0.5519
 2046TIP3    H227630   2.420   3.867   4.666 -0.1420  0.1218  0.8657
 2047TIP3   OH227631   3.335   1.987   2.212 -0.4056 -0.8232  0.0825
 2047TIP3    H127632   3.249   1.993   2.170 -1.1450  0.4937  1.6927
 2047TIP3    H227633   3.332   1.906   2.262 -0.1576 -1.5034 -0.9656
 2048TIP3   OH227634   2.655   1.974  17.130 -0.3330 -0.0711 -0.3696
 2048TIP3    H127635   2.616   1.911  17.190 -0.3432  0.9329  0.7042
 2048TIP3    H227636   2.747   1.947  17.124 -0.4124 -0.3863 -0.1791
 2049TIP3   OH227637   3.885   6.101  17.093  0.1115  0.1596  0.4705
 2049TIP3    H127638   3.958   6.140  17.045  0.2487 -0.4043  0.2167
 2049TIP3    H227639   3.808   6.149  17.062  0.3860  0.8638  0.8594
 2050TIP3   OH227640   5.613   0.943   2.774  0.1361 -0.1823  0.8881
 2050TIP3    H127641   5.706   0.921   2.775 -0.1737 -1.5609  1.7192
 2050TIP3    H227642   5.568   0.859   2.772 -1.1056  0.4024  2.2824
 2051TIP3   OH227643   0.432   3.589  16.445 -0.4535 -0.0392 -0.1280
 2051TIP3    H127644   0.435   3.590  16.349  2.1267 -0.5661 -0.1256
 2051TIP3    H227645   0.424   3.496  16.468 -2.3098  0.1606  0.2226
 2052TIP3   OH227646   0.835   5.086   6.146 -0.7817 -0.2187  0.4727
 2052TIP3    H127647   0.839   5.014   6.209 -0.1417 -1.3040 -0.7379
 2052TIP3    H227648   0.922   5.126   6.150 -0.8225 -0.1284  0.4595
 2053TIP3   OH227649   2.062   6.430   4.098 -0.2774 -0.0627 -0.2491
 2053TIP3    H127650   2.130   6.497   4.096  0.2016 -0.5310 -2.2526
 2053TIP3    H227651   2.073   6.387   4.183  1.7421  0.0761 -0.3961
 2054TIP3   OH227652   5.711   3.938   1.045  0.1476  0.2361 -0.1186
 2054TIP3    H127653   5.732   3.845   1.036 -1.0179  0.0778 -1.6450
 2054TIP3    H227654   5.674   3.946   1.133 -1.7591 -1.2012 -0.7222
 2055TIP3   OH227655   1.732   0.585   4.724  0.6045  0.1572 -0.0151
 2055TIP3    H127656   1.761   0.659   4.670 -0.1993  1.9232  1.8397
 2055TIP3    H227657   1.690   0.526   4.662  0.8375  1.4849 -1.5184
 2056TIP3   OH227658   3.211   5.913   1.922  0.2967 -0.0626 -0.0184
 2056TIP3    H127659   3.174   5.920   1.834 -2.3061 -0.6098  0.9142
 2056TIP3    H227660   3.164   5.980   1.973  1.6964  0.2006  0.9983
 2057TIP3   OH227661   0.310   0.737   3.823  0.1667  0.1393  0.0504
 2057TIP3    H127662   0.220   0.728   3.791  0.4354 -0.7506 -0.5011
 2057TIP3    H227663   0.351   0.799   3.764 -0.0377  0.4176  0.2002
 2058TIP3   OH227664   2.107   6.288  11.492  0.4318  0.0028  0.0571
 2058TIP3    H127665   2.079   6.225  11.426 -0.8819  0.6739 -0.0528
 2058TIP3    H227666   2.192   6.319  11.460  0.8535 -1.3129 -0.1451
 2059TIP3   OH227667   3.722   6.444  14.551  0.3100  0.3787 -0.3228
 2059TIP3    H127668   3.667   6.395  14.612 -1.2090  1.0629 -1.0847
 2059TIP3    H227669   3.692   6.534  14.560  0.4151  0.5619 -1.6868
 2060TIP3   OH227670   5.490   1.076   2.133  0.2074 -0.9987 -0.5317
 2060TIP3    H127671   5.441   1.001   2.100  0.2914 -0.8838 -0.9200
 2060TIP3    H227672   5.528   1.116   2.055 -2.6312  1.4708 -0.8638
 2061TIP3   OH227673   1.373   2.045  11.116 -0.2596  0.6154  0.5098
 2061TIP3    H127674   1.312   2.056  11.043  0.2939 -0.6708 -0.1674
 2061TIP3    H227675   1.365   2.126  11.166 -0.5089  1.6008 -1.0752
 2062TIP3   OH227676   1.154   3.016  13.978  0.0934 -0.3522  0.2248
 2062TIP3    H127677   1.197   2.954  14.038 -0.1793 -0.2406  0.5372
 2062TIP3    H227678   1.062   3.013  14.002  0.1882  0.8188  0.8401
 2063TIP3   OH227679   6.325   1.137  14.603 -0.2590  0.0200 -0.0058
 2063TIP3    H127680   6.340   1.052  14.562 -0.9217  0.0257 -0.2709
 2063TIP3    H227681   6.301   1.196  14.531  3.0215  1.2110 -0.2913
 2064TIP3   OH227682   0.473   3.472  16.074  0.3863  0.4094  0.2054
 2064TIP3    H127683   0.473   3.567  16.069  1.0161  0.6123  2.8065
 2064TIP3    H227684   0.562   3.449  16.101  1.2446 -1.2277 -3.4194
 2065TIP3   OH227685   5.103   1.417  11.744  0.1768 -0.3089 -0.2717
 2065TIP3    H127686   5.185   1.371  11.762  0.7091  0.7761  0.1857
 2065TIP3    H227687   5.035   1.360  11.779  0.7143 -1.3084 -0.8161
 2066TIP3   OH227688   1.221   4.485  11.168  0.6214 -0.1796  0.7676
 2066TIP3    H127689   1.217   4.474  11.263 -1.0482  0.9349  0.8465
 2066TIP3    H227690   1.154   4.426  11.134 -0.8049  1.5479  0.4944
 2067TIP3   OH227691   2.008   5.519   1.458 -0.4427 -0.1733  0.4493
 2067TIP3    H127692   2.094   5.478   1.471 -0.1748  0.2565  0.0629
 2067TIP3    H227693   2.019   5.608   1.491 -1.2192 -0.5958  1.9160
 2068TIP3   OH227694   4.213   1.815  15.698 -0.5436  0.3733 -0.4518
 2068TIP3    H127695   4.236   1.882  15.762  2.0357 -1.5240  0.7995
 2068TIP3    H227696   4.134   1.774  15.733 -0.9295  1.3356 -0.1574
 2069TIP3   OH227697   2.331   2.408   0.814 -0.2524  0.9082  0.0451
 2069TIP3    H127698   2.395   2.370   0.875 -0.8026 -0.9943 -0.4783
 2069TIP3    H227699   2.294   2.482   0.862 -0.2707 -0.1892  1.8458
 2070TIP3   OH227700   2.609   4.251   6.393  0.2182  0.3449  0.1081
 2070TIP3    H127701   2.689   4.279   6.349 -0.2248  0.4017 -0.6746
 2070TIP3    H227702   2.639   4.193   6.463  0.9694  0.7208  0.1040
 2071TIP3   OH227703   2.050   6.727  14.390 -0.1683  0.5731  0.4699
 2071TIP3    H127704   2.029   6.633  14.388  0.0720  0.4923  1.3435
 2071TIP3    H227705   2.121   6.737  14.327 -0.9498  0.3621 -0.4517
 2072TIP3   OH227706   3.198   6.412   1.396 -0.4141 -0.5726 -0.0461
 2072TIP3    H127707   3.190   6.505   1.379 -1.0066 -0.5537  0.3114
 2072TIP3    H227708   3.292   6.395   1.393 -0.2842  0.0857  0.1533
 2073TIP3   OH227709   0.381   4.601  16.044  0.4263 -0.0253 -0.1411
 2073TIP3    H127710   0.470   4.633  16.057  0.4914 -0.2825  0.0594
 2073TIP3    H227711   0.358   4.626  15.955  0.7698 -0.1363 -0.2587
 2074TIP3   OH227712   3.675   5.288  17.106  0.9124 -0.6079 -0.2419
 2074TIP3    H127713   3.615   5.214  17.115 -0.4501  0.5608  0.7960
 2074TIP3    H227714   3.743   5.272  17.172 -0.4996  0.0368  1.4613
 2075TIP3   OH227715   1.837   2.128  16.921 -0.4510  0.1125  0.5788
 2075TIP3    H127716   1.916   2.151  16.873  0.0113 -0.3220  1.1138
 2075TIP3    H227717   1.785   2.208  16.922 -0.3006  0.2286 -0.3110
 2076TIP3   OH227718   2.483   5.144  16.615  0.4473  0.5764  0.0975
 2076TIP3    H127719   2.424   5.127  16.542  0.3692 -3.0751  0.8342
 2076TIP3    H227720   2.429   5.188  16.680 -0.5868  0.1415 -0.4486
 2077TIP3   OH227721   3.900   5.975   0.064 -0.1116 -0.0620 -0.5675
 2077TIP3    H127722   3.984   6.017   0.084 -0.1743  0.6511 -1.7085
 2077TIP3    H227723   3.874   6.011  -0.021 -0.9234 -1.2915 -0.8752
 2078TIP3   OH227724   4.757   6.501  14.931  0.2765  0.0955 -0.2122
 2078TIP3    H127725   4.762   6.449  15.011  1.2227  0.6734  0.1263
 2078TIP3    H227726   4.805   6.451  14.866  1.7110  0.7904  0.2716
 2079TIP3   OH227727   1.135   3.083  15.179  0.0683 -0.1599  0.1290
 2079TIP3    H127728   1.147   3.026  15.255  1.1378 -0.1740 -0.0316
 2079TIP3    H227729   1.215   3.135  15.175  0.9459 -1.5359 -2.1217
 2080TIP3   OH227730   0.909   3.693  15.235 -0.0935 -0.2726  0.6662
 2080TIP3    H127731   0.830   3.663  15.190 -1.3823  0.1017  2.6027
 2080TIP3    H227732   0.918   3.784  15.209 -2.1837  0.6525  2.8583
 2081TIP3   OH227733   2.629   5.222  10.728  0.1742 -0.2755 -0.2781
 2081TIP3    H127734   2.545   5.268  10.719 -0.6946 -1.4496  1.3658
 2081TIP3    H227735   2.606   5.129  10.729  1.7355 -0.7335 -1.8898
 2082TIP3   OH227736   0.246   1.133   0.208 -0.2801 -0.8959  0.4820
 2082TIP3    H127737   0.288   1.208   0.250  0.6502 -0.8698 -0.4365
 2082TIP3    H227738   0.153   1.154   0.207  0.0550  0.6608 -0.5282
 2083TIP3   OH227739   1.050   1.393  14.177 -0.3390 -0.0723 -0.2045
 2083TIP3    H127740   1.144   1.385  14.160 -0.3956  1.8924 -1.8417
 2083TIP3    H227741   1.013   1.418  14.093 -2.0161  1.2840  0.8831
 2084TIP3   OH227742   4.546   3.062   1.438  0.1574  0.6752  0.1913
 2084TIP3    H127743   4.506   2.981   1.470  0.3112  0.2505 -0.6854
 2084TIP3    H227744   4.476   3.128   1.448 -0.3484  0.2002 -0.1630
 2085TIP3   OH227745   0.696   5.932  12.798 -0.0483 -0.2109  0.2715
 2085TIP3    H127746   0.709   6.025  12.780  1.6626 -0.6504 -0.9872
 2085TIP3    H227747   0.767   5.888  12.751  0.0856 -2.0520  2.0745
 2086TIP3   OH227748   3.014   3.941  15.705  0.0362  0.2552  0.5753
 2086TIP3    H127749   3.007   4.029  15.742  0.0455  0.6167 -0.2562
 2086TIP3    H227750   2.984   3.951  15.615 -0.5473 -0.7226  0.6568
 2087TIP3   OH227751   6.428   1.499  13.670 -0.1970  0.5311  0.2512
 2087TIP3    H127752   6.491   1.439  13.630  1.3336  1.6620  0.9025
 2087TIP3    H227753   6.434   1.481  13.764 -0.0794  1.3636  0.4089
 2088TIP3   OH227754   0.373   1.774   0.813  0.2202 -0.1817  0.0927
 2088TIP3    H127755   0.439   1.732   0.868 -0.2869 -2.5789 -0.9657
 2088TIP3    H227756   0.318   1.701   0.783 -1.4203  1.4322 -1.0196
 2089TIP3   OH227757   2.595   1.026   3.481 -0.1996  0.4237 -0.0646
 2089TIP3    H127758   2.564   1.036   3.391 -1.2725  0.7838  0.3257
 2089TIP3    H227759   2.533   1.077   3.533  0.7782  0.7397  0.8172
 2090TIP3   OH227760   0.617   3.108  12.270 -0.1083  0.2022  0.3804
 2090TIP3    H127761   0.598   3.028  12.219  0.4766  1.1813 -1.4722
 2090TIP3    H227762   0.531   3.143  12.292 -0.5518 -2.7108  4.4081
 2091TIP3   OH227763   0.784   1.063   5.461  1.2541 -0.3547 -0.6228
 2091TIP3    H127764   0.706   1.018   5.493  1.3516 -0.0473  0.0600
 2091TIP3    H227765   0.750   1.140   5.415  1.1663  0.2048  0.3445
 2092TIP3   OH227766   3.423   2.022  17.218 -0.2655  0.2669 -0.0838
 2092TIP3    H127767   3.406   2.102  17.169 -0.0350  0.2886 -0.1274
 2092TIP3    H227768   3.443   1.957  17.151  2.3609  0.8372  0.0636
 2093TIP3   OH227769   6.487   5.416   2.001 -0.1974 -0.1544  0.1253
 2093TIP3    H127770   6.460   5.466   1.924  0.3849  0.0734  0.0640
 2093TIP3    H227771   6.412   5.360   2.021 -0.0954 -0.7100 -1.0092
 2094TIP3   OH227772   6.215   6.283   3.402 -0.1315 -0.0491  0.2529
 2094TIP3    H127773   6.259   6.306   3.484  0.7051 -0.9514  0.0841
 2094TIP3    H227774   6.274   6.315   3.334 -1.7849  2.5314 -0.0724
 2095TIP3   OH227775   6.242   1.210  16.358 -0.1847  0.2481 -0.0792
 2095TIP3    H127776   6.199   1.207  16.444 -0.9175  0.6073 -0.4275
 2095TIP3    H227777   6.247   1.118  16.330  1.4659 -0.0579  1.0099
 2096TIP3   OH227778   5.094   5.124   0.652  0.3027  0.3674  0.2242
 2096TIP3    H127779   5.066   5.038   0.682 -0.9087  0.6947  0.1291
 2096TIP3    H227780   5.189   5.118   0.642 -0.0150 -1.9101 -2.7744
 2097TIP3   OH227781   0.588   0.415   1.961  0.3170 -0.0871  0.4078
 2097TIP3    H127782   0.514   0.445   2.014  0.0320 -0.7777  0.4117
 2097TIP3    H227783   0.663   0.464   1.995  0.4143 -1.5233  2.4563
 2098TIP3   OH227784   2.149   4.988  16.604  0.3219 -0.4224 -0.6265
 2098TIP3    H127785   2.144   5.083  16.611 -0.5096 -0.4899 -0.1927
 2098TIP3    H227786   2.059   4.958  16.615  0.5991 -1.2747 -0.5696
 2099TIP3   OH227787   3.228   0.903   4.993  0.7693  0.2228  0.3967
 2099TIP3    H127788   3.160   0.948   5.044  0.8774  0.0213  0.7270
 2099TIP3    H227789   3.190   0.818   4.973  0.2317  0.7622 -0.9645
 2100TIP3   OH227790   1.970   3.012   2.422 -0.2068  0.0363  0.4642
 2100TIP3    H127791   1.987   2.999   2.515  3.2450 -2.0554 -0.3207
 2100TIP3    H227792   1.944   2.926   2.390 -0.9234  0.6373 -0.6399
 2101TIP3   OH227793   3.331   2.222   1.276 -1.0480 -0.2620  0.0434
 2101TIP3    H127794   3.408   2.180   1.240 -1.8684 -2.9797  1.1781
 2101TIP3    H227795   3.356   2.244   1.366 -1.2476 -0.0937  0.0590
 2102TIP3   OH227796   1.527   6.327  15.619 -0.7666  0.0597 -0.0028
 2102TIP3    H127797   1.532   6.277  15.537 -2.1541 -2.3238  1.2627
 2102TIP3    H227798   1.618   6.351  15.637 -0.1754 -1.1277 -1.2255
 2103TIP3   OH227799   2.025   3.744   5.589  0.1088 -0.3141  0.4824
 2103TIP3    H127800   1.937   3.705   5.586  0.7490 -1.8564 -2.9664
 2103TIP3    H227801   2.016   3.828   5.545  0.4224 -0.7753 -0.5000
 2104TIP3   OH227802   2.310   4.127  14.559  0.6244  0.3359 -0.3774
 2104TIP3    H127803   2.394   4.108  14.601  0.1287  0.5312  0.7357
 2104TIP3    H227804   2.318   4.218  14.530  0.0742  1.0649  1.6136
 2105TIP3   OH227805   2.138   1.133  11.280  0.0714 -0.3642  0.0553
 2105TIP3    H127806   2.100   1.128  11.192  0.2434  1.6383 -0.1621
 2105TIP3    H227807   2.069   1.168  11.335  0.3235 -0.5561  0.5042
 2106TIP3   OH227808   0.485   5.470   0.238 -0.1163  0.6076 -0.2172
 2106TIP3    H127809   0.450   5.392   0.282  0.3253  0.1540 -0.6570
 2106TIP3    H227810   0.411   5.502   0.186  0.0123 -0.1606 -0.8923
 2107TIP3   OH227811   1.078   4.953  15.775 -0.3132 -0.3706 -0.2427
 2107TIP3    H127812   1.137   4.882  15.751  1.5016  1.2588 -0.8556
 2107TIP3    H227813   1.071   4.947  15.870 -0.4327 -1.5357 -0.3131
 2108TIP3   OH227814   3.899   3.372  15.315 -0.4006 -0.6706 -0.1487
 2108TIP3    H127815   3.866   3.333  15.396 -0.6149 -0.3226 -0.0610
 2108TIP3    H227816   3.904   3.300  15.253 -0.4759 -0.8945  0.1056
 2109TIP3   OH227817   4.230   0.328   0.582 -0.0551  0.0475 -0.0599
 2109TIP3    H127818   4.219   0.409   0.532 -1.0855  1.6081  2.5281
 2109TIP3    H227819   4.141   0.293   0.590 -0.0760  0.3970  1.5056
 2110TIP3   OH227820   1.550   3.828   1.909 -0.2556 -0.2506  0.1886
 2110TIP3    H127821   1.567   3.895   1.975  0.6537  0.0249 -0.2977
 2110TIP3    H227822   1.457   3.809   1.917 -0.2691  0.1674  1.1751
 2111TIP3   OH227823   3.793   0.979   4.438  0.1113  0.1551 -0.2075
 2111TIP3    H127824   3.726   0.910   4.444 -0.5357  0.7394 -0.5043
 2111TIP3    H227825   3.876   0.932   4.434 -0.2658 -0.5868  0.3278
 2112TIP3   OH227826   2.300   1.186   4.778 -0.9399  0.1920  0.2785
 2112TIP3    H127827   2.344   1.253   4.831  0.4130  0.7931 -1.5131
 2112TIP3    H227828   2.322   1.103   4.820  3.2397  0.2922 -1.2233
 2113TIP3   OH227829   0.392   0.634   6.608 -0.2696  0.4704 -0.1401
 2113TIP3    H127830   0.464   0.591   6.561 -0.9897 -0.0717 -0.7732
 2113TIP3    H227831   0.416   0.726   6.610  1.7793 -0.0133  2.0508
 2114TIP3   OH227832   2.578   4.782  15.549  0.1190  0.6023  0.0231
 2114TIP3    H127833   2.515   4.774  15.621  0.7933  0.9751  0.6639
 2114TIP3    H227834   2.659   4.746  15.583 -0.0573 -1.1723 -1.2626
 2115TIP3   OH227835   5.227   6.777   6.064 -0.0508 -0.1189  0.0540
 2115TIP3    H127836   5.262   6.854   6.019  0.4117 -0.2167  0.2361
 2115TIP3    H227837   5.223   6.803   6.156 -2.2747  0.5533 -0.1933
 2116TIP3   OH227838   6.106   2.911  15.515  0.7524 -0.4674  0.6172
 2116TIP3    H127839   6.169   2.840  15.503  1.7967  0.5339 -0.0938
 2116TIP3    H227840   6.057   2.914  15.434  1.8799  0.6909 -0.0593
 2117TIP3   OH227841   0.364   1.684   3.683 -0.5571  1.0568  0.5603
 2117TIP3    H127842   0.414   1.691   3.602  0.3206  0.0938  0.9927
 2117TIP3    H227843   0.378   1.768   3.727 -1.0461  1.5885 -0.2747
 2118TIP3   OH227844   0.238   3.972  15.426  0.4980  0.7048  0.3559
 2118TIP3    H127845   0.185   4.028  15.483  0.5530  1.0217  0.1062
 2118TIP3    H227846   0.325   3.974  15.465  0.0332 -0.9299  1.5443
 2119TIP3   OH227847   1.809   5.336  15.359  0.1129  0.0498  0.0705
 2119TIP3    H127848   1.750   5.264  15.381  0.0949  0.4480  1.4498
 2119TIP3    H227849   1.823   5.328  15.265  0.3429 -1.9260  0.2320
 2120TIP3   OH227850   0.294   2.071   1.394 -0.2821 -0.3056  0.1160
 2120TIP3    H127851   0.303   2.090   1.488  0.2079  2.4291 -0.4259
 2120TIP3    H227852   0.200   2.070   1.379 -0.3551 -0.2607  0.5448
 2121TIP3   OH227853   5.426   0.379   0.633 -0.2518  0.2851 -0.1849
 2121TIP3    H127854   5.454   0.339   0.715 -1.5895  2.4121  1.4153
 2121TIP3    H227855   5.443   0.472   0.645 -1.0809  0.7275 -2.0891
 2122TIP3   OH227856   0.615   5.981  15.920  0.0141 -0.2621 -0.1966
 2122TIP3    H127857   0.598   5.962  16.013  0.0867  0.6866  0.0288
 2122TIP3    H227858   0.573   6.066  15.906  0.8472  0.0659 -0.7743
 2123TIP3   OH227859   3.169   2.856  15.670 -0.1236 -0.6510 -0.5058
 2123TIP3    H127860   3.116   2.936  15.673  0.9533  0.0961 -0.8412
 2123TIP3    H227861   3.210   2.852  15.756  0.7866 -0.1536 -0.9033
 2124TIP3   OH227862   3.322   4.506   2.702  0.1883 -0.0653  0.2247
 2124TIP3    H127863   3.228   4.498   2.688 -0.1834  3.3743 -0.0432
 2124TIP3    H227864   3.336   4.598   2.723  3.7709  0.0910 -1.9755
 2125TIP3   OH227865   2.671   1.961   2.912 -0.3398  0.7798  0.0924
 2125TIP3    H127866   2.736   2.000   2.971  0.4911 -1.9832  1.2170
 2125TIP3    H227867   2.719   1.891   2.867 -1.5605  1.3177 -2.1995
 2126TIP3   OH227868   2.592   5.999  15.353  0.0183 -0.0519  0.1115
 2126TIP3    H127869   2.647   5.996  15.275  1.1066 -0.6812  0.8710
 2126TIP3    H227870   2.627   6.072  15.404 -1.0254  0.6940 -0.2082
 2127TIP3   OH227871   2.952   6.652  11.858 -0.1629 -0.2853 -0.3797
 2127TIP3    H127872   3.022   6.642  11.793 -0.2947  0.9071 -0.7311
 2127TIP3    H227873   2.888   6.584  11.835 -0.0029 -0.1574 -1.2399
 2128TIP3   OH227874   2.154   6.743   2.090  0.6492 -0.1252 -0.2143
 2128TIP3    H127875   2.153   6.838   2.094  0.9280 -0.1221 -0.2398
 2128TIP3    H227876   2.210   6.716   2.163  0.3837 -0.2767 -0.0653
 2129TIP3   OH227877   6.428   5.403  16.516  0.3249  0.0384  1.1139
 2129TIP3    H127878   6.513   5.448  16.509 -0.4364  1.4160  0.4820
 2129TIP3    H227879   6.452   5.311  16.527  1.9034  0.2152 -0.3195
 2130TIP3   OH227880   5.690   1.475   0.922  0.2677 -0.0195  0.0341
 2130TIP3    H127881   5.725   1.491   1.010 -1.3249 -0.6793  0.8223
 2130TIP3    H227882   5.757   1.424   0.879 -0.4559 -3.0507  2.1885
 2131TIP3   OH227883   6.822   3.541   1.475  0.2222  0.1781  0.1531
 2131TIP3    H127884   6.869   3.601   1.417  2.1480 -1.8619 -0.5430
 2131TIP3    H227885   6.796   3.468   1.419 -0.0678 -0.7012  1.3787
 2132TIP3   OH227886   5.933   5.037   2.729 -0.3781  0.6715  0.0913
 2132TIP3    H127887   5.871   5.097   2.772 -0.2641  0.1863  0.9450
 2132TIP3    H227888   6.019   5.068   2.756 -0.3569 -0.9113  1.9832
 2133TIP3   OH227889   3.859   4.195  17.029 -0.1466 -0.2811 -0.2718
 2133TIP3    H127890   3.930   4.209  16.966 -0.0661  0.4526 -0.0335
 2133TIP3    H227891   3.802   4.131  16.987 -0.5415  0.7997 -1.4834
 2134TIP3   OH227892   3.015   5.188  14.633 -0.0542 -0.0155  0.0186
 2134TIP3    H127893   2.925   5.181  14.602  0.2544  0.2745 -0.9794
 2134TIP3    H227894   3.007   5.226  14.720 -0.9036 -0.1509  0.0086
 2135TIP3   OH227895   0.840   0.952  16.838  0.0752 -0.2277  0.2544
 2135TIP3    H127896   0.894   1.020  16.798  0.1569  0.1440  0.9889
 2135TIP3    H227897   0.792   0.997  16.907  0.1911 -0.9304  0.8036
 2136TIP3   OH227898   6.523   6.617   0.041  0.2862  0.1962  0.3568
 2136TIP3    H127899   6.531   6.635   0.135  0.6269 -0.4734  0.4646
 2136TIP3    H227900   6.562   6.694  -0.001  3.3988 -0.9650  0.8334
 2137TIP3   OH227901   5.367   5.185  14.835 -0.1592 -0.0067  0.2832
 2137TIP3    H127902   5.286   5.150  14.797  0.5558 -0.9165 -0.4635
 2137TIP3    H227903   5.361   5.164  14.928 -0.0440 -1.5957 -0.0392
 2138TIP3   OH227904   1.487   6.428  10.814  0.3176 -0.0971 -0.2918
 2138TIP3    H127905   1.498   6.501  10.752 -0.7336 -0.2734 -0.7043
 2138TIP3    H227906   1.534   6.355  10.773  1.0270  0.2329 -0.0761
 2139TIP3   OH227907   2.821   3.724  14.014  0.5862 -0.2863 -0.2362
 2139TIP3    H127908   2.873   3.736  14.093 -2.9661  1.4712  2.1140
 2139TIP3    H227909   2.782   3.810  13.998 -1.6744 -1.4834 -1.7121
 2140TIP3   OH227910   1.363   6.169   0.345  0.5337 -0.0942  0.1224
 2140TIP3    H127911   1.395   6.214   0.267  0.2276 -0.6642 -0.3393
 2140TIP3    H227912   1.399   6.219   0.418  4.2537 -1.8966 -0.2969
 2141TIP3   OH227913   0.762   6.496   3.857 -0.1262 -0.1818  0.4324
 2141TIP3    H127914   0.760   6.506   3.952  0.0174 -0.2898  0.4484
 2141TIP3    H227915   0.691   6.551   3.825  1.8531  2.5536  0.3739
 2142TIP3   OH227916   2.257   6.371   1.978  0.2772 -0.5876  0.3921
 2142TIP3    H127917   2.323   6.312   1.940  0.0205 -0.6726  0.0715
 2142TIP3    H227918   2.272   6.454   1.933 -0.2733 -0.7900 -0.1732
 2143TIP3   OH227919   3.981   4.801  15.828  0.2750 -0.3164  0.0801
 2143TIP3    H127920   4.027   4.795  15.911  0.2735  1.2737  0.2370
 2143TIP3    H227921   3.908   4.861  15.845 -0.0669 -0.4223 -0.9217
 2144TIP3   OH227922   2.997   4.479  10.407  0.1247 -0.8122  0.3277
 2144TIP3    H127923   3.046   4.496  10.487  1.1423 -0.1129 -0.4294
 2144TIP3    H227924   3.053   4.419  10.358  0.0417 -0.3252 -0.3666
 2145TIP3   OH227925   5.406   2.943  11.520  0.1866 -0.8684 -0.4310
 2145TIP3    H127926   5.375   2.973  11.435 -0.9610  0.5919  0.4458
 2145TIP3    H227927   5.435   3.023  11.565 -3.1419 -0.8163  2.0636
 2146TIP3   OH227928   0.867   2.141   1.028  0.0142 -0.2901  0.2757
 2146TIP3    H127929   0.810   2.217   1.023  1.8752  1.1382 -0.5203
 2146TIP3    H227930   0.819   2.071   0.983 -1.0565  0.8517 -0.3986
 2147TIP3   OH227931   2.828   6.262   0.984  0.6943  0.6095  0.2243
 2147TIP3    H127932   2.841   6.296   1.072 -0.4789  0.7142  0.3641
 2147TIP3    H227933   2.861   6.172   0.988 -0.2842  0.2775  1.0518
 2148TIP3   OH227934   3.739   4.315  10.544 -0.1872 -0.3515  0.6147
 2148TIP3    H127935   3.793   4.393  10.529 -0.0127 -0.8797 -1.8865
 2148TIP3    H227936   3.654   4.350  10.573  0.2869  0.7023  0.7746
 2149TIP3   OH227937   6.564   3.235   5.940  0.0207  0.9602  0.3703
 2149TIP3    H127938   6.596   3.242   6.030 -1.1470 -1.4713  1.0615
 2149TIP3    H227939   6.477   3.195   5.948  0.7899 -1.4633 -1.9125
 2150TIP3   OH227940   4.312   1.506   2.106 -0.1146 -0.2260  0.3571
 2150TIP3    H127941   4.315   1.412   2.123 -2.2630 -0.4239 -0.0660
 2150TIP3    H227942   4.221   1.530   2.122  0.2512  1.6663 -0.1778
 2151TIP3   OH227943   5.898   3.339   2.910 -0.1115 -0.6735 -0.4450
 2151TIP3    H127944   5.836   3.269   2.890  0.0903 -1.2411  0.8194
 2151TIP3    H227945   5.847   3.402   2.961  0.1808 -0.8119  0.0190
 2152TIP3   OH227946   0.066   6.235   4.999 -0.8927  0.6823 -0.1381
 2152TIP3    H127947   0.092   6.205   4.912  0.5879 -0.7966  0.7632
 2152TIP3    H227948  -0.030   6.230   4.999 -0.8850  0.3540 -1.5540
 2153TIP3   OH227949   2.447   4.491   5.810 -0.4767  0.4494 -0.6814
 2153TIP3    H127950   2.429   4.583   5.830 -1.2836  0.1067  0.2304
 2153TIP3    H227951   2.458   4.449   5.895 -2.8651 -0.8248 -0.9091
 2154TIP3   OH227952   1.826   3.039  13.556  0.0884  0.0904  0.1122
 2154TIP3    H127953   1.915   3.010  13.535  0.0462  1.1090 -1.6661
 2154TIP3    H227954   1.821   3.034  13.651  1.7335 -0.8807  0.1835
 2155TIP3   OH227955   1.146   5.779  14.873  0.0321  0.0145 -0.2696
 2155TIP3    H127956   1.200   5.824  14.808 -1.4344  2.9548  0.3642
 2155TIP3    H227957   1.208   5.727  14.924  1.8170  0.9595 -1.3731
 2156TIP3   OH227958   2.829   6.689  14.095  0.4036  0.0496 -0.4574
 2156TIP3    H127959   2.885   6.662  14.022  1.9296 -1.4897  1.1811
 2156TIP3    H227960   2.743   6.652  14.074  1.0706 -1.2554 -1.0158
 2157TIP3   OH227961   5.424   5.573  15.518  0.1164 -0.7897  0.0522
 2157TIP3    H127962   5.369   5.551  15.593 -0.1543 -0.0262  0.0881
 2157TIP3    H227963   5.497   5.622  15.555 -0.4803  0.3838 -0.2608
 2158TIP3   OH227964   3.113   0.013   3.409  0.0718  0.0870  0.0231
 2158TIP3    H127965   3.119   0.050   3.321 -1.2335 -1.1596 -0.6221
 2158TIP3    H227966   3.067   0.080   3.460 -0.0764  0.3802 -0.4848
 2159TIP3   OH227967   0.091   4.710  15.052  0.4637  0.1891 -0.3942
 2159TIP3    H127968   0.084   4.698  15.147  0.4674  1.2616 -0.2456
 2159TIP3    H227969   0.110   4.623  15.018  1.3734 -0.0516  0.6846
 2160TIP3   OH227970   1.448   3.682   5.851  0.0997  0.1457  0.1215
 2160TIP3    H127971   1.369   3.631   5.872  0.2129  0.6954  2.0798
 2160TIP3    H227972   1.511   3.618   5.819 -1.2666 -0.2351 -2.0130
 2161TIP3   OH227973   1.651   4.886   1.461 -0.1432 -0.1370  0.0379
 2161TIP3    H127974   1.585   4.954   1.466 -0.1677 -0.1932  0.5836
 2161TIP3    H227975   1.664   4.859   1.552 -2.0242 -2.6630 -0.3342
 2162TIP3   OH227976   1.534   4.672  12.441  0.1892  0.2446 -0.4199
 2162TIP3    H127977   1.564   4.586  12.468 -0.5500 -0.7860 -2.6347
 2162TIP3    H227978   1.605   4.707  12.387  0.1062  0.6213 -0.2857
 2163TIP3   OH227979   2.341   6.340  16.506 -0.6455 -0.0399  0.4182
 2163TIP3    H127980   2.373   6.430  16.495  0.8747 -0.7306 -1.4053
 2163TIP3    H227981   2.351   6.323  16.600  1.3685  0.9154  0.4287
 2164TIP3   OH227982   3.360   2.614  12.575  0.1107  0.1451  0.4308
 2164TIP3    H127983   3.386   2.524  12.591 -0.1959 -0.6929 -3.0213
 2164TIP3    H227984   3.441   2.660  12.555 -0.0471 -0.6844 -2.7609
 2165TIP3   OH227985   4.568   2.311  13.823  0.4142 -0.6956  0.0133
 2165TIP3    H127986   4.649   2.342  13.782 -1.4963  2.0083 -2.0281
 2165TIP3    H227987   4.514   2.389  13.832 -2.6055 -2.5954 -0.2012
 2166TIP3   OH227988   6.205   0.573  10.733 -0.6978  0.0493  0.0717
 2166TIP3    H127989   6.259   0.586  10.655  0.6609 -1.9630  0.5942
 2166TIP3    H227990   6.239   0.635  10.797 -1.2408  1.0946 -0.6247
 2167TIP3   OH227991   1.032   2.613  11.958 -0.6565 -0.5558  0.6220
 2167TIP3    H127992   1.046   2.627  12.051  0.2989  0.3947  0.3438
 2167TIP3    H227993   1.018   2.700  11.922 -2.4272 -1.0200  0.0747
 2168TIP3   OH227994   6.272   3.794   3.801  0.1559 -0.2656 -0.1155
 2168TIP3    H127995   6.202   3.774   3.738  0.1483 -2.3223  0.4753
 2168TIP3    H227996   6.351   3.803   3.747 -0.2684  0.4671 -0.6324
 2169TIP3   OH227997   3.709   5.789   4.852  0.4538  0.2848  0.1813
 2169TIP3    H127998   3.705   5.734   4.930 -0.5765  0.5507  0.3305
 2169TIP3    H227999   3.666   5.736   4.784 -0.0187  0.6578  0.1817
 2170TIP3   OH228000   1.084   2.178  15.687 -0.5497 -0.1059 -0.0812
 2170TIP3    H128001   1.026   2.211  15.618 -0.5835 -1.4813 -0.7608
 2170TIP3    H228002   1.072   2.238  15.760 -3.3420 -0.6832  0.0292
 2171TIP3   OH228003   0.421   4.483  10.900  0.2612  0.3594 -0.0859
 2171TIP3    H128004   0.407   4.555  10.962 -2.3643 -0.1331  0.0270
 2171TIP3    H228005   0.410   4.524  10.814 -0.6113  0.2528 -0.0394
 2172TIP3   OH228006   4.964   2.698   0.910  0.1899  0.7328  0.1477
 2172TIP3    H128007   5.002   2.747   0.838  1.4272 -0.7193 -0.2346
 2172TIP3    H228008   4.972   2.606   0.883 -0.5404  0.2323  1.5496
 2173TIP3   OH228009   0.456   4.462   0.898  0.1320 -0.4120  0.1716
 2173TIP3    H128010   0.486   4.552   0.894 -1.5348  0.1288 -0.6603
 2173TIP3    H228011   0.369   4.467   0.936 -1.2109 -1.3114 -2.5345
 2174TIP3   OH228012   0.697   1.279   3.425  0.1100 -0.2998  0.2073
 2174TIP3    H128013   0.657   1.294   3.339  0.9446  2.6920  0.2130
 2174TIP3    H228014   0.636   1.317   3.487  1.6106  1.9314  0.4376
 2175TIP3   OH228015   5.199   5.538   0.216  0.6846 -0.1854 -0.3791
 2175TIP3    H128016   5.283   5.575   0.188  1.1779 -0.7808  0.2868
 2175TIP3    H228017   5.134   5.604   0.190  1.5169  1.0392  0.5306
 2176TIP3   OH228018   6.037   2.506  15.583 -0.8676 -0.3979  0.5845
 2176TIP3    H128019   6.128   2.533  15.582 -0.7317 -0.6188 -2.2578
 2176TIP3    H228020   5.999   2.549  15.659  0.9647  1.9571  0.2599
 2177TIP3   OH228021   1.968   6.590  10.795  0.2688 -0.1828  0.2646
 2177TIP3    H128022   1.946   6.502  10.825 -1.1407 -0.8475 -2.4319
 2177TIP3    H228023   2.050   6.579  10.748  0.0086 -0.0894 -0.2132
 2178TIP3   OH228024   2.030   1.604  12.162  0.4429  0.0114 -0.0138
 2178TIP3    H128025   2.100   1.635  12.105  0.2080 -0.6940 -0.7113
 2178TIP3    H228026   1.949   1.627  12.116  0.1555  1.7443  1.2692
 2179TIP3   OH228027   6.287   3.753   6.694 -0.0639 -0.2421  0.0320
 2179TIP3    H128028   6.199   3.721   6.710 -0.3942 -0.9316 -2.7438
 2179TIP3    H228029   6.338   3.675   6.673  0.6330  0.3881 -0.6972
 2180TIP3   OH228030   5.017   6.080   4.744 -0.2453  0.1964 -0.0582
 2180TIP3    H128031   5.068   6.144   4.794  0.0993 -0.9694  1.1232
 2180TIP3    H228032   5.077   6.050   4.675  0.1294  0.0057  0.3474
 2181TIP3   OH228033   4.683   1.259  12.882 -0.1787 -0.5613 -0.3398
 2181TIP3    H128034   4.756   1.198  12.891  1.1534  1.1984  1.6008
 2181TIP3    H228035   4.653   1.247  12.792  2.0886 -1.7874 -1.0154
 2182TIP3   OH228036   3.527   2.978  12.358 -0.0161 -0.0382  0.2443
 2182TIP3    H128037   3.554   2.891  12.386  1.8016  0.9437  1.8059
 2182TIP3    H228038   3.443   2.993  12.402  0.5256 -0.3400  1.4102
 2183TIP3   OH228039   1.223   1.533   2.471 -0.3554  1.1551 -0.1843
 2183TIP3    H128040   1.210   1.439   2.474  1.0950  0.9175 -0.3055
 2183TIP3    H228041   1.158   1.565   2.408 -1.8127  0.4557  0.9139
 2184TIP3   OH228042   6.470   5.889   2.476 -0.4918 -0.4861 -0.0651
 2184TIP3    H128043   6.555   5.854   2.448  0.1416  1.2835 -0.4706
 2184TIP3    H228044   6.447   5.836   2.552  1.0194 -0.9420  0.1115
 2185TIP3   OH228045   6.592   2.904   2.211 -0.1999  0.0997  0.5471
 2185TIP3    H128046   6.627   2.940   2.129 -0.8312 -0.0960  0.1845
 2185TIP3    H228047   6.638   2.952   2.280  0.7273 -0.0986  0.0895
 2186TIP3   OH228048   6.503   3.909   5.045 -0.0366 -0.2677  0.0569
 2186TIP3    H128049   6.507   3.952   5.131  0.0156  1.6229 -0.8424
 2186TIP3    H228050   6.591   3.918   5.009  0.2358 -1.9894  0.1926
 2187TIP3   OH228051   1.247   0.522  10.594  0.2937 -0.4939 -0.0770
 2187TIP3    H128052   1.249   0.439  10.546 -1.2510 -0.6512  0.0756
 2187TIP3    H228053   1.155   0.548  10.592  0.4530  0.2906  1.4531
 2188TIP3   OH228054   6.041   6.030   4.945  0.2251 -0.3160 -0.3274
 2188TIP3    H128055   6.003   5.979   5.016 -0.0667 -0.5660 -0.6588
 2188TIP3    H228056   6.043   6.120   4.978 -2.2980  0.0374 -0.9270
 2189TIP3   OH228057   3.400   3.369  16.109  0.9536 -0.4014  0.0858
 2189TIP3    H128058   3.432   3.327  16.188 -0.3962  0.8669  1.3622
 2189TIP3    H228059   3.305   3.355  16.111  0.6175  1.5885 -0.0853
 2190TIP3   OH228060   2.563   3.019  13.937 -0.0798 -0.7763  0.0762
 2190TIP3    H128061   2.551   2.939  13.988 -0.7743  0.0319  1.2157
 2190TIP3    H228062   2.522   2.999  13.852 -0.9561 -1.3679  0.6169
 2191TIP3   OH228063   4.237   2.819  16.221 -0.0761  0.3864  0.5576
 2191TIP3    H128064   4.285   2.885  16.270 -0.1999  0.3663  0.7079
 2191TIP3    H228065   4.260   2.835  16.130  0.7875 -0.0811  0.6834
 2192TIP3   OH228066   0.929   2.702  13.424  0.3423  0.0209 -0.5383
 2192TIP3    H128067   0.934   2.780  13.368  0.3585  0.1636 -0.3414
 2192TIP3    H228068   0.836   2.693  13.444  0.2177 -0.5724 -1.3379
 2193TIP3   OH228069   4.684   3.229  11.437 -0.0952  0.6605 -0.3310
 2193TIP3    H128070   4.734   3.238  11.519 -1.7148 -0.4540  0.8337
 2193TIP3    H228071   4.644   3.142  11.442  0.8429 -0.0311 -2.9842
 2194TIP3   OH228072   5.024   5.753   0.291  0.1367 -0.1169 -0.3501
 2194TIP3    H128073   4.929   5.757   0.286 -0.0314 -2.0634  0.3919
 2194TIP3    H228074   5.043   5.736   0.383  1.1191 -0.8440 -0.6589
 2195TIP3   OH228075   0.918   6.377  13.960 -0.2624 -0.4747  0.4470
 2195TIP3    H128076   0.937   6.438  14.031 -1.5652  3.1223 -2.0086
 2195TIP3    H228077   1.003   6.340  13.937  0.9880  1.9525  0.8242
 2196TIP3   OH228078   0.200   5.756  11.336 -0.0928 -0.0939 -0.3195
 2196TIP3    H128079   0.296   5.756  11.330 -0.0162  0.1974  0.6900
 2196TIP3    H228080   0.181   5.817  11.408 -1.0343 -0.1675 -0.5002
 2197TIP3   OH228081   2.677   0.921   0.299  0.0004  0.0150  0.6728
 2197TIP3    H128082   2.764   0.959   0.309 -0.1410  0.3297  0.7259
 2197TIP3    H228083   2.633   0.939   0.382 -0.5314  0.9591  0.2145
 2198TIP3   OH228084   6.384   0.500   4.933 -0.5062  0.5342 -0.0890
 2198TIP3    H128085   6.370   0.509   4.838 -0.6261  0.0089 -0.1267
 2198TIP3    H228086   6.473   0.531   4.947 -1.0487  2.1931 -0.1218
 2199TIP3   OH228087   3.151   4.286  13.769 -0.1499 -0.1576 -0.0318
 2199TIP3    H128088   3.225   4.275  13.711 -0.6995 -1.6044 -0.4884
 2199TIP3    H228089   3.103   4.360  13.732 -0.8292 -1.4232 -1.8422
 2200TIP3   OH228090   0.414   6.505   1.036 -0.0919 -0.2421 -0.2713
 2200TIP3    H128091   0.382   6.549   0.957  1.1279  0.8235 -0.2081
 2200TIP3    H228092   0.446   6.420   1.005 -0.3113 -0.1372 -0.8016
 2201TIP3   OH228093   3.061   0.082  11.448 -0.3838  0.2232 -0.0813
 2201TIP3    H128094   3.145   0.066  11.403  0.1548 -0.7658  1.2253
 2201TIP3    H228095   3.043   0.174  11.431  0.3690  0.1668 -1.3694
 2202TIP3   OH228096   5.414   1.948   0.809  0.3446 -0.5244 -0.2859
 2202TIP3    H128097   5.442   1.878   0.867 -0.7793 -0.5634  0.2382
 2202TIP3    H228098   5.495   1.992   0.783  0.9529 -1.2258  0.3836
 2203TIP3   OH228099   1.862   1.948  16.331 -0.1484 -0.4379  0.1706
 2203TIP3    H128100   1.900   1.930  16.417 -2.1931  0.0813  1.2315
 2203TIP3    H228101   1.821   1.865  16.305  3.1214 -1.6354 -1.8865
 2204TIP3   OH228102   3.725   2.843   3.524  0.0737  0.1340 -0.4603
 2204TIP3    H128103   3.682   2.783   3.585  1.0295  0.7898  0.9002
 2204TIP3    H228104   3.676   2.832   3.442 -0.5593 -1.5726  0.0890
 2205TIP3   OH228105   2.066   3.638   3.488  0.7992 -0.3037  0.7558
 2205TIP3    H128106   2.123   3.562   3.494  1.0961 -0.0503  1.2456
 2205TIP3    H228107   2.085   3.688   3.567 -0.5574 -0.5153  1.2333
 2206TIP3   OH228108   0.841   5.423  14.532  0.1335  0.2486 -0.4303
 2206TIP3    H128109   0.798   5.485  14.473  1.0205  2.0244  0.7099
 2206TIP3    H228110   0.841   5.466  14.617  1.0767 -1.1849  0.3379
 2207TIP3   OH228111   2.505   2.751  14.099 -0.1462 -0.2493 -0.4017
 2207TIP3    H128112   2.561   2.743  14.176 -1.1877 -0.1764  0.3911
 2207TIP3    H228113   2.438   2.684  14.111 -1.1630  0.7294 -0.4935
 2208TIP3   OH228114   0.157   2.117  12.024  0.0999 -0.1625 -0.8859
 2208TIP3    H128115   0.151   2.025  12.048 -1.3310 -0.2062 -1.3328
 2208TIP3    H228116   0.087   2.130  11.960 -0.0057  1.3216 -0.5083
 2209TIP3   OH228117   6.679   6.029   2.054  0.4468 -0.6572 -0.5753
 2209TIP3    H128118   6.747   6.014   2.120  0.2069  2.2413  0.4669
 2209TIP3    H228119   6.601   5.987   2.089  0.8419 -0.9352 -0.0196
 2210TIP3   OH228120   2.402   3.378  12.444 -0.3693  0.2351  0.3875
 2210TIP3    H128121   2.457   3.369  12.521 -0.2126 -0.0933  0.2372
 2210TIP3    H228122   2.315   3.398  12.479 -0.0249  1.4701  0.6013
 2211TIP3   OH228123   6.254   1.929  12.794  0.6827  1.0372  0.1654
 2211TIP3    H128124   6.178   1.900  12.744  0.6324 -0.4472  1.0149
 2211TIP3    H228125   6.317   1.857  12.785  1.1160  1.2634  1.2392
 2212TIP3   OH228126   3.875   1.466  11.248  0.2451  0.1746  0.2736
 2212TIP3    H128127   3.935   1.482  11.175  1.5656 -2.6035  0.6336
 2212TIP3    H228128   3.794   1.437  11.206  0.9693 -1.3228 -0.1856
 2213TIP3   OH228129   2.633   5.894  13.700  0.1605  0.2265  0.8393
 2213TIP3    H128130   2.555   5.900  13.755  0.4574  0.6753  1.2149
 2213TIP3    H228131   2.647   5.984  13.669  0.4881  0.1346  0.7194
 2214TIP3   OH228132   4.251   4.749   2.369  0.3169  0.2681 -0.2580
 2214TIP3    H128133   4.264   4.792   2.284  1.9774 -0.4796 -0.4233
 2214TIP3    H228134   4.221   4.819   2.427  2.7263  1.6754 -0.5603
 2215TIP3   OH228135   3.941   5.891  11.355 -0.3529 -0.0411  0.0406
 2215TIP3    H128136   4.022   5.908  11.404 -0.9071 -0.4693  1.1481
 2215TIP3    H228137   3.918   5.976  11.317  1.7340 -0.3253 -2.1310
 2216TIP3   OH228138   6.269   3.651   2.171 -0.2779 -0.0161 -0.4395
 2216TIP3    H128139   6.219   3.721   2.128 -2.1933 -0.9048  0.2343
 2216TIP3    H228140   6.247   3.572   2.122 -1.7439 -0.8783  1.4506
 2217TIP3   OH228141   1.778   3.584  11.214 -0.2796  0.1170 -0.2755
 2217TIP3    H128142   1.737   3.670  11.209 -2.8072 -1.0008 -0.0755
 2217TIP3    H228143   1.711   3.523  11.185  1.0700 -1.9172  0.6162
 2218TIP3   OH228144   2.940   4.483  14.117 -0.2960  0.5359  0.1024
 2218TIP3    H128145   2.951   4.461  14.025 -0.1994  0.7631  0.0606
 2218TIP3    H228146   2.963   4.402  14.164  1.9101  1.0878  0.0421
 2219TIP3   OH228147   1.840   4.695  13.755  0.2601  0.1862 -0.1327
 2219TIP3    H128148   1.900   4.709  13.829 -0.9016 -0.6083  0.9957
 2219TIP3    H228149   1.887   4.636  13.697  0.3707 -0.8737  1.0086
 2220TIP3   OH228150   3.579   3.269  14.872 -0.3611  0.0357 -0.3272
 2220TIP3    H128151   3.494   3.305  14.844 -1.2683 -1.3424  0.5294
 2220TIP3    H228152   3.620   3.340  14.922 -1.5402  0.3309  0.2620
 2221TIP3   OH228153   5.079   1.027  15.848  0.1942  0.7593  0.6106
 2221TIP3    H128154   4.997   1.036  15.896  1.1801  0.1495  2.5543
 2221TIP3    H228155   5.144   1.009  15.916  1.7255 -0.0341 -0.9717
 2222TIP3   OH228156   5.568   3.903   2.523  0.0912 -0.5356  0.5312
 2222TIP3    H128157   5.517   3.972   2.565 -1.1083 -0.0005 -1.6214
 2222TIP3    H228158   5.658   3.920   2.550 -0.5791 -0.1514  2.6635
 2223TIP3   OH228159   3.469   0.713  14.674 -0.1049  0.2241 -0.4072
 2223TIP3    H128160   3.411   0.733  14.600  1.0587  0.8335 -1.1665
 2223TIP3    H228161   3.528   0.787  14.680  0.9360 -0.6210  0.0374
 2224TIP3   OH228162   1.659   0.252   1.260 -0.6847  0.1703  0.2232
 2224TIP3    H128163   1.607   0.180   1.297 -0.2562 -0.8598 -1.1052
 2224TIP3    H228164   1.681   0.223   1.171  1.5871  0.8610  0.4858
 2225TIP3   OH228165   4.500   0.719  15.178  0.0361  0.2401 -0.6844
 2225TIP3    H128166   4.412   0.737  15.210  0.3070 -1.5911  1.3156
 2225TIP3    H228167   4.545   0.804  15.181 -1.1299  0.8594  0.0095
 2226TIP3   OH228168   4.049   0.949   1.631 -0.2300  0.2084 -0.4141
 2226TIP3    H128169   4.058   0.903   1.714 -2.2089  1.4894  0.6117
 2226TIP3    H228170   3.966   0.918   1.596  0.1657  0.3312 -1.4810
 2227TIP3   OH228171   3.254   2.829   2.968 -0.0954 -0.3457 -0.3407
 2227TIP3    H128172   3.335   2.780   2.979 -0.6473 -1.3702 -0.7183
 2227TIP3    H228173   3.185   2.769   2.998 -0.6921  0.6202  0.2810
 2228TIP3   OH228174   4.239   4.897   3.984  0.0746 -0.6442 -0.1610
 2228TIP3    H128175   4.256   4.889   3.890  1.2236  0.8730 -0.1308
 2228TIP3    H228176   4.288   4.825   4.023  0.5155 -0.6241 -0.6622
 2229TIP3   OH228177   0.826   2.017   4.825  0.5699 -0.0301 -0.4054
 2229TIP3    H128178   0.742   2.000   4.868 -0.3523 -2.5801 -2.9334
 2229TIP3    H228179   0.875   2.069   4.889 -2.3090  0.2483  1.8005
 2230TIP3   OH228180   6.359   0.890   0.948  0.0397  0.3617  0.5038
 2230TIP3    H128181   6.320   0.806   0.971 -0.8143  0.2805 -1.0492
 2230TIP3    H228182   6.453   0.875   0.948 -0.1055 -0.5894  0.3088
 2231TIP3   OH228183   0.633   1.142   5.824 -0.4627  0.2630 -0.2912
 2231TIP3    H128184   0.608   1.124   5.914  0.0382 -1.1399 -0.4107
 2231TIP3    H228185   0.715   1.094   5.811 -0.3781  0.6623 -1.4057
 2232TIP3   OH228186   6.784   4.830  14.843  0.1890 -0.4486  0.1501
 2232TIP3    H128187   6.817   4.799  14.927  1.1053 -1.0391 -0.4129
 2232TIP3    H228188   6.856   4.814  14.781  0.1592  1.5078 -0.4418
 2233TIP3   OH228189   2.946   1.411  17.008  0.1984 -0.1046 -0.3917
 2233TIP3    H128190   2.999   1.483  17.044  1.5122 -1.2381  0.0084
 2233TIP3    H228191   2.933   1.352  17.081 -3.1701  0.9215  0.0100
 2234TIP3   OH228192   4.496   0.519   0.499  0.2686 -0.6626 -0.2331
 2234TIP3    H128193   4.508   0.573   0.577  0.2991  2.6664 -2.3687
 2234TIP3    H228194   4.581   0.521   0.455 -0.3266 -0.6315 -1.4323
 2235TIP3   OH228195   6.345   2.131   4.995 -0.6294 -0.1742 -0.3866
 2235TIP3    H128196   6.302   2.133   5.080 -0.0061  5.4874  0.2057
 2235TIP3    H228197   6.275   2.152   4.933 -0.4906 -1.1558 -0.8963
 2236TIP3   OH228198   2.762   5.149  14.897 -0.5396  0.3391 -0.1302
 2236TIP3    H128199   2.681   5.144  14.847  0.8674  0.9853 -2.6577
 2236TIP3    H228200   2.826   5.102  14.844  0.7049 -0.4688  1.9723
 2237TIP3   OH228201   5.274   6.352  13.200 -0.6885 -0.5193  0.2317
 2237TIP3    H128202   5.215   6.360  13.275 -3.3113  2.1950 -1.9048
 2237TIP3    H228203   5.260   6.263  13.169 -1.2952 -0.9365  1.5945
 2238TIP3   OH228204   2.608   4.507   6.061  0.2024 -0.1504 -0.2612
 2238TIP3    H128205   2.573   4.596   6.064 -1.6878 -0.8166 -1.2020
 2238TIP3    H228206   2.703   4.519   6.071 -0.0789  1.8768  0.5300
 2239TIP3   OH228207   3.128   0.374   4.257  0.2991  0.3546 -0.1607
 2239TIP3    H128208   3.156   0.466   4.251  0.7033  0.2678  0.3255
 2239TIP3    H228209   3.033   0.377   4.250  0.3906  0.6898 -1.5050
 2240TIP3   OH228210   2.059   0.213   5.886 -0.3233 -0.0173 -0.2363
 2240TIP3    H128211   2.141   0.184   5.927  0.2453 -0.1525 -1.4223
 2240TIP3    H228212   2.002   0.235   5.959  1.4404  1.9948  0.6459
 2241TIP3   OH228213   3.499   4.085  12.270  0.5230  0.3771  0.2943
 2241TIP3    H128214   3.417   4.107  12.226  1.2434 -0.9205 -1.8503
 2241TIP3    H228215   3.543   4.169  12.284 -1.7900  1.3164  3.0576
 2242TIP3   OH228216   0.638   5.212   5.601  0.0612  0.3238  0.2417
 2242TIP3    H128217   0.730   5.190   5.615  0.2965 -0.8495 -2.4536
 2242TIP3    H228218   0.593   5.128   5.599 -0.3626  0.5224 -2.3393
 2243TIP3   OH228219   6.156   5.558  10.556 -0.1782  0.1466 -0.7478
 2243TIP3    H128220   6.234   5.588  10.602 -1.1231  0.8549  0.4577
 2243TIP3    H228221   6.134   5.629  10.495 -0.3469  0.3137 -0.4940
 2244TIP3   OH228222   4.667   0.073  13.786  0.2474 -0.3775  0.2454
 2244TIP3    H128223   4.743   0.078  13.844 -1.0080  1.2701  1.8633
 2244TIP3    H228224   4.693   0.126  13.710  0.2487  1.4061  1.4294
 2245TIP3   OH228225   5.280   5.900   6.577 -0.0006  0.3097  0.0965
 2245TIP3    H128226   5.326   5.817   6.566 -0.2965  0.1707 -0.0864
 2245TIP3    H228227   5.231   5.889   6.659 -0.4866  0.0938 -0.2197
 2246TIP3   OH228228   3.975   3.083   0.034 -0.1445 -0.1395 -0.2571
 2246TIP3    H128229   4.001   3.141  -0.038  1.5937  0.3745  0.7347
 2246TIP3    H228230   3.988   2.995  -0.000 -2.1424 -0.0010 -1.5381
 2247TIP3   OH228231   6.069   6.635  12.012  0.2603  0.2492  0.1455
 2247TIP3    H128232   6.135   6.703  12.020 -0.3004  0.9171 -0.7560
 2247TIP3    H228233   6.093   6.588  11.932  1.2185 -1.2728  1.2737
 2248TIP3   OH228234   4.806   0.078  13.260  0.4523  0.0874 -0.8602
 2248TIP3    H128235   4.767   0.120  13.337  0.3782 -1.2069 -0.1607
 2248TIP3    H228236   4.757   0.114  13.186  0.9072  1.8015 -0.3952
 2249TIP3   OH228237   4.546   0.452  12.528 -0.1094  0.2318 -0.5200
 2249TIP3    H128238   4.593   0.375  12.559 -0.7352 -0.3799 -1.0659
 2249TIP3    H228239   4.468   0.417  12.484  0.7161  1.0319 -2.7991
 2250TIP3   OH228240   2.680   1.301   0.923 -0.1615  0.2569  0.5821
 2250TIP3    H128241   2.616   1.236   0.951  0.3813 -0.5366  0.0251
 2250TIP3    H228242   2.754   1.290   0.982  0.6875 -0.9256 -0.6385
 2251TIP3   OH228243   1.858   6.367  14.998 -0.3521  0.1063 -0.1858
 2251TIP3    H128244   1.936   6.412  14.967 -0.2501  0.0163 -0.0643
 2251TIP3    H228245   1.892   6.290  15.044 -0.5334 -0.2716 -0.6776
 2252TIP3   OH228246   6.200   0.762   1.536 -0.0959  0.5089  0.4697
 2252TIP3    H128247   6.281   0.788   1.581  0.4246 -1.1439  0.5853
 2252TIP3    H228248   6.183   0.832   1.474  2.1572  0.3238 -0.4601
 2253TIP3   OH228249   4.677   6.236   5.145  0.0988  0.0366  1.1422
 2253TIP3    H128250   4.603   6.257   5.087 -0.8559 -1.1741  1.8645
 2253TIP3    H228251   4.696   6.319   5.190  0.0771  0.6963 -0.0099
 2254TIP3   OH228252   3.682   0.354  13.818 -0.1722  0.1502  0.3035
 2254TIP3    H128253   3.648   0.426  13.870  1.1684  1.0082  0.0442
 2254TIP3    H228254   3.723   0.295  13.881 -1.9085 -0.7952  0.5956
 2255TIP3   OH228255   4.376   4.238  12.073  1.0630  0.0004  0.1805
 2255TIP3    H128256   4.309   4.269  12.012  2.3422 -0.0039 -1.2747
 2255TIP3    H228257   4.351   4.277  12.157 -2.7601 -2.8173  0.6208
 2256TIP3   OH228258   1.916   3.525  12.282 -0.2845 -0.1008 -0.0020
 2256TIP3    H128259   1.871   3.529  12.198 -0.7188 -0.2847  0.2166
 2256TIP3    H228260   1.967   3.444  12.278 -0.5069 -0.2419  0.0094
 2257TIP3   OH228261   2.311   4.598   4.305  0.4739  0.1235  0.1263
 2257TIP3    H128262   2.266   4.595   4.389 -0.7183 -0.6794 -0.5103
 2257TIP3    H228263   2.371   4.523   4.306  1.8383  1.1770  0.9635
 2258TIP3   OH228264   6.621   6.485   3.774  0.2747  0.6076  0.1317
 2258TIP3    H128265   6.691   6.432   3.811 -0.7094 -0.1157  1.0173
 2258TIP3    H228266   6.618   6.459   3.682  0.5156 -0.0806  0.3146
 2259TIP3   OH228267   1.569   0.676  15.159 -0.3485  1.1054 -0.0371
 2259TIP3    H128268   1.521   0.613  15.104  2.2811 -1.2002  0.0568
 2259TIP3    H228269   1.541   0.655  15.248  0.3278  0.1875 -0.0264
 2260TIP3   OH228270   3.775   2.247   0.561 -0.1476 -0.3698  0.1733
 2260TIP3    H128271   3.683   2.260   0.586 -0.5373 -0.0942 -1.2974
 2260TIP3    H228272   3.797   2.160   0.593 -0.7534 -0.2341  0.9954
 2261TIP3   OH228273   3.292   3.683  11.388 -0.2162 -0.0759  0.0854
 2261TIP3    H128274   3.285   3.734  11.307 -0.7525  1.6086  1.1465
 2261TIP3    H228275   3.326   3.745  11.452 -1.6571 -0.8256  1.6379
 2262TIP3   OH228276   1.772   3.073   0.759 -0.2293  0.0743 -0.5248
 2262TIP3    H128277   1.782   3.143   0.822  0.9334  0.3917 -1.0481
 2262TIP3    H228278   1.789   2.993   0.809  2.1426  0.4045 -0.7080
 2263TIP3   OH228279   5.213   4.381  11.458  0.4217  0.7206  0.1914
 2263TIP3    H128280   5.123   4.353  11.439  0.2651  0.8740  0.6954
 2263TIP3    H228281   5.261   4.300  11.473 -0.3177  0.7090  2.9511
 2264TIP3   OH228282   2.889   5.247   0.190 -0.4304  0.2227  0.2703
 2264TIP3    H128283   2.887   5.341   0.208 -1.9348  0.7623 -2.1126
 2264TIP3    H228284   2.974   5.233   0.148 -0.7763  0.8683 -0.6948
 2265TIP3   OH228285   5.819   0.624  15.365 -0.0916  0.4157 -0.3266
 2265TIP3    H128286   5.741   0.575  15.339 -1.2439  1.8203  0.3402
 2265TIP3    H228287   5.799   0.656  15.453  0.6802  1.8610 -0.6321
 2266TIP3   OH228288   6.599   0.665  16.350 -0.5284  0.0756  0.4474
 2266TIP3    H128289   6.659   0.701  16.416  0.9601  0.4256 -1.0157
 2266TIP3    H228290   6.586   0.574  16.377  0.2433  0.1448  1.0975
 2267TIP3   OH228291   6.535   4.183   1.623  0.1654 -0.4675 -0.5064
 2267TIP3    H128292   6.590   4.119   1.577 -0.6783 -1.3958 -0.2539
 2267TIP3    H228293   6.453   4.184   1.573 -0.6808 -1.3199  0.8015
 2268TIP3   OH228294   2.849   5.252   0.916 -0.2024  0.2282 -0.1293
 2268TIP3    H128295   2.921   5.301   0.956  0.6043 -0.0495 -1.1816
 2268TIP3    H228296   2.770   5.294   0.950  0.4296  0.2240  1.4470
 2269TIP3   OH228297   0.496   5.526   4.029  0.3193  0.1454  0.5082
 2269TIP3    H128298   0.541   5.498   4.108  1.3165 -0.1811 -0.1627
 2269TIP3    H228299   0.566   5.542   3.966 -0.3908  1.4175 -0.0002
 2270TIP3   OH228300   4.954   5.395  16.998 -0.3331  0.0536  0.5963
 2270TIP3    H128301   4.904   5.464  16.954 -2.3494 -1.1566  0.8659
 2270TIP3    H228302   4.891   5.354  17.058  1.1323 -1.2504  1.3241
 2271TIP3   OH228303   5.980   6.163   4.376 -0.3224  0.1710 -0.1604
 2271TIP3    H128304   5.970   6.150   4.282 -2.3302 -3.3589  0.3450
 2271TIP3    H228305   5.894   6.190   4.406 -0.4650 -1.3011  0.8837
 2272TIP3   OH228306   2.258   5.479   2.886  0.6664 -0.3485  0.0672
 2272TIP3    H128307   2.328   5.496   2.823  1.0226  0.2672  0.6179
 2272TIP3    H228308   2.187   5.441   2.833  0.8546  0.4078 -0.7468
 2273TIP3   OH228309   1.042   0.724  17.190 -0.3564  0.0327  0.1424
 2273TIP3    H128310   0.959   0.677  17.176 -1.8901  2.7201 -0.5665
 2273TIP3    H228311   1.062   0.763  17.105  2.2474 -1.3734  0.0463
 2274TIP3   OH228312   1.836   4.209   4.950  0.2849 -0.6936  0.0131
 2274TIP3    H128313   1.875   4.167   4.874  1.9893 -0.6007  0.7867
 2274TIP3    H228314   1.910   4.238   5.002 -0.7859 -1.8830  2.3535
 2275TIP3   OH228315   2.545   4.650   4.443  0.1739 -0.1961 -0.3537
 2275TIP3    H128316   2.463   4.691   4.415 -0.3389  0.2999  1.7364
 2275TIP3    H228317   2.519   4.563   4.473  0.8604 -1.0952 -2.1874
 2276TIP3   OH228318   1.710   3.281  14.324 -0.4262  0.0515  0.2369
 2276TIP3    H128319   1.752   3.281  14.238 -0.4328 -2.6771  0.1638
 2276TIP3    H228320   1.782   3.279  14.386 -0.3696  3.3782  0.4693
 2277TIP3   OH228321   6.450   6.574   5.041 -0.6994 -0.1237  0.1133
 2277TIP3    H128322   6.542   6.603   5.037 -0.7946  0.2353  0.4567
 2277TIP3    H228323   6.426   6.582   5.133 -1.2761  0.4380 -0.0727
 2278TIP3   OH228324   0.781   3.608  11.400  0.1074  0.3631 -0.0461
 2278TIP3    H128325   0.874   3.596  11.380  0.3438  0.0734  1.1629
 2278TIP3    H228326   0.736   3.545  11.344  0.5320  1.2487 -1.4447
 2279TIP3   OH228327   6.734   4.364  13.472 -0.8113 -1.0440 -0.3659
 2279TIP3    H128328   6.644   4.333  13.469 -1.9477  1.9972 -1.1341
 2279TIP3    H228329   6.754   4.371  13.565 -3.7084  3.9075  0.2111
 2280TIP3   OH228330   0.114   0.985   0.917  0.0514  0.2629 -0.0190
 2280TIP3    H128331   0.083   1.006   1.004 -1.2488 -1.3813 -0.0249
 2280TIP3    H228332   0.183   1.048   0.899 -1.0361  1.9172  1.3748
 2281TIP3   OH228333   6.290   4.862  16.877  0.3049  0.1502  0.5661
 2281TIP3    H128334   6.302   4.949  16.839 -1.2005  1.5939  3.0946
 2281TIP3    H228335   6.363   4.852  16.938 -0.1303  0.1451  1.0956
 2282TIP3   OH228336   5.670   5.465   3.283  0.0484  0.3091  0.7210
 2282TIP3    H128337   5.683   5.404   3.211 -0.9007  0.5037  0.3629
 2282TIP3    H228338   5.742   5.527   3.276 -0.1481  0.4411 -0.1879
 2283TIP3   OH228339   4.553   0.820   3.940 -0.0401  0.2687  0.4105
 2283TIP3    H128340   4.619   0.768   3.893  0.3453  0.6303  0.5412
 2283TIP3    H228341   4.604   0.889   3.983 -0.5762  0.9244  0.0088
 2284TIP3   OH228342   1.091   0.514   5.375 -0.5094 -0.0702 -0.0855
 2284TIP3    H128343   1.144   0.570   5.319 -0.7310  0.2812  0.0562
 2284TIP3    H228344   1.030   0.573   5.418 -0.6954 -0.4089  0.1226
 2285TIP3   OH228345   4.328   4.516  16.010  0.4123  0.3444  0.0195
 2285TIP3    H128346   4.342   4.524  16.104  0.7437 -0.0691  0.0074
 2285TIP3    H228347   4.233   4.524  15.998  0.3434  0.0994  0.4161
 2286TIP3   OH228348   1.718   1.309   3.192  0.0132 -0.0888 -0.3456
 2286TIP3    H128349   1.623   1.298   3.185 -0.1335  0.8204  0.0706
 2286TIP3    H228350   1.729   1.374   3.262  1.0041 -1.2990  0.6623
 2287TIP3   OH228351   4.503   6.006   1.181 -0.3077 -0.1682  0.1510
 2287TIP3    H128352   4.541   5.919   1.190 -1.1118 -0.4163  1.4424
 2287TIP3    H228353   4.526   6.034   1.093  2.3542 -0.5413  0.6534
 2288TIP3   OH228354   0.923   6.493  14.186 -0.1372  0.1054 -0.1866
 2288TIP3    H128355   0.852   6.433  14.211 -0.1746 -0.5043 -1.6597
 2288TIP3    H228356   0.884   6.580  14.189 -1.1233 -0.2675 -1.4757
 2289TIP3   OH228357   4.961   2.941  13.749  0.3387  0.1745  0.1258
 2289TIP3    H128358   4.937   2.987  13.829 -0.5952 -1.8213  1.0807
 2289TIP3    H228359   5.045   2.900  13.769 -0.6530 -1.6651  0.7430
 2290TIP3   OH228360   3.057   2.627  12.283 -0.0433 -0.0475 -0.1389
 2290TIP3    H128361   3.092   2.538  12.284  0.4688  0.1091  1.9084
 2290TIP3    H228362   3.135   2.683  12.284 -0.3567  0.3955 -0.1377
 2291TIP3   OH228363   2.755   6.735   0.768  0.2727 -0.1706 -0.2027
 2291TIP3    H128364   2.708   6.663   0.811  1.4044 -0.3275  0.7882
 2291TIP3    H228365   2.762   6.706   0.677 -0.8166 -0.5092 -0.2045
 2292TIP3   OH228366   3.188   5.605  16.473 -0.0104  0.3020  0.1143
 2292TIP3    H128367   3.277   5.637  16.460 -0.7272  1.6203 -2.2398
 2292TIP3    H228368   3.134   5.684  16.475 -1.2995 -0.5343 -0.2627
 2293TIP3   OH228369   1.527   3.463  14.763  0.8056  0.0490  0.6294
 2293TIP3    H128370   1.507   3.457  14.670  0.4510 -0.0788  0.7124
 2293TIP3    H228371   1.542   3.556  14.778  0.7454  0.0844  0.4692
 2294TIP3   OH228372   5.791   5.693  13.248  0.0116  0.0001 -0.0469
 2294TIP3    H128373   5.821   5.780  13.274 -1.1374 -0.0396  1.5410
 2294TIP3    H228374   5.815   5.636  13.322 -2.3069 -0.3398  0.5241
 2295TIP3   OH228375   1.244   6.206  14.479 -0.0940 -0.1331 -0.4404
 2295TIP3    H128376   1.231   6.241  14.391  2.5445  1.1050 -0.4178
 2295TIP3    H228377   1.333   6.171  14.479  0.7708  1.7650  2.2650
 2296TIP3   OH228378   1.743   0.468   3.498  0.4828 -0.7211 -0.6130
 2296TIP3    H128379   1.805   0.525   3.454  0.5613  0.5996  1.0854
 2296TIP3    H228380   1.673   0.526   3.528  0.9578 -1.2879  1.8846
 2297TIP3   OH228381   1.069   0.297  15.780 -0.4126 -0.2542  0.1835
 2297TIP3    H128382   1.153   0.266  15.814 -0.0780  0.6529  0.2150
 2297TIP3    H228383   1.086   0.316  15.687  1.0856  5.1945  1.2122
 2298TIP3   OH228384   5.901   5.311  15.816 -0.0790 -0.2513  0.0827
 2298TIP3    H128385   5.944   5.382  15.863 -1.0069 -0.4005  1.1926
 2298TIP3    H228386   5.957   5.294  15.741 -0.2934  2.2663 -0.7187
 2299TIP3   OH228387   0.465   5.344  16.666 -0.0444  0.0538  0.3400
 2299TIP3    H128388   0.524   5.368  16.737 -0.7078  1.0505  0.5801
 2299TIP3    H228389   0.508   5.270  16.622  0.0766 -1.0256  2.1632
 2300TIP3   OH228390   5.948   2.039  16.906 -0.2746 -0.1770  0.3243
 2300TIP3    H128391   5.896   1.989  16.844  3.0180 -0.6151 -2.3424
 2300TIP3    H228392   5.950   2.128  16.870 -0.3231  0.2056  1.2113
 2301TIP3   OH228393   0.251   6.131  16.141  0.2238  0.4580 -0.3388
 2301TIP3    H128394   0.319   6.132  16.072  0.5813  0.8626  0.0111
 2301TIP3    H228395   0.301   6.131  16.223 -0.1587  2.5094 -0.0443
 2302TIP3   OH228396   4.506   5.507  14.169  0.1330  0.2643  0.0146
 2302TIP3    H128397   4.583   5.470  14.126  0.2741  2.3580 -1.7130
 2302TIP3    H228398   4.432   5.455  14.136  0.7689 -2.3151  2.3372
 2303TIP3   OH228399   0.870   3.170   0.742  0.5019  0.4909 -0.0264
 2303TIP3    H128400   0.908   3.227   0.810 -0.6484  1.8033 -0.4487
 2303TIP3    H228401   0.930   3.178   0.668  0.7457  0.5580  0.1772
 2304TIP3   OH228402   4.473   3.268   4.314 -0.3611 -0.5016  0.2330
 2304TIP3    H128403   4.429   3.204   4.257 -0.9552 -0.1271  0.2529
 2304TIP3    H228404   4.401   3.316   4.354  0.0780  0.0756  0.3371
 2305TIP3   OH228405   4.302   6.457  15.153 -0.1436 -0.1125  0.0756
 2305TIP3    H128406   4.224   6.487  15.107 -0.3552  1.1505  1.2180
 2305TIP3    H228407   4.359   6.423  15.083 -0.7340  1.1291 -1.0543
 2306TIP3   OH228408   4.094   0.538   4.586 -0.3553 -0.1046  0.0794
 2306TIP3    H128409   4.175   0.551   4.635 -0.9925  1.3079  0.8299
 2306TIP3    H228410   4.108   0.457   4.537  1.8226  0.5132 -0.4520
 2307TIP3   OH228411   5.287   6.132   1.849 -0.6751 -0.1078  0.3811
 2307TIP3    H128412   5.296   6.224   1.873 -0.8362 -0.2663  1.0714
 2307TIP3    H228413   5.346   6.120   1.775  0.4171  0.2166  1.1772
 2308TIP3   OH228414   5.241   2.299   1.838  0.7649  0.1728 -0.2564
 2308TIP3    H128415   5.305   2.266   1.902  0.0676 -1.1104 -0.2028
 2308TIP3    H228416   5.270   2.389   1.820  1.2264  0.4201  1.5356
 2309TIP3   OH228417   6.085   1.182  14.291  0.1759 -0.2601 -0.6372
 2309TIP3    H128418   6.022   1.122  14.332 -0.2025 -0.2794 -1.2457
 2309TIP3    H228419   6.078   1.165  14.198  1.7504 -0.9066 -0.6786
 2310TIP3   OH228420   2.320   0.483   1.536  0.2264 -0.3965  0.2820
 2310TIP3    H128421   2.309   0.565   1.584 -0.1631 -0.7946  0.8895
 2310TIP3    H228422   2.361   0.508   1.454 -0.2488  0.4583  0.2989
 2311TIP3   OH228423   5.879   1.415  12.368 -0.1673  0.2975  0.1427
 2311TIP3    H128424   5.944   1.354  12.333  1.2937  0.6029  2.0973
 2311TIP3    H228425   5.833   1.365  12.435 -1.9600  0.1200 -1.1535
 2312TIP3   OH228426   1.693   4.622   2.661 -0.3510  0.2448  0.4352
 2312TIP3    H128427   1.770   4.566   2.671  0.4669  1.2917  0.1578
 2312TIP3    H228428   1.624   4.576   2.709 -0.0970 -1.6991 -0.9107
 2313TIP3   OH228429   6.615   6.521  11.355  0.4742  0.0836  0.0431
 2313TIP3    H128430   6.683   6.586  11.373  1.5720 -0.4399 -1.8798
 2313TIP3    H228431   6.578   6.549  11.271 -1.5749  0.2261  0.9519
 2314TIP3   OH228432   0.090   3.070  14.880  0.3013  0.3544  0.5943
 2314TIP3    H128433   0.115   3.067  14.972  0.5434 -0.5857  0.5112
 2314TIP3    H228434   0.113   2.983  14.846  2.5758  1.4711 -0.9635
 2315TIP3   OH228435   5.800   2.334  13.726 -0.4086 -0.3110 -0.0248
 2315TIP3    H128436   5.859   2.259  13.739 -2.0576 -2.4228 -3.2189
 2315TIP3    H228437   5.837   2.380  13.651 -0.4062  1.0752  0.7962
 2316TIP3   OH228438   4.663   1.173   1.547 -0.2359 -0.6036  0.2490
 2316TIP3    H128439   4.739   1.176   1.604  1.5042  1.0445 -1.9624
 2316TIP3    H228440   4.614   1.252   1.567  0.0740 -0.3099 -0.1468
 2317TIP3   OH228441   1.582   0.440  17.224 -0.0264  0.2941 -0.0547
 2317TIP3    H128442   1.617   0.429  17.312  2.9844 -0.2421 -1.1942
 2317TIP3    H228443   1.550   0.531  17.222 -1.0959  0.0100  1.8235
 2318TIP3   OH228444   4.635   4.255   4.769  0.2347  0.1748  0.7960
 2318TIP3    H128445   4.691   4.260   4.692  0.4216  0.1301  0.9299
 2318TIP3    H228446   4.689   4.215   4.837 -0.1555 -0.4691  0.7422
 2319TIP3   OH228447   6.644   5.373   1.695 -0.0574  0.7946 -0.3572
 2319TIP3    H128448   6.636   5.311   1.767 -1.9258 -2.2680 -2.9017
 2319TIP3    H228449   6.723   5.422   1.714  0.7229 -1.3629  2.6639
 2320TIP3   OH228450   0.522   2.973  15.993 -0.2068 -0.2972 -0.2049
 2320TIP3    H128451   0.569   3.048  16.029 -0.5262  1.0826 -2.4712
 2320TIP3    H228452   0.430   2.993  16.007 -0.2991 -0.1800 -0.9480
 2321TIP3   OH228453   5.356   5.415  13.289  0.4469  0.3235  0.8241
 2321TIP3    H128454   5.320   5.476  13.354  0.8530  1.6085 -0.0998
 2321TIP3    H228455   5.442   5.452  13.268  1.7770 -1.9028  1.9682
 2322TIP3   OH228456   6.649   1.001  16.092  0.0267  0.4147 -0.2681
 2322TIP3    H128457   6.578   0.937  16.099 -0.9005  1.2662 -1.4357
 2322TIP3    H228458   6.719   0.965  16.146 -0.1184 -2.0177 -1.5669
 2323TIP3   OH228459   6.700   6.196  10.488 -0.2757 -0.2488 -0.2912
 2323TIP3    H128460   6.711   6.117  10.434  0.0942 -0.3794 -0.0349
 2323TIP3    H228461   6.744   6.265  10.439 -0.4860 -0.2325 -0.4561
 2324TIP3   OH228462   2.829   5.201  12.896 -0.2357  0.1456 -0.2206
 2324TIP3    H128463   2.862   5.291  12.891  1.1431 -0.4051 -3.1337
 2324TIP3    H228464   2.833   5.168  12.806  0.2759 -3.1642  0.8541
 2325TIP3   OH228465   0.452   6.458   1.463 -0.1043 -0.0499 -0.7446
 2325TIP3    H128466   0.509   6.478   1.389 -0.5066  0.4390 -0.9264
 2325TIP3    H228467   0.363   6.473   1.429 -0.3679 -1.1801 -0.5874
 2326TIP3   OH228468   5.950   2.104  13.575 -0.1155 -0.0315 -0.7308
 2326TIP3    H128469   5.935   2.029  13.632  0.1346 -1.5377 -2.5674
 2326TIP3    H228470   5.872   2.108  13.520  0.2845  0.4668 -1.2741
 2327TIP3   OH228471   2.856   4.700   4.837  0.1668 -0.1482 -0.0749
 2327TIP3    H128472   2.784   4.674   4.780  0.9237 -0.1261 -1.0591
 2327TIP3    H228473   2.815   4.715   4.922 -0.5309 -3.1617  0.2142
 2328TIP3   OH228474   5.465   2.910  17.176 -0.0200 -0.5092 -0.3331
 2328TIP3    H128475   5.522   2.969  17.224 -1.2179 -0.8676  1.6700
 2328TIP3    H228476   5.453   2.951  17.090  2.8864 -0.2686 -0.6960
 2329TIP3   OH228477   1.571   2.570  14.591 -0.2034 -0.0501 -0.8395
 2329TIP3    H128478   1.500   2.595  14.532  0.3136  1.1892 -0.9692
 2329TIP3    H228479   1.591   2.479  14.567 -0.6436  0.1183 -1.9048
 2330TIP3   OH228480   2.852   2.264  11.348 -0.3823  0.4337  0.7398
 2330TIP3    H128481   2.846   2.268  11.253  0.1148 -1.1867  0.6120
 2330TIP3    H228482   2.884   2.350  11.374  0.1359  0.6663 -0.6144
 2331TIP3   OH228483   2.156   5.158   1.117  0.1194 -0.5472 -0.1292
 2331TIP3    H128484   2.064   5.133   1.111 -0.2118  0.7019 -0.6112
 2331TIP3    H228485   2.193   5.100   1.184 -1.3964 -0.0166  1.2255
 2332TIP3   OH228486   4.947   5.009  12.266 -0.2291  0.2662  0.2758
 2332TIP3    H128487   4.997   5.001  12.347 -0.3097 -0.9932  0.2202
 2332TIP3    H228488   5.007   5.052  12.205  0.2835  0.0631  0.6300
 2333TIP3   OH228489   5.247   5.217   5.784  0.1060 -0.5807 -0.0173
 2333TIP3    H128490   5.251   5.309   5.809  3.0165 -0.0682 -1.7928
 2333TIP3    H228491   5.161   5.206   5.745 -0.2030  1.4780  0.0026
 2334TIP3   OH228492   6.649   3.807   4.753 -0.0185  0.6475 -0.3471
 2334TIP3    H128493   6.730   3.774   4.714 -0.4219 -0.7466 -0.0418
 2334TIP3    H228494   6.678   3.876   4.813  1.1358 -0.8630  0.9191
 2335TIP3   OH228495   5.365   2.235   1.550 -0.2897 -0.0791 -0.4823
 2335TIP3    H128496   5.404   2.171   1.610  0.6756  0.5710 -0.4093
 2335TIP3    H228497   5.372   2.319   1.595 -2.7161 -0.0426 -0.0100
 2336TIP3   OH228498   4.716   0.871   0.168  0.2263  0.4575 -0.1723
 2336TIP3    H128499   4.704   0.835   0.080  1.5262 -2.5523  0.7533
 2336TIP3    H228500   4.810   0.874   0.180  0.0632 -0.3112  1.5121
 2337TIP3   OH228501   5.240   4.043   1.875  0.1456 -0.0933  0.0029
 2337TIP3    H128502   5.189   3.996   1.941  0.0061 -1.8664 -1.2964
 2337TIP3    H228503   5.187   4.119   1.852  0.9813  1.6186  3.1449
 2338TIP3   OH228504   5.829   5.914   0.247 -0.4870  0.1222  0.3307
 2338TIP3    H128505   5.782   5.831   0.242 -1.0685  0.4064  0.9250
 2338TIP3    H228506   5.770   5.978   0.207  0.0951  0.2085 -0.4317
 2339TIP3   OH228507   6.256   4.143   0.646 -0.2510 -0.4010  0.1348
 2339TIP3    H128508   6.232   4.185   0.729 -1.4816 -1.4603  0.3379
 2339TIP3    H228509   6.228   4.205   0.579  1.6105  0.9076  0.4716
 2340TIP3   OH228510   3.731   1.423   0.333 -0.4256  0.0295 -0.4193
 2340TIP3    H128511   3.771   1.361   0.394 -0.1806 -0.6459 -1.2339
 2340TIP3    H228512   3.742   1.381   0.247 -0.2251  1.2237 -0.9945
 2341TIP3   OH228513   6.283   6.607   6.115 -0.6114  0.2243 -0.5013
 2341TIP3    H128514   6.316   6.577   6.199  0.5136  1.2576 -0.5516
 2341TIP3    H228515   6.214   6.670   6.137  0.9639  1.9387 -0.2795
 2342TIP3   OH228516   5.615   6.195   0.412 -0.7112 -0.1090  0.0590
 2342TIP3    H128517   5.619   6.193   0.507 -2.1403 -1.1464  0.1323
 2342TIP3    H228518   5.527   6.166   0.391 -0.8697  1.3734 -1.5653
 2343TIP3   OH228519   6.577   1.544   6.400 -0.1748  0.2833 -0.1318
 2343TIP3    H128520   6.482   1.542   6.416 -0.4040  0.9836 -1.2798
 2343TIP3    H228521   6.601   1.635   6.417  0.2497  0.1659 -0.1155
 2344TIP3   OH228522   3.804   2.057   1.891 -0.7263  0.4271 -0.6314
 2344TIP3    H128523   3.802   2.072   1.986  0.5467 -0.2767 -0.4796
 2344TIP3    H228524   3.835   1.967   1.881 -0.6317  0.5661 -1.7222
 2345TIP3   OH228525   1.714   3.943   3.145  0.3034 -0.2328 -0.2200
 2345TIP3    H128526   1.633   3.917   3.189  0.0810  2.2411  1.0357
 2345TIP3    H228527   1.765   3.989   3.212  2.0367 -0.3187 -1.4011
 2346TIP3   OH228528   4.193   4.605  12.767 -0.3827 -0.2273  0.4539
 2346TIP3    H128529   4.277   4.636  12.800  0.4656 -1.9397  0.0383
 2346TIP3    H228530   4.167   4.671  12.703  0.5044  0.4820  0.8008
 2347TIP3   OH228531   1.675   4.206   0.670  0.3759  0.0677 -0.1545
 2347TIP3    H128532   1.607   4.271   0.658  0.3038 -0.1762 -1.1294
 2347TIP3    H228533   1.754   4.247   0.635  0.5135 -0.0392  0.0279
 2348TIP3   OH228534   6.005   1.134  12.345  1.0437 -0.1663  0.0083
 2348TIP3    H128535   6.067   1.163  12.277  1.1416 -0.5130 -0.0492
 2348TIP3    H228536   6.020   1.040  12.353  3.3292  0.2806  2.7561
 2349TIP3   OH228537   1.355   4.570  11.882 -0.0807  0.8902  0.4554
 2349TIP3    H128538   1.383   4.655  11.846  2.4760 -0.6206 -1.5568
 2349TIP3    H228539   1.382   4.573  11.973 -0.6916  2.4708  0.6241
 2350TIP3   OH228540   5.195   0.634   2.204 -0.1678 -0.8078  0.3865
 2350TIP3    H128541   5.111   0.641   2.160 -0.2559 -2.4226  0.2381
 2350TIP3    H228542   5.180   0.573   2.276  0.5608 -0.0602  1.2037
 2351TIP3   OH228543   4.062   6.643   5.160 -0.5144 -0.1363  0.1527
 2351TIP3    H128544   4.073   6.550   5.144 -1.4640 -0.0353 -1.2243
 2351TIP3    H228545   4.066   6.684   5.074  1.1821  1.2713  0.8305
 2352TIP3   OH228546   5.014   5.027   2.739  0.3564  0.5261 -0.5265
 2352TIP3    H128547   5.109   5.016   2.739  0.3054  0.0772 -0.7900
 2352TIP3    H228548   4.980   4.952   2.690 -0.1128  0.8809 -0.7629
 2353TIP3   OH228549   6.172   6.445  12.813  0.2239  0.2711  0.2052
 2353TIP3    H128550   6.214   6.451  12.727  1.1572  2.7843  0.7440
 2353TIP3    H228551   6.216   6.372  12.856  0.2758 -0.5401 -1.1535
 2354TIP3   OH228552   3.520   6.809   5.458  0.0317  0.1249  0.1361
 2354TIP3    H128553   3.454   6.756   5.503  0.1065 -1.4009 -1.4468
 2354TIP3    H228554   3.473   6.889   5.435 -1.3644 -0.9785 -1.0669
 2355TIP3   OH228555   5.935   6.324   4.936 -0.1517  0.6254  0.0334
 2355TIP3    H128556   6.025   6.332   4.903 -0.4903  2.0487 -0.6245
 2355TIP3    H228557   5.934   6.376   5.016  0.4813 -2.2579  2.0328
 2356TIP3   OH228558   3.346   0.717  16.535  0.6153  0.0625 -0.5004
 2356TIP3    H128559   3.309   0.710  16.623  2.2827 -1.3592  0.1381
 2356TIP3    H228560   3.279   0.679  16.478 -0.2257  0.4437  0.1920
 2357TIP3   OH228561   0.105   5.813  12.904  0.2587  0.3003  0.2469
 2357TIP3    H128562   0.052   5.883  12.865  1.6193  0.8194 -0.7457
 2357TIP3    H228563   0.130   5.847  12.990 -0.4925  0.3066  0.4696
 2358TIP3   OH228564   6.058   4.753  15.138  0.0313  0.4102 -0.0602
 2358TIP3    H128565   6.049   4.844  15.110 -0.7247  0.2277 -0.4369
 2358TIP3    H228566   5.968   4.722  15.150  0.2297 -0.6618 -1.1684
 2359TIP3   OH228567   3.770   5.160  15.699  0.1334  0.0981  0.0541
 2359TIP3    H128568   3.799   5.097  15.633 -0.7324  0.2815 -0.5210
 2359TIP3    H228569   3.676   5.143  15.709 -0.0715  1.1351  0.0486
 2360TIP3   OH228570   1.726   2.932   1.978  0.3404  0.3393  0.2431
 2360TIP3    H128571   1.654   2.888   2.024  0.2473 -0.8109 -0.9585
 2360TIP3    H228572   1.757   2.867   1.914  2.0765  1.0174  0.3478
 2361TIP3   OH228573   3.321   2.389  14.856 -0.5916 -0.2776 -0.1685
 2361TIP3    H128574   3.294   2.298  14.866 -0.5503 -0.4534 -1.5064
 2361TIP3    H228575   3.311   2.407  14.763  2.9182 -0.0643 -0.6214
 2362TIP3   OH228576   2.550   6.607  12.076  0.5914 -0.0058  0.0752
 2362TIP3    H128577   2.590   6.548  12.011 -1.4051 -1.3500 -0.0123
 2362TIP3    H228578   2.617   6.616  12.144  1.4434 -1.3089 -0.5497
 2363TIP3   OH228579   3.566   4.677   1.188 -0.0889  0.5185  0.6388
 2363TIP3    H128580   3.554   4.691   1.094  0.0971 -0.1737  0.5050
 2363TIP3    H228581   3.489   4.627   1.215 -0.1764  0.7767  0.8732
 2364TIP3   OH228582   6.096   0.124   2.194 -0.7394 -0.2317  0.2391
 2364TIP3    H128583   6.178   0.147   2.239  0.5543 -0.9957 -1.5830
 2364TIP3    H228584   6.075   0.201   2.141  0.0625 -0.8303 -0.9866
 2365TIP3   OH228585   0.080   1.358  15.089  0.1578  0.3686 -0.0209
 2365TIP3    H128586   0.144   1.360  15.160 -1.2389  0.8193  1.2794
 2365TIP3    H228587   0.060   1.266  15.077 -3.0561  0.3950  3.5181
 2366TIP3   OH228588   2.297   6.550  11.368  0.2976 -0.2588  0.1499
 2366TIP3    H128589   2.380   6.597  11.357  1.1839 -1.0455  2.8094
 2366TIP3    H228590   2.323   6.458  11.371 -0.8285 -0.5923 -0.0161
 2367TIP3   OH228591   4.609   3.518   4.338  0.2098  0.3064  0.3481
 2367TIP3    H128592   4.561   3.436   4.326  0.3961 -0.1255  2.2639
 2367TIP3    H228593   4.695   3.501   4.297 -0.0876 -0.1069 -0.1209
 2368TIP3   OH228594   5.646   0.182   3.013  0.6103 -0.4422 -0.4192
 2368TIP3    H128595   5.593   0.258   3.038 -0.0978 -1.0636  0.0340
 2368TIP3    H228596   5.730   0.197   3.055  0.0274 -0.5628  0.8434
 2369TIP3   OH228597   4.930   2.657   3.663  0.5047 -0.3579  0.3336
 2369TIP3    H128598   4.989   2.607   3.607 -0.5723 -1.1511 -0.1210
 2369TIP3    H228599   4.954   2.749   3.646  1.5924 -0.6503  0.1687
 2370TIP3   OH228600   5.354   6.043   3.353 -0.2219 -0.1914  0.2273
 2370TIP3    H128601   5.375   5.986   3.427  0.5075 -0.4999 -0.1975
 2370TIP3    H228602   5.259   6.052   3.355 -0.3934 -1.6508  0.1491
 2371TIP3   OH228603   6.366   5.345   2.889  0.4844 -0.0154  0.0042
 2371TIP3    H128604   6.390   5.257   2.916 -0.6528  0.2930  2.2061
 2371TIP3    H228605   6.449   5.394   2.891  0.6788 -0.3438  1.7693
 2372TIP3   OH228606   0.557   6.172   5.653 -0.1604 -0.0132 -0.4673
 2372TIP3    H128607   0.590   6.221   5.728 -3.4475  0.9228  0.5582
 2372TIP3    H228608   0.617   6.097   5.645  2.8204  2.1231  0.2662
 2373TIP3   OH228609   3.689   1.179   5.899  0.6578 -0.8128 -0.4405
 2373TIP3    H128610   3.668   1.154   5.989 -1.1788  0.3119 -0.5048
 2373TIP3    H228611   3.750   1.252   5.908  2.1772 -2.0793 -0.1759
 2374TIP3   OH228612   5.334   4.730  11.548 -0.3327 -0.0833 -0.0154
 2374TIP3    H128613   5.416   4.684  11.531 -1.0362 -1.0963 -0.7819
 2374TIP3    H228614   5.352   4.786  11.624  1.5015  0.8705 -1.0954
 2375TIP3   OH228615   6.041   1.028   0.172 -0.6816 -0.0082 -0.2484
 2375TIP3    H128616   6.031   1.060   0.262  1.7715  0.8404 -0.1938
 2375TIP3    H228617   5.954   1.037   0.133 -1.2888  1.8335  1.3528
 2376TIP3   OH228618   1.227   5.454  12.937  0.2440  0.1995  0.2284
 2376TIP3    H128619   1.142   5.469  12.896 -0.7775 -3.0505  0.8819
 2376TIP3    H228620   1.254   5.367  12.906  1.5460 -0.4385  2.8544
 2377TIP3   OH228621   4.172   3.821   2.595  0.1943  0.6237 -0.5765
 2377TIP3    H128622   4.149   3.787   2.509  1.5793 -0.4396 -0.5713
 2377TIP3    H228623   4.260   3.857   2.585  0.7732 -0.3749  0.5724
 2378TIP3   OH228624   4.894   1.566   0.260  0.2701 -0.3242  0.2482
 2378TIP3    H128625   4.888   1.538   0.352 -1.3128 -1.6830 -0.2279
 2378TIP3    H228626   4.833   1.639   0.253  0.7745  0.1172  0.3753
 2379TIP3   OH228627   6.274   4.577   4.503 -0.1103 -0.4360 -0.0754
 2379TIP3    H128628   6.354   4.605   4.458  0.2201 -2.7130 -1.0455
 2379TIP3    H228629   6.203   4.603   4.445  0.0630 -0.1290 -0.1494
 2380TIP3   OH228630   3.823   4.535  12.590  0.3347 -0.2833  0.4878
 2380TIP3    H128631   3.797   4.443  12.589 -0.4320 -0.0794  1.2379
 2380TIP3    H228632   3.786   4.571  12.671 -0.1362  0.8983 -0.2184
 2381TIP3   OH228633   0.653   1.138   0.435 -0.1355 -0.3484  0.4858
 2381TIP3    H128634   0.596   1.157   0.510  0.5557 -1.9367  1.4560
 2381TIP3    H228635   0.741   1.161   0.465  0.1080 -0.6761  0.0397
 2382TIP3   OH228636   6.469   4.320  15.255  0.0838 -0.0596 -0.0869
 2382TIP3    H128637   6.541   4.384  15.248  0.1447  0.0739  1.4725
 2382TIP3    H228638   6.391   4.370  15.233  0.3613  0.0040 -0.9747
 2383TIP3   OH228639   0.327   1.979   3.514  0.1179 -0.1051  0.7464
 2383TIP3    H128640   0.320   1.943   3.425  0.9857  2.5092 -0.4555
 2383TIP3    H228641   0.417   1.960   3.541 -0.1972 -1.0561  1.1919
 2384TIP3   OH228642   0.434   3.263  14.095 -0.8983  0.1140 -0.2275
 2384TIP3    H128643   0.406   3.276  14.186  0.2711  0.4915  0.0971
 2384TIP3    H228644   0.354   3.235  14.050 -1.3011 -1.0249  1.1026
 2385TIP3   OH228645   2.431   0.624  15.992 -0.2013 -0.4210 -0.3148
 2385TIP3    H128646   2.452   0.703  15.942  1.1489 -0.6605 -0.1539
 2385TIP3    H228647   2.336   0.626  16.000 -0.0965  2.3805  1.6530
 2386TIP3   OH228648   1.126   3.521   0.484 -0.6213  0.3280  0.5136
 2386TIP3    H128649   1.199   3.473   0.445 -1.5092  0.2059 -1.1083
 2386TIP3    H228650   1.056   3.457   0.491 -0.8711  0.6616  1.2082
 2387TIP3   OH228651   1.308   4.635   1.020 -0.7655  0.0788  0.7047
 2387TIP3    H128652   1.275   4.546   1.031 -2.0434  0.7110  2.2698
 2387TIP3    H228653   1.241   4.679   0.968 -0.6707  0.4268  0.8739
 2388TIP3   OH228654   4.797   1.203  15.444 -0.4769 -0.0271 -0.1758
 2388TIP3    H128655   4.768   1.206  15.353  1.7902 -1.3388 -1.0101
 2388TIP3    H228656   4.852   1.280  15.454 -0.4568 -0.0633 -0.0011
 2389TIP3   OH228657   1.840   1.178   1.679  0.0414 -0.7348  0.2490
 2389TIP3    H128658   1.840   1.271   1.702  0.9247 -0.9242  1.0829
 2389TIP3    H228659   1.874   1.176   1.589  0.6852 -0.3005  0.4750
 2390TIP3   OH228660   0.476   5.412   2.879  0.0772 -0.3317  0.4827
 2390TIP3    H128661   0.512   5.324   2.884 -0.8782 -0.9526 -2.0061
 2390TIP3    H228662   0.398   5.404   2.824  1.0533  2.3358 -1.5428
 2391TIP3   OH228663   3.299   6.017  16.921  0.5197  0.3328  0.4628
 2391TIP3    H128664   3.257   6.098  16.949  2.2756  1.3892  0.1554
 2391TIP3    H228665   3.335   5.980  17.001  0.9805  0.6181  0.3883
 2392TIP3   OH228666   6.325   0.049  14.641  0.3944  0.2042 -0.2698
 2392TIP3    H128667   6.355   0.097  14.564  1.7602 -0.1047  0.0374
 2392TIP3    H228668   6.401   0.050  14.700 -0.0691 -0.9881  0.3753
 2393TIP3   OH228669   1.689   0.446   5.167 -0.1318  0.3428 -0.0469
 2393TIP3    H128670   1.768   0.393   5.153 -0.1224 -0.3356  2.1760
 2393TIP3    H228671   1.720   0.536   5.165  0.9879  0.0519  2.0633
 2394TIP3   OH228672   0.932   0.991   5.080 -0.1911  0.1232  0.3035
 2394TIP3    H128673   0.848   1.036   5.085 -0.6127 -0.7422  1.6199
 2394TIP3    H228674   0.910   0.902   5.054  0.4013  0.0499  0.0244
 2395TIP3   OH228675   6.725   4.902   2.723  0.2243 -0.2267 -0.3776
 2395TIP3    H128676   6.776   4.952   2.660 -1.8314  0.4603 -1.6098
 2395TIP3    H228677   6.718   4.959   2.800 -0.1506  0.4246 -0.8840
 2396TIP3   OH228678   6.330   6.746   4.752 -0.4703 -0.1487  0.0547
 2396TIP3    H128679   6.303   6.762   4.842 -2.4674 -0.2548 -0.4645
 2396TIP3    H228680   6.422   6.773   4.749 -0.1540 -0.7634  2.2563
 2397TIP3   OH228681   5.003   6.232  12.177  0.2693  0.4990 -0.1475
 2397TIP3    H128682   4.981   6.185  12.097  1.1761  0.8199 -0.6031
 2397TIP3    H228683   5.034   6.165  12.237 -2.5020 -0.0743  0.7756
 2398TIP3   OH228684   2.417   1.316   3.245 -1.0597  0.0835  0.1400
 2398TIP3    H128685   2.447   1.234   3.207 -0.5420  1.5027 -2.8467
 2398TIP3    H228686   2.334   1.334   3.201 -0.9374  1.3612  0.3926
 2399TIP3   OH228687   5.412   3.063   6.666 -0.0203  0.2115 -0.7885
 2399TIP3    H128688   5.501   3.028   6.671 -0.5922 -1.2119  0.1228
 2399TIP3    H228689   5.418   3.150   6.705  0.5309 -0.8780  1.7630
 2400TIP3   OH228690   5.621   1.657   6.911  0.2273  0.4576  0.5176
 2400TIP3    H128691   5.646   1.565   6.909 -0.0987  0.3730  0.2052
 2400TIP3    H228692   5.688   1.699   6.965 -0.7220 -0.2998  2.3865
 2401TIP3   OH228693   6.465   0.221   0.578 -0.0036 -0.3685 -0.1629
 2401TIP3    H128694   6.412   0.152   0.618  1.2273 -0.8411  0.7305
 2401TIP3    H228695   6.528   0.173   0.523  1.8376 -0.1368  1.6145
 2402TIP3   OH228696   4.114   0.938  13.759 -0.3661 -0.4724 -0.0556
 2402TIP3    H128697   4.045   0.873  13.749 -0.6532  0.1645 -3.0392
 2402TIP3    H228698   4.162   0.935  13.676  2.3312  0.1278  1.3587
 2403TIP3   OH228699   1.771   2.912   3.382 -0.0971  0.0923 -0.0662
 2403TIP3    H128700   1.860   2.939   3.360  0.3334 -0.6848  0.6959
 2403TIP3    H228701   1.760   2.827   3.339 -0.6629  0.4188 -0.5894
 2404TIP3   OH228702   5.228   6.280  11.008 -1.2325 -0.0823 -0.1528
 2404TIP3    H128703   5.269   6.364  10.985  0.0629 -0.4261  0.7955
 2404TIP3    H228704   5.170   6.261  10.935 -0.8955  1.2261 -0.7894
 2405TIP3   OH228705   1.894   6.134  16.500  0.0088 -0.4353  0.0669
 2405TIP3    H128706   1.849   6.066  16.551  0.4180 -0.3470  0.5535
 2405TIP3    H228707   1.884   6.106  16.409 -0.8875 -0.5040  0.1781
 2406TIP3   OH228708   1.269   2.696  10.985 -0.1359  0.3920 -0.2553
 2406TIP3    H128709   1.299   2.631  10.922 -0.7310  0.2674 -0.4193
 2406TIP3    H228710   1.296   2.661  11.070  1.2656  0.8884 -0.4614
 2407TIP3   OH228711   1.514   6.164   5.611 -0.6093 -0.0859 -0.3615
 2407TIP3    H128712   1.474   6.157   5.524 -1.6078  0.4600  0.0436
 2407TIP3    H228713   1.449   6.209   5.664 -0.6528 -1.7398  1.0712
 2408TIP3   OH228714   5.866   2.460  16.140  0.8601  0.0721 -0.1591
 2408TIP3    H128715   5.788   2.514  16.134  1.4454  1.0863  0.8569
 2408TIP3    H228716   5.836   2.372  16.119 -0.3068  0.6311 -0.9371
 2409TIP3   OH228717   4.868   5.035  16.854 -0.3255 -0.3167  0.4255
 2409TIP3    H128718   4.942   5.007  16.800 -0.4783 -0.9338  0.5244
 2409TIP3    H228719   4.806   4.963  16.847  0.3411 -1.2013  2.7407
 2410TIP3   OH228720   1.154   6.386  14.754 -0.4368 -0.2109 -0.0001
 2410TIP3    H128721   1.100   6.338  14.816 -0.0897 -0.7142 -0.0821
 2410TIP3    H228722   1.226   6.326  14.733 -0.2544  0.1626 -0.4657
 2411TIP3   OH228723   1.440   2.086  15.691 -0.4325 -0.2451  0.1955
 2411TIP3    H128724   1.493   2.083  15.771  2.4454  0.2341 -1.5585
 2411TIP3    H228725   1.430   1.994  15.666 -0.5851 -0.3538  0.6463
 2412TIP3   OH228726   5.527   1.255  14.513 -0.5541 -0.1182  0.0561
 2412TIP3    H128727   5.574   1.179  14.477  1.1605  0.3979  1.1046
 2412TIP3    H228728   5.475   1.219  14.584 -0.1539 -0.4039  0.2101
 2413TIP3   OH228729   3.093   5.110   4.243 -0.0260 -0.2910  0.2799
 2413TIP3    H128730   3.166   5.091   4.301  2.4926  2.1526 -1.8318
 2413TIP3    H228731   3.041   5.175   4.289 -0.4316 -1.3769  1.4132
 2414TIP3   OH228732   4.319   4.315   3.463 -0.3115 -0.4121 -0.0066
 2414TIP3    H128733   4.360   4.400   3.449 -2.1885  0.4648 -0.6132
 2414TIP3    H228734   4.391   4.254   3.471  1.1971  1.5202  2.6306
 2415TIP3   OH228735   5.171   3.808   5.021 -0.1586 -0.1815 -0.6126
 2415TIP3    H128736   5.211   3.862   4.954  0.3126  2.3475  1.5174
 2415TIP3    H228737   5.244   3.767   5.066 -0.3420 -0.4212 -0.5311
 2416TIP3   OH228738   5.882   2.419   3.946  0.0248  0.2297 -0.0077
 2416TIP3    H128739   5.923   2.470   4.016 -1.7812  2.1902 -0.2559
 2416TIP3    H228740   5.788   2.439   3.953 -0.5171 -1.5384 -1.4003
 2417TIP3   OH228741   4.633   0.159  16.454  0.2077  0.0157  0.6014
 2417TIP3    H128742   4.540   0.157  16.476  0.1569 -1.1222  0.3096
 2417TIP3    H228743   4.636   0.181  16.361  0.1185 -2.0419  0.0774
 2418TIP3   OH228744   1.255   0.940   3.576  0.4656 -0.7726 -0.2990
 2418TIP3    H128745   1.333   0.995   3.566 -1.2373  1.5933 -1.6307
 2418TIP3    H228746   1.232   0.914   3.486 -1.3245  0.2097 -0.1691
 2419TIP3   OH228747   3.890   1.369   5.914 -0.6165  0.0586  0.4202
 2419TIP3    H128748   3.969   1.334   5.874  0.2787  1.3464  1.0026
 2419TIP3    H228749   3.919   1.404   5.998 -1.6810  1.1302  0.3697
 2420TIP3   OH228750   3.161   6.260  15.016 -0.3644 -0.4942  0.3275
 2420TIP3    H128751   3.096   6.270  15.086 -1.5390 -1.9405 -0.4969
 2420TIP3    H228752   3.177   6.166  15.011  0.5770 -0.3031 -0.5758
 2421TIP3   OH228753   6.249   1.934  12.301  0.0683 -0.0377 -0.2511
 2421TIP3    H128754   6.164   1.901  12.273  0.6474  1.1434 -3.9946
 2421TIP3    H228755   6.312   1.874  12.262  0.9847  2.4205 -2.8804
 2422TIP3   OH228756   1.004   3.721  12.934 -0.2520 -0.6782 -0.2197
 2422TIP3    H128757   0.927   3.767  12.968 -1.5977 -2.8374 -0.1707
 2422TIP3    H228758   0.984   3.707  12.842 -0.3394 -1.9793 -0.0242
 2423TIP3   OH228759   2.760   5.083   5.798 -0.3142 -1.0520 -0.2872
 2423TIP3    H128760   2.721   5.055   5.715  0.8585 -0.5134 -1.0438
 2423TIP3    H228761   2.809   5.007   5.828  0.5697 -0.7371 -0.9120
 2424TIP3   OH228762   4.666   1.913   2.135 -0.5896  0.1808 -0.1587
 2424TIP3    H128763   4.737   1.935   2.075 -0.2697  0.6347  0.3741
 2424TIP3    H228764   4.593   1.888   2.079  0.3731 -1.5759 -0.7352
 2425TIP3   OH228765   2.907   4.387   0.504 -0.0909 -0.1329 -0.5187
 2425TIP3    H128766   2.974   4.391   0.572 -1.5116  0.9205  0.8913
 2425TIP3    H228767   2.885   4.294   0.497  0.6769 -0.3478 -0.1456
 2426TIP3   OH228768   1.884   5.841   1.014  0.1648  0.2222  0.2992
 2426TIP3    H128769   1.825   5.916   1.009 -0.8825 -0.5594  0.5492
 2426TIP3    H228770   1.967   5.873   0.979 -0.5030  1.2475 -0.3876
 2427TIP3   OH228771   2.851   1.027  13.915 -0.1717 -0.4306  0.3311
 2427TIP3    H128772   2.808   0.972  13.981 -1.4415 -1.0113 -0.9316
 2427TIP3    H228773   2.874   0.966  13.844  0.0166  0.3896 -0.3223
 2428TIP3   OH228774   5.811   4.727  10.399 -0.0935  0.3598 -0.6378
 2428TIP3    H128775   5.753   4.708  10.473 -0.5342  0.0815 -1.0429
 2428TIP3    H228776   5.858   4.806  10.424  2.4312 -1.6538  1.5030
 2429TIP3   OH228777   6.666   6.747   4.321  0.2921 -0.1539 -0.3274
 2429TIP3    H128778   6.579   6.723   4.353  1.0836 -2.5093  0.2744
 2429TIP3    H228779   6.676   6.838   4.347 -1.3291 -0.3165  1.1188
 2430TIP3   OH228780   1.480   4.686  17.226  0.3144 -0.1658 -0.0597
 2430TIP3    H128781   1.447   4.663  17.313  2.1761  1.6511  1.2126
 2430TIP3    H228782   1.491   4.602  17.182 -0.8836 -1.1168  1.3609
 2431TIP3   OH228783   1.767   1.450   1.683 -0.0367  0.2075 -0.1322
 2431TIP3    H128784   1.680   1.409   1.684 -0.0964  0.3374  0.0518
 2431TIP3    H228785   1.751   1.539   1.654 -0.0109  0.3360  0.2496
 2432TIP3   OH228786   5.684   5.744  16.259 -0.2294  0.2076 -0.6951
 2432TIP3    H128787   5.662   5.787  16.176 -2.3916 -1.0778 -0.8530
 2432TIP3    H228788   5.674   5.650  16.241  1.5775 -0.2586  0.4264
 2433TIP3   OH228789   6.070   4.966   4.963 -0.3699  0.2234  0.1545
 2433TIP3    H128790   5.992   4.912   4.975 -0.1635 -0.1959 -0.3495
 2433TIP3    H228791   6.109   4.934   4.882  0.3398  0.4167  0.4148
 2434TIP3   OH228792   4.786   6.556  11.463  0.5884  0.2472 -0.0889
 2434TIP3    H128793   4.843   6.515  11.398  3.0149  0.3157  1.8420
 2434TIP3    H228794   4.703   6.570  11.417  2.3329  0.9092 -3.3579
 2435TIP3   OH228795   2.580   0.797   1.714 -0.0768 -0.0675  0.0264
 2435TIP3    H128796   2.639   0.830   1.647  1.1695 -1.0320  0.6026
 2435TIP3    H228797   2.638   0.758   1.780 -1.3869 -2.4057 -0.1028
 2436TIP3   OH228798   5.350   5.738  11.637 -0.3180  0.0184  0.1013
 2436TIP3    H128799   5.327   5.813  11.583  2.4183  0.1603 -1.0053
 2436TIP3    H228800   5.359   5.774  11.725  2.0011  1.2873 -0.5881
 2437TIP3   OH228801   6.459   1.497  13.308  0.5117 -0.1634  0.7140
 2437TIP3    H128802   6.546   1.488  13.347 -0.3613  1.2341  3.2365
 2437TIP3    H228803   6.422   1.576  13.349 -1.6473 -0.2257 -0.9003
 2438TIP3   OH228804   6.360   3.324  12.239  0.0609  0.5138 -0.0996
 2438TIP3    H128805   6.407   3.345  12.158  1.9633  0.7747  1.0111
 2438TIP3    H228806   6.312   3.404  12.260  0.1416  0.6938 -0.5758
 2439TIP3   OH228807   0.290   2.700   2.826 -0.6269 -0.0326  0.1732
 2439TIP3    H128808   0.320   2.762   2.760 -2.3299  0.8832  0.1958
 2439TIP3    H228809   0.196   2.718   2.836 -0.6105 -0.7309  2.2042
 2440TIP3   OH228810   3.069   4.726  14.641  0.0658  0.8730  0.7777
 2440TIP3    H128811   3.099   4.811  14.672 -2.0629  1.7836  0.5440
 2440TIP3    H228812   3.017   4.746  14.562 -1.9300 -0.3791  1.6918
 2441TIP3   OH228813   4.425   1.641   5.967 -0.0452  0.0501 -0.0856
 2441TIP3    H128814   4.470   1.723   5.947 -1.0389  0.3643 -1.1561
 2441TIP3    H228815   4.456   1.579   5.900  1.4124 -0.7678  1.2649
 2442TIP3   OH228816   6.429   4.397   4.001 -0.5049 -0.4079  0.3194
 2442TIP3    H128817   6.519   4.429   3.990 -0.2443 -0.7593  1.3980
 2442TIP3    H228818   6.419   4.330   3.934  0.4609 -1.2466  0.9970
 2443TIP3   OH228819   4.695   6.348   0.539  0.1957 -0.7439 -0.3672
 2443TIP3    H128820   4.610   6.331   0.580 -0.7514  0.0450 -1.8763
 2443TIP3    H228821   4.682   6.322   0.447  0.4543  2.4229 -1.4296
 2444TIP3   OH228822   5.577   6.611   5.654 -0.0496 -0.2239  0.2905
 2444TIP3    H128823   5.584   6.665   5.733  0.3786  0.8498 -0.4502
 2444TIP3    H228824   5.661   6.568   5.647 -0.3370 -0.8800  0.7986
 2445TIP3   OH228825   4.480   5.774  14.137 -0.1618 -0.5633 -0.2133
 2445TIP3    H128826   4.464   5.682  14.159 -0.6475 -0.3846  0.1971
 2445TIP3    H228827   4.542   5.770  14.063  0.2002 -1.2047  0.1099
 2446TIP3   OH228828   2.865   5.684   3.102  0.5345 -0.3421  0.3914
 2446TIP3    H128829   2.930   5.672   3.033  0.4006  1.1362 -0.0228
 2446TIP3    H228830   2.908   5.651   3.181  1.1044 -1.0111 -0.1795
 2447TIP3   OH228831   4.343   1.793   2.374 -0.0107  0.0667  0.2341
 2447TIP3    H128832   4.254   1.773   2.403  0.5646  1.2610  3.1548
 2447TIP3    H228833   4.379   1.708   2.348 -1.3028 -0.7923  1.0956
 2448TIP3   OH228834   3.197   0.637   4.226 -0.0417  0.4980  0.5783
 2448TIP3    H128835   3.274   0.635   4.169  0.8710 -0.8286  1.7909
 2448TIP3    H228836   3.171   0.729   4.228  0.9786  0.8288 -0.5499
 2449TIP3   OH228837   1.409   2.898   4.959  0.2009  0.5207 -0.0965
 2449TIP3    H128838   1.458   2.945   4.891 -0.0309 -0.0383 -0.6536
 2449TIP3    H228839   1.336   2.956   4.979  1.1822  1.4667  0.8937
 2450TIP3   OH228840   1.929   5.726   4.580 -0.1374 -0.4636  0.0446
 2450TIP3    H128841   1.991   5.741   4.509 -1.5675  0.3681 -1.0881
 2450TIP3    H228842   1.917   5.813   4.619  1.2603 -1.0405  1.9063
 2451TIP3   OH228843   0.257   3.571  14.470 -0.2010  0.2052 -0.4895
 2451TIP3    H128844   0.301   3.656  14.475 -2.4454  1.3879  0.7885
 2451TIP3    H228845   0.228   3.554  14.559 -2.7585 -0.1809 -1.3041
 2452TIP3   OH228846   2.803   0.420  16.239 -0.1657  0.6210 -0.2954
 2452TIP3    H128847   2.886   0.394  16.199  0.6331  1.5824  0.6419
 2452TIP3    H228848   2.736   0.370  16.193  0.7747  1.0363 -2.2182
 2453TIP3   OH228849   5.302   4.321   0.403 -0.3907  0.0886 -0.3002
 2453TIP3    H128850   5.217   4.313   0.446 -0.9210  0.7749 -1.1838
 2453TIP3    H228851   5.287   4.286   0.315  0.4640 -0.5540 -0.1986
 2454TIP3   OH228852   5.716   5.894   0.505  0.1253 -0.4048  0.2434
 2454TIP3    H128853   5.776   5.873   0.434  0.5514  1.0558  0.1334
 2454TIP3    H228854   5.629   5.880   0.468  0.3669 -0.8565 -0.1598
 2455TIP3   OH228855   0.368   4.507   2.211 -0.1917  0.2852  0.0177
 2455TIP3    H128856   0.286   4.473   2.247  0.7554 -0.0231  2.0122
 2455TIP3    H228857   0.389   4.582   2.267 -0.1634  1.6913 -1.7969
 2456TIP3   OH228858   2.247   2.296   3.367 -0.1753  0.2587 -0.3704
 2456TIP3    H128859   2.254   2.367   3.432  1.9550 -1.1993  1.1283
 2456TIP3    H228860   2.308   2.321   3.298  0.1469  0.2027 -0.1139
 2457TIP3   OH228861   5.044   5.203  16.005  0.0037  0.0107  0.0257
 2457TIP3    H128862   4.972   5.141  16.018  0.6262 -1.0144 -1.1639
 2457TIP3    H228863   5.031   5.236  15.916 -0.4217  1.7849  0.6955
 2458TIP3   OH228864   0.600   3.105   3.201  0.5285 -1.2756 -0.5499
 2458TIP3    H128865   0.584   3.033   3.262 -0.4808 -0.6013  0.0271
 2458TIP3    H228866   0.694   3.121   3.206  0.1320  1.2988  3.9082
 2459TIP3   OH228867   3.767   6.285   4.805  0.6048  0.4590 -0.6311
 2459TIP3    H128868   3.682   6.328   4.814  0.3037 -0.2989  0.2258
 2459TIP3    H228869   3.774   6.265   4.712 -0.2368  0.3631 -0.6796
 2460TIP3   OH228870   4.634   1.523   5.341 -0.4406 -0.6269  0.1588
 2460TIP3    H128871   4.583   1.604   5.337 -1.0408 -0.9886  0.3742
 2460TIP3    H228872   4.724   1.552   5.354 -0.5818  0.0229 -0.2715
 2461TIP3   OH228873   3.244   2.336   5.678  0.3886  0.4556  0.2663
 2461TIP3    H128874   3.227   2.339   5.772  1.0008 -0.3392  0.4243
 2461TIP3    H228875   3.175   2.279   5.643  0.2029  0.6927  0.2495
 2462TIP3   OH228876   4.624   2.755   5.892  0.4745  0.1067 -0.0729
 2462TIP3    H128877   4.685   2.780   5.962 -2.0003  3.0160  1.2785
 2462TIP3    H228878   4.541   2.739   5.938 -0.8948  0.7832 -2.1745
 2463TIP3   OH228879   6.624   6.725  12.459  0.4687 -0.1364 -0.2850
 2463TIP3    H128880   6.570   6.776  12.399  1.3753  0.0632 -0.9492
 2463TIP3    H228881   6.578   6.731  12.543 -0.2182  0.5339 -0.6937
 2464TIP3   OH228882   3.218   2.053  16.890 -0.2156 -0.5006  0.2984
 2464TIP3    H128883   3.182   2.083  16.806 -0.2248 -1.0296  0.1083
 2464TIP3    H228884   3.172   2.105  16.955 -0.1260 -0.0013 -0.0315
 2465TIP3   OH228885   1.646   3.009  15.995  0.2881 -0.9532  0.0515
 2465TIP3    H128886   1.711   2.979  16.059  0.0008  0.1026  0.8777
 2465TIP3    H228887   1.689   2.999  15.910  1.6251 -0.0661  0.5927
 2466TIP3   OH228888   0.685   1.920  14.075  0.4090  0.1560 -0.0232
 2466TIP3    H128889   0.592   1.935  14.093 -0.4899 -1.7469 -2.6040
 2466TIP3    H228890   0.715   2.000  14.033 -0.4871  0.1805 -0.6191
 2467TIP3   OH228891   5.002   3.688   0.196 -0.0618  0.2169  0.6449
 2467TIP3    H128892   5.045   3.622   0.141  1.3714  1.3953  0.2724
 2467TIP3    H228893   5.061   3.698   0.271 -0.1521  1.2191  0.5912
 2468TIP3   OH228894   2.289   3.854  16.740  0.6775 -0.5812 -0.3293
 2468TIP3    H128895   2.203   3.846  16.697  0.4321 -0.5986  0.1555
 2468TIP3    H228896   2.296   3.947  16.761  0.9843 -0.4975 -0.7783
 2469TIP3   OH228897   5.528   6.458   2.634 -0.0625 -0.0231  0.4022
 2469TIP3    H128898   5.453   6.410   2.600 -0.1335  0.2873  0.1124
 2469TIP3    H228899   5.532   6.537   2.580 -0.1252  0.4381  1.0553
 2470TIP3   OH228900   2.612   1.386   1.609  0.2230  0.6339  0.1862
 2470TIP3    H128901   2.610   1.338   1.692 -0.4008 -2.5410 -1.4881
 2470TIP3    H228902   2.543   1.452   1.618 -1.5563 -1.2541  1.3493
 2471TIP3   OH228903   3.149   0.638  16.372 -0.1168  0.1245  0.0222
 2471TIP3    H128904   3.183   0.572  16.312 -0.3038 -1.1727  1.2870
 2471TIP3    H228905   3.056   0.645  16.350  0.1541  0.9518 -0.9641
 2472TIP3   OH228906   2.782   2.764  14.650 -0.0204  0.2449  0.1382
 2472TIP3    H128907   2.762   2.671  14.650  1.2028 -0.0444 -1.3250
 2472TIP3    H228908   2.697   2.807  14.637 -0.2522 -0.8014 -2.2836
 2473TIP3   OH228909   3.590   1.115  11.564  0.3619  0.4561 -0.0513
 2473TIP3    H128910   3.569   1.196  11.518  0.7520  1.1162  0.8898
 2473TIP3    H228911   3.669   1.135  11.614 -0.6811  0.1544  1.8150
 2474TIP3   OH228912   0.238   1.896   5.241 -0.0903 -0.1780 -0.0268
 2474TIP3    H128913   0.145   1.918   5.249 -0.1365  0.1856 -1.3206
 2474TIP3    H228914   0.239   1.800   5.236 -0.3849 -0.1899  0.0619
 2475TIP3   OH228915   2.295   0.783   5.757 -0.7510  0.3765  0.9384
 2475TIP3    H128916   2.283   0.790   5.852  0.7959 -1.2173  1.3092
 2475TIP3    H228917   2.219   0.734   5.727 -2.2441  2.5080  1.0017
 2476TIP3   OH228918   1.284   4.722   4.327  0.2177 -0.2941 -0.0924
 2476TIP3    H128919   1.286   4.694   4.419  1.9878 -0.2081 -0.0808
 2476TIP3    H228920   1.193   4.707   4.300 -0.1716 -0.9679  1.4672
 2477TIP3   OH228921   3.371   4.180   1.819 -0.5295  0.0072 -0.6955
 2477TIP3    H128922   3.377   4.097   1.866  0.0017 -0.3030 -1.2933
 2477TIP3    H228923   3.287   4.217   1.845 -1.6656 -1.6107 -1.8657
 2478TIP3   OH228924   6.807   0.610   3.483  0.6621  0.3023  0.0689
 2478TIP3    H128925   6.871   0.601   3.412  0.2309 -1.0436 -0.1720
 2478TIP3    H228926   6.826   0.537   3.542 -0.4079  0.1039  0.1819
 2479TIP3   OH228927   6.180   6.273   4.836  0.1168  0.4083  0.4384
 2479TIP3    H128928   6.169   6.212   4.763 -0.3877 -0.5596  1.2925
 2479TIP3    H228929   6.212   6.353   4.795  0.5657 -0.3425 -0.7534
 2480TIP3   OH228930   4.985   1.384   3.588  0.2241 -0.1240 -0.6724
 2480TIP3    H128931   5.070   1.421   3.563 -0.5543  0.4757 -2.5986
 2480TIP3    H228932   4.973   1.309   3.530 -0.0498 -0.9442  0.4110
 2481TIP3   OH228933   4.001   5.249  14.357  0.5979 -0.4355 -0.6834
 2481TIP3    H128934   4.036   5.250  14.446 -1.7629  1.2271  0.3456
 2481TIP3    H228935   4.000   5.156  14.333 -1.0910 -1.2791  2.1084
 2482TIP3   OH228936   3.009   2.138  12.942 -0.2754  0.1038  0.2131
 2482TIP3    H128937   3.099   2.166  12.959  0.5497 -1.9810 -0.4450
 2482TIP3    H228938   2.961   2.163  13.021  0.7135  1.8118  0.3233
 2483TIP3   OH228939   4.237   1.961   3.875  0.8551  0.1211 -0.1776
 2483TIP3    H128940   4.191   1.942   3.957 -0.2638 -0.5543 -0.9469
 2483TIP3    H228941   4.171   1.951   3.807  1.4225  2.0407 -1.0695
 2484TIP3   OH228942   3.205   6.379  12.207  0.3158 -0.0990  0.0171
 2484TIP3    H128943   3.155   6.349  12.283 -0.7240  0.3954 -0.4443
 2484TIP3    H228944   3.293   6.346  12.221  0.6094  1.4494  2.3077
 2485TIP3   OH228945   6.315   0.144   4.286 -0.5079  0.9235 -0.6096
 2485TIP3    H128946   6.403   0.150   4.247 -0.0372  1.4817  0.4868
 2485TIP3    H228947   6.279   0.231   4.276 -0.4991  0.9911 -0.0768
 2486TIP3   OH228948   6.408   3.126   3.677 -0.7017 -0.5233 -0.1393
 2486TIP3    H128949   6.366   3.203   3.716  1.8415  0.0731  1.6211
 2486TIP3    H228950   6.337   3.081   3.632 -2.7478  1.5992  0.7548
 2487TIP3   OH228951   6.613   3.740   1.487 -0.0647 -0.2033  0.0696
 2487TIP3    H128952   6.679   3.673   1.466  0.1933 -0.4134  1.4988
 2487TIP3    H228953   6.664   3.819   1.505 -0.3060  0.0634 -0.3963
 2488TIP3   OH228954   0.408   6.168  12.905 -0.0101 -0.1063 -0.6276
 2488TIP3    H128955   0.492   6.167  12.951 -0.3296  0.2187 -0.0186
 2488TIP3    H228956   0.411   6.092  12.847  1.0412  0.3795 -1.2466
 2489TIP3   OH228957   4.314   0.154  17.269  0.0132 -0.5181  0.1601
 2489TIP3    H128958   4.223   0.127  17.277 -0.3668  0.1745 -1.3849
 2489TIP3    H228959   4.310   0.244  17.236  1.2262 -0.8316 -0.9612
 2490TIP3   OH228960   2.870   5.604  10.634  0.5047 -0.4107  0.3370
 2490TIP3    H128961   2.792   5.648  10.602 -0.2380 -1.7333  0.2690
 2490TIP3    H228962   2.934   5.674  10.646 -0.8202  0.7681  0.8170
 2491TIP3   OH228963   2.983   6.342  13.386 -0.3221  0.5488 -0.3946
 2491TIP3    H128964   3.000   6.406  13.317 -0.4776  0.2957 -0.6694
 2491TIP3    H228965   2.988   6.393  13.468  0.8769  0.6505 -0.5214
 2492TIP3   OH228966   1.474   3.419  11.431 -0.2192 -0.3386 -0.1164
 2492TIP3    H128967   1.436   3.500  11.398  1.7061  1.5652  1.9436
 2492TIP3    H228968   1.552   3.405  11.377 -0.8156 -1.1597 -0.7965
 2493TIP3   OH228969   2.648   4.093  11.455  0.6946 -0.7315 -0.2531
 2493TIP3    H128970   2.687   4.008  11.435 -0.3881 -1.6126  1.1704
 2493TIP3    H228971   2.613   4.083  11.543  0.6828  1.2666  0.0149
 2494TIP3   OH228972   5.054   4.349  11.999 -0.3773 -0.1351  0.0089
 2494TIP3    H128973   5.004   4.293  11.940 -1.3072  1.4231 -0.7680
 2494TIP3    H228974   5.135   4.368  11.951  0.0046 -0.9201  0.3375
 2495TIP3   OH228975   0.217   0.898   0.047  0.0552 -0.0115  0.1942
 2495TIP3    H128976   0.200   0.868   0.136 -0.3641 -0.4752 -0.0422
 2495TIP3    H228977   0.267   0.979   0.059 -0.8320  0.4518  0.8667
 2496TIP3   OH228978   1.467   0.302  11.982  0.0431 -0.1292 -0.0236
 2496TIP3    H128979   1.525   0.335  12.051 -0.9262 -0.4611  0.9820
 2496TIP3    H228980   1.510   0.327  11.900 -0.1526  2.7357  0.6731
 2497TIP3   OH228981   3.837   6.649   5.864 -0.2661 -0.1520  0.3053
 2497TIP3    H128982   3.771   6.601   5.814 -1.4757  1.4371  0.2858
 2497TIP3    H228983   3.796   6.666   5.949  2.3439 -4.2610  2.7281
 2498TIP3   OH228984   0.616   4.728  16.031 -0.2460 -0.3141 -0.7142
 2498TIP3    H128985   0.611   4.790  15.958  0.0137 -0.6301 -1.0081
 2498TIP3    H228986   0.708   4.730  16.058 -0.3976 -0.0010 -0.2182
 2499TIP3   OH228987   5.421   0.638  13.032  0.3464  0.2697 -0.0608
 2499TIP3    H128988   5.453   0.696  13.101  2.9061 -0.4486 -0.5530
 2499TIP3    H228989   5.326   0.652  13.031  0.2720  0.7006  3.2148
 2500TIP3   OH228990   1.371   1.909  14.413  0.1325  0.1975 -0.8130
 2500TIP3    H128991   1.409   1.867  14.490  1.7671  0.0096 -1.6603
 2500TIP3    H228992   1.318   1.840  14.372  0.5171 -0.1898 -0.6733
 2501TIP3   OH228993   5.184   2.746  14.629 -0.0905 -0.2566  0.3589
 2501TIP3    H128994   5.160   2.774  14.541 -0.0054  0.0547  0.4346
 2501TIP3    H228995   5.143   2.810  14.687 -0.5049 -0.7012  0.5704
 2502TIP3   OH228996   6.245   3.055   5.087 -0.5946 -0.4573 -0.4179
 2502TIP3    H128997   6.158   3.066   5.126  0.1217 -0.9388  1.3961
 2502TIP3    H228998   6.229   3.003   5.008 -1.9978 -0.1365 -0.3680
 2503TIP3   OH228999   5.096   0.629   6.552  0.2457 -0.2834 -0.2463
 2503TIP3    H129000   5.046   0.688   6.496 -0.4630 -0.2031  0.4536
 2503TIP3    H229001   5.031   0.569   6.587  0.2192  1.0931  2.3259
 2504TIP3   OH229002   0.898   6.534   5.534  0.4923  0.0856  0.3469
 2504TIP3    H129003   0.876   6.583   5.454 -0.4050  0.1819  0.6422
 2504TIP3    H229004   0.971   6.477   5.508 -1.3466 -1.6905 -1.2411
 2505TIP3   OH229005   6.368   5.972  15.460  0.0878 -0.1015 -0.1421
 2505TIP3    H129006   6.419   5.900  15.497 -0.5162 -1.6704 -2.1635
 2505TIP3    H229007   6.423   6.008  15.391 -0.4421  0.0071 -0.5150
 2506TIP3   OH229008   5.114   6.056  14.208 -0.4361 -0.4214 -0.4716
 2506TIP3    H129009   5.050   6.033  14.276 -0.6964  1.0408 -0.1699
 2506TIP3    H229010   5.060   6.085  14.134 -0.1376 -0.8540 -0.8572
 2507TIP3   OH229011   1.506   6.411   5.829  0.2040  0.0233  0.1375
 2507TIP3    H129012   1.534   6.433   5.740  0.2751 -1.2538 -0.1702
 2507TIP3    H229013   1.427   6.358   5.817  0.9147 -1.2242  0.7626
 2508TIP3   OH229014   0.080   4.037   3.304 -0.2480  0.3211 -0.0669
 2508TIP3    H129015   0.135   4.038   3.382  1.7736 -1.0011 -1.3922
 2508TIP3    H229016   0.119   3.970   3.248 -1.6771  1.1727 -2.1911
 2509TIP3   OH229017   6.801   4.305   4.842 -0.3204  0.0023  0.2718
 2509TIP3    H129018   6.868   4.238   4.829 -0.6684 -0.2695 -0.1707
 2509TIP3    H229019   6.847   4.388   4.832 -0.3665 -0.1692 -1.9621
 2510TIP3   OH229020   6.574   0.667   3.806  0.0354 -0.0503  0.0124
 2510TIP3    H129021   6.568   0.732   3.737 -0.4591 -0.8190 -0.6860
 2510TIP3    H229022   6.497   0.682   3.861  0.9471  1.2155  1.0204
 2511TIP3   OH229023   2.056   5.763   1.221 -0.2989  0.7198  0.0504
 2511TIP3    H129024   1.981   5.778   1.279 -1.5365  2.5151 -1.8819
 2511TIP3    H229025   2.020   5.770   1.133  1.5954 -1.5269 -1.0059
 2512TIP3   OH229026   5.365   5.820   3.522  0.3927  0.7361 -0.6047
 2512TIP3    H129027   5.439   5.828   3.582 -0.5413  0.0149  0.7041
 2512TIP3    H229028   5.355   5.725   3.510  0.4659  0.8725 -1.7779
 2513TIP3   OH229029   2.186   3.574  13.927  0.5703 -0.1830 -0.5945
 2513TIP3    H129030   2.100   3.546  13.960  0.9618 -0.2201  0.4448
 2513TIP3    H229031   2.185   3.669  13.935  1.1433 -0.2726  0.8050
 2514TIP3   OH229032   5.124   6.304  11.767 -0.0345  0.1966  0.4342
 2514TIP3    H129033   5.106   6.398  11.771  0.1272  0.3430 -1.5589
 2514TIP3    H229034   5.049   6.266  11.722  1.0317 -0.2395 -1.0665
 2515TIP3   OH229035   4.089   1.617   5.831  0.3401  0.3273  0.2258
 2515TIP3    H129036   4.114   1.702   5.793 -0.7962  1.9595  2.7938
 2515TIP3    H229037   4.082   1.635   5.925  1.2397 -2.9728  1.0471
 2516TIP3   OH229038   0.549   6.680  16.021 -0.3631 -0.2060 -0.4604
 2516TIP3    H129039   0.499   6.701  15.942 -1.3122 -3.0289 -0.7311
 2516TIP3    H229040   0.598   6.760  16.041 -2.1220  1.4457 -2.3589
 2517TIP3   OH229041   1.425   5.995  13.989 -0.0493 -0.1580  0.2158
 2517TIP3    H129042   1.344   6.036  14.019 -0.9495  0.0120 -2.1779
 2517TIP3    H229043   1.405   5.902  13.986 -0.7800  0.0057 -1.8481
 2518TIP3   OH229044   4.989   4.356  15.802 -0.7081 -0.0266 -0.0343
 2518TIP3    H129045   4.953   4.443  15.816 -1.2422 -0.0596 -1.1015
 2518TIP3    H229046   4.913   4.301  15.782 -0.3109 -0.6087  0.0069
 2519TIP3   OH229047   3.568   1.628  11.198  0.0925  0.2366  0.2434
 2519TIP3    H129048   3.603   1.558  11.142 -0.4772 -0.3082  0.5607
 2519TIP3    H229049   3.588   1.709  11.149 -1.0351 -0.2659 -1.1113
 2520TIP3   OH229050   0.808   6.395   2.195 -0.2314 -0.0666  0.2472
 2520TIP3    H129051   0.733   6.409   2.137  0.4045 -0.4752 -0.7139
 2520TIP3    H229052   0.770   6.362   2.276 -1.1811  0.8659  0.2093
 2521TIP3   OH229053   1.736   2.069   0.352 -0.1007  0.3195  0.3608
 2521TIP3    H129054   1.665   2.121   0.389 -0.9969 -0.0616 -0.7568
 2521TIP3    H229055   1.778   2.126   0.288 -1.1377 -0.3053 -0.9272
 2522TIP3   OH229056   5.625   0.719  12.855 -0.0663  0.1989  0.4866
 2522TIP3    H129057   5.629   0.815  12.861 -2.2734  0.4993 -1.3492
 2522TIP3    H229058   5.551   0.694  12.911 -0.8512 -0.1534 -0.6609
 2523TIP3   OH229059   4.019   0.228   1.205 -0.0778 -0.6219  0.6298
 2523TIP3    H129060   4.001   0.228   1.111 -1.0311 -0.0989  0.7978
 2523TIP3    H229061   4.114   0.243   1.211 -0.2719  1.3187 -0.2223
 2524TIP3   OH229062   5.525   6.309   3.488  0.5909  0.4707  0.0484
 2524TIP3    H129063   5.434   6.322   3.464 -0.0877 -1.4450  1.3631
 2524TIP3    H229064   5.558   6.244   3.426  1.3831  1.7683 -0.9716
 2525TIP3   OH229065   3.891   0.171  10.738  0.5905 -0.6556  0.6157
 2525TIP3    H129066   3.918   0.230  10.809  1.6402 -3.1156  2.4335
 2525TIP3    H229067   3.973   0.137  10.703  0.0403 -0.2907 -1.0935
 2526TIP3   OH229068   1.752   1.714   0.674  0.5926 -0.3845 -1.0042
 2526TIP3    H129069   1.758   1.802   0.636  1.1029 -0.2817 -0.6907
 2526TIP3    H229070   1.842   1.682   0.673  0.5652 -0.4973 -0.1555
 2527TIP3   OH229071   5.083   0.933  12.276  0.1666 -0.1806  0.7804
 2527TIP3    H129072   5.002   0.908  12.232 -0.0059  0.7038  0.5693
 2527TIP3    H229073   5.128   0.989  12.213  0.3619  0.3378  1.3688
 2528TIP3   OH229074   5.118   6.750  16.600  0.2205  0.5556 -0.3243
 2528TIP3    H129075   5.172   6.803  16.541  1.4902  1.4712  1.5760
 2528TIP3    H229076   5.040   6.803  16.616 -0.7227 -0.2244 -2.0748
 2529TIP3   OH229077   6.086   6.271   0.165 -1.0075 -0.2360  0.6846
 2529TIP3    H129078   6.157   6.304   0.220 -1.5957  0.2865  1.1471
 2529TIP3    H229079   6.131   6.223   0.095 -0.2250 -0.3895  1.2723
 2530TIP3   OH229080   1.750   4.126  15.252 -0.6483 -0.6912  0.1817
 2530TIP3    H129081   1.743   4.148  15.159  0.1110 -0.0236  0.2682
 2530TIP3    H229082   1.809   4.051  15.254 -1.5323 -1.4003  0.0483
 2531TIP3   OH229083   5.103   1.959   5.003  0.6272  0.1824 -0.4262
 2531TIP3    H129084   5.128   1.876   4.963 -0.5376 -0.1685 -0.4467
 2531TIP3    H229085   5.024   1.939   5.053 -0.0676  1.4222 -0.9829
 2532TIP3   OH229086   5.558   2.838  13.061 -0.5223 -0.1615  0.6136
 2532TIP3    H129087   5.623   2.785  13.015 -0.9829 -1.0505  0.9689
 2532TIP3    H229088   5.609   2.887  13.126  0.0208  0.4968 -0.2752
 2533TIP3   OH229089   2.392   6.539  12.371 -0.2991  0.5916 -0.3635
 2533TIP3    H129090   2.440   6.603  12.424  0.1074  0.8074 -0.9856
 2533TIP3    H229091   2.325   6.590  12.325 -1.1347  0.2958  0.4812
 2534TIP3   OH229092   0.343   1.975   0.631  0.7304  0.6243 -0.0923
 2534TIP3    H129093   0.366   1.920   0.706  0.0987  0.8763  0.2944
 2534TIP3    H229094   0.267   1.932   0.592 -1.5116  2.5560  1.7947
 2535TIP3   OH229095   1.929   3.441   4.327  0.8113  0.1118 -0.5401
 2535TIP3    H129096   1.930   3.402   4.415 -0.0246  2.8163  0.7834
 2535TIP3    H229097   1.886   3.375   4.273  2.8583 -2.3715  0.6096
 2536TIP3   OH229098   5.899   0.365  11.192 -0.0416  0.2816  0.3020
 2536TIP3    H129099   5.989   0.365  11.162 -0.1966 -1.0135 -0.2030
 2536TIP3    H229100   5.847   0.353  11.113 -0.4830 -2.5168  0.9213
 2537TIP3   OH229101   3.191   0.590  12.507 -0.0894  0.0216 -0.4817
 2537TIP3    H129102   3.262   0.578  12.570  2.3043  1.1831 -2.7760
 2537TIP3    H229103   3.170   0.683  12.512  0.9341  0.3678 -2.1326
 2538TIP3   OH229104   4.509   4.590  14.353 -0.7972  0.4943 -0.0299
 2538TIP3    H129105   4.464   4.516  14.311 -0.7981  0.7172 -0.4245
 2538TIP3    H229106   4.510   4.567  14.446 -2.6865  0.9560  0.1610
 2539TIP3   OH229107   6.734   3.666  14.615  0.4652  0.0825 -0.0790
 2539TIP3    H129108   6.643   3.651  14.588  0.5450  2.7732 -2.4305
 2539TIP3    H229109   6.727   3.713  14.698 -0.2814 -0.1583 -0.0012
 2540TIP3   OH229110   4.955   5.786   6.271 -0.8871  0.0757  0.0066
 2540TIP3    H129111   5.007   5.705   6.275 -0.2809  0.4997  0.9371
 2540TIP3    H229112   4.995   5.835   6.199 -1.0730 -0.3195 -0.3738
 2541TIP3   OH229113   1.656   5.203   4.819  0.3502  0.3750  0.2950
 2541TIP3    H129114   1.584   5.172   4.763  0.0244 -1.5183  1.6734
 2541TIP3    H229115   1.632   5.293   4.840 -1.8403 -0.3070  0.9800
 2542TIP3   OH229116   3.396   3.723  10.901  0.1866 -0.0815  0.6856
 2542TIP3    H129117   3.392   3.819  10.906  2.3101  0.1752 -1.1213
 2542TIP3    H229118   3.354   3.701  10.818  0.1989 -0.6742  0.8310
 2543TIP3   OH229119   5.207   2.765   4.332 -0.1353 -0.8749 -0.3731
 2543TIP3    H129120   5.142   2.808   4.387 -1.1383 -2.4894 -0.2274
 2543TIP3    H229121   5.287   2.765   4.386 -0.3890 -0.1284  0.0173
 2544TIP3   OH229122   1.370   2.939  15.239 -0.6329 -0.2118 -0.0847
 2544TIP3    H129123   1.392   3.030  15.221  0.9581 -0.6448 -0.4710
 2544TIP3    H229124   1.378   2.930  15.334 -1.9604  0.3083  0.1030
 2545TIP3   OH229125   1.717   1.548   3.346 -0.3937  0.0346  0.1486
 2545TIP3    H129126   1.648   1.557   3.281 -0.1969  0.0657 -0.0556
 2545TIP3    H229127   1.747   1.637   3.363 -0.1644 -0.0101 -0.0207
 2546TIP3   OH229128   1.036   4.762   4.508 -0.3883 -0.1210  0.4444
 2546TIP3    H129129   1.120   4.788   4.546 -0.3239  0.7313 -0.2691
 2546TIP3    H229130   1.022   4.672   4.540  0.5630 -0.0984  0.9416
 2547TIP3   OH229131   5.373   6.436  12.683 -0.0479  0.6233 -0.3349
 2547TIP3    H129132   5.372   6.514  12.739  0.6000  1.4384 -1.4060
 2547TIP3    H229133   5.434   6.458  12.613  0.3960 -0.9937 -0.4924
 2548TIP3   OH229134   3.610   1.860   1.096 -0.2188  0.5083 -0.5012
 2548TIP3    H129135   3.676   1.926   1.073 -1.5370  2.5912  1.3337
 2548TIP3    H229136   3.572   1.835   1.012  0.5222  1.8852 -1.2925
 2549TIP3   OH229137   5.288   1.441   5.819 -0.1880 -0.2871 -0.0856
 2549TIP3    H129138   5.235   1.507   5.865 -0.3332  0.6157 -1.5009
 2549TIP3    H229139   5.371   1.484   5.802  0.5004 -1.2101  0.8234
 2550TIP3   OH229140   2.033   0.045  15.958 -0.1323 -0.9356  0.3850
 2550TIP3    H129141   1.947   0.088  15.958 -0.2167 -1.0454 -1.2581
 2550TIP3    H229142   2.023  -0.027  15.895  1.0478 -1.1956  0.4866
 2551TIP3   OH229143   4.151   6.390  16.724 -0.0731  0.1975  0.2349
 2551TIP3    H129144   4.241   6.360  16.708 -0.8853 -2.6492  0.5529
 2551TIP3    H229145   4.104   6.370  16.644 -0.9959 -0.9056  1.0209
 2552TIP3   OH229146   2.424   6.373   3.098  0.6751 -0.9126 -0.2903
 2552TIP3    H129147   2.482   6.341   3.167  1.5431 -1.6909 -1.3396
 2552TIP3    H229148   2.358   6.303   3.088 -1.7067  0.7571  2.1832
 2553TIP3   OH229149   6.744   1.965   1.822 -0.3438  0.3866  0.7241
 2553TIP3    H129150   6.717   1.904   1.890 -1.9353 -1.3818 -1.3246
 2553TIP3    H229151   6.792   1.910   1.759 -0.7373  1.4706 -0.5702
 2554TIP3   OH229152   5.049   6.372  11.393 -0.3175 -0.3135 -0.5867
 2554TIP3    H129153   5.136   6.401  11.364 -0.6747  0.6799 -0.7090
 2554TIP3    H229154   4.991   6.397  11.321 -0.7728 -0.6007 -0.3218
 2555TIP3   OH229155   2.335   0.851   0.375  0.0452 -0.0053  0.2082
 2555TIP3    H129156   2.282   0.925   0.348  0.7010  0.6210  0.6068
 2555TIP3    H229157   2.400   0.888   0.435  1.2520 -0.6676 -0.6511
 2556TIP3   OH229158   4.810   0.453   3.604  0.2026  0.2497 -0.1242
 2556TIP3    H129159   4.794   0.364   3.573  0.2396 -0.3696  1.5249
 2556TIP3    H229160   4.727   0.481   3.643  0.1083  1.0579 -0.8666
 2557TIP3   OH229161   2.884   0.811   1.743 -0.4021 -0.0805  0.5712
 2557TIP3    H129162   2.974   0.787   1.764 -0.1030  1.5808  1.3840
 2557TIP3    H229163   2.836   0.798   1.825 -0.5410  0.6030  0.6040
 2558TIP3   OH229164   5.691   4.298  16.075  0.6807 -0.5180  0.2888
 2558TIP3    H129165   5.658   4.208  16.068  0.7174 -0.4454 -4.3059
 2558TIP3    H229166   5.779   4.293  16.038  0.0135  1.5855 -1.7912
 2559TIP3   OH229167   1.973   0.896   5.205 -0.0024  0.6218 -0.4204
 2559TIP3    H129168   1.962   0.822   5.265  1.2822 -0.4967 -1.5062
 2559TIP3    H229169   1.883   0.921   5.182 -0.4827  0.2839  1.0046
 2560TIP3   OH229170   4.768   2.198   5.829 -0.0330  0.7877  0.0947
 2560TIP3    H129171   4.830   2.139   5.785  1.1720  0.7705  1.6960
 2560TIP3    H229172   4.684   2.181   5.786  0.5116 -1.2567 -0.2946
 2561TIP3   OH229173   0.880   0.477   2.934 -0.1226 -0.2990  0.1005
 2561TIP3    H129174   0.970   0.487   2.904  0.0129 -0.0877  0.5720
 2561TIP3    H229175   0.888   0.456   3.027 -0.4579 -2.8953 -0.3896
 2562TIP3   OH229176   4.195   1.520   0.536  0.0265  0.0377  0.1519
 2562TIP3    H129177   4.246   1.465   0.476 -0.6394 -0.2734 -0.1507
 2562TIP3    H229178   4.110   1.530   0.492 -0.1336  0.6419  0.5857
 2563TIP3   OH229179   5.031   2.814   5.634 -0.1266 -0.1215  0.0788
 2563TIP3    H129180   5.082   2.752   5.687 -0.4996  1.2693  2.1692
 2563TIP3    H229181   4.940   2.788   5.648 -0.2100  0.0472 -0.1566
 2564TIP3   OH229182   0.801   1.681  11.076 -0.0394  0.1024  0.0416
 2564TIP3    H129183   0.847   1.760  11.047  0.7142  0.1567  1.2960
 2564TIP3    H229184   0.741   1.660  11.005  0.6001  1.1265 -0.8224
 2565TIP3   OH229185   1.456   0.372  15.366 -0.2609  0.0303 -0.7066
 2565TIP3    H129186   1.491   0.288  15.396 -0.2133  0.9380  2.0702
 2565TIP3    H229187   1.475   0.374  15.273  0.9005 -2.4764 -0.6021
 2566TIP3   OH229188   5.175   1.992  15.485  0.1476  0.0997  0.4221
 2566TIP3    H129189   5.118   2.024  15.555 -1.3510  0.9094 -1.0982
 2566TIP3    H229190   5.205   2.071  15.440  2.6940 -0.2763  1.2576
 2567TIP3   OH229191   3.765   0.817  16.586 -0.1304 -0.4860 -0.2746
 2567TIP3    H129192   3.845   0.839  16.634 -0.8222  0.0205  0.6708
 2567TIP3    H229193   3.781   0.727  16.555  0.5657 -0.6206  0.4191
 2568TIP3   OH229194   5.337   5.733   5.735  0.3906 -0.0358  0.7124
 2568TIP3    H129195   5.337   5.828   5.728  1.5678 -0.0043  0.8172
 2568TIP3    H229196   5.262   5.705   5.683  1.6611  0.8234 -1.7442
 2569TIP3   OH229197   6.496   1.441  14.279 -0.6408  0.1377  0.2137
 2569TIP3    H129198   6.473   1.350  14.298 -0.7823 -0.4145 -2.3505
 2569TIP3    H229199   6.577   1.456  14.328 -0.5862 -1.3829  0.6232
 2570TIP3   OH229200   1.848   1.889   5.661 -0.5738  0.2119 -0.5756
 2570TIP3    H129201   1.851   1.985   5.651  0.7572  0.2997  0.3182
 2570TIP3    H229202   1.918   1.857   5.605 -0.2351 -0.1337  0.0382
 2571TIP3   OH229203   1.977   6.684  15.745 -0.3620 -0.0020  0.3269
 2571TIP3    H129204   1.886   6.706  15.724 -0.2533  0.8644  0.7229
 2571TIP3    H229205   2.030   6.736  15.685 -0.1193 -1.1765 -0.5176
 2572TIP3   OH229206   5.369   6.137  17.101 -0.0645 -0.9096 -0.6268
 2572TIP3    H129207   5.371   6.227  17.131  2.3333 -1.4905  1.3178
 2572TIP3    H229208   5.333   6.087  17.175  1.5532 -1.8394 -0.4091
 2573TIP3   OH229209   3.938   1.535  17.103  0.1296 -0.1570 -0.2410
 2573TIP3    H129210   3.915   1.556  17.012  2.1406 -1.0208 -0.9887
 2573TIP3    H229211   3.913   1.613  17.152 -0.5369  0.5216 -1.6005
 2574TIP3   OH229212   5.220   2.834   4.612  0.2130  0.5955 -0.3609
 2574TIP3    H129213   5.253   2.840   4.701  0.9986  0.2501 -0.6218
 2574TIP3    H229214   5.268   2.902   4.564  2.5031 -1.5451 -1.3102
 2575TIP3   OH229215   1.689   5.131   0.421 -0.2192 -0.1081 -0.1923
 2575TIP3    H129216   1.611   5.127   0.365  0.8865  0.3033 -1.8194
 2575TIP3    H229217   1.683   5.216   0.465 -2.2435 -1.3212  2.1646
 2576TIP3   OH229218   4.738   6.072   0.070  0.0238  0.2869  0.1418
 2576TIP3    H129219   4.688   5.991   0.058  0.0767  0.2144  0.4011
 2576TIP3    H229220   4.760   6.100  -0.019  0.8064 -0.4882  0.0763
 2577TIP3   OH229221   0.072   3.274   4.362  0.0801  0.8257 -0.2307
 2577TIP3    H129222   0.153   3.283   4.311  0.1624 -1.0480 -0.4833
 2577TIP3    H229223   0.002   3.291   4.299  0.2441  0.8860 -0.3992
 2578TIP3   OH229224   5.806   0.047  14.658  0.4577 -0.0175 -0.1100
 2578TIP3    H129225   5.814   0.053  14.754 -0.2957  1.5666 -0.1057
 2578TIP3    H229226   5.897   0.046  14.627  0.7267 -1.5380  0.6435
 2579TIP3   OH229227   3.160   5.316  12.962  0.1635  0.1851 -0.8336
 2579TIP3    H129228   3.188   5.373  12.891 -1.5590  0.9958 -0.9048
 2579TIP3    H229229   3.140   5.232  12.919  0.9801  0.0604 -0.9911
 2580TIP3   OH229230   2.930   4.850   3.597  0.1016  0.3390  0.1554
 2580TIP3    H129231   3.003   4.827   3.540 -1.1512  0.0980 -1.4311
 2580TIP3    H229232   2.931   4.946   3.600 -0.6582  0.4283 -1.4902
 2581TIP3   OH229233   6.396   4.429   5.389 -0.5028  0.7605  0.1535
 2581TIP3    H129234   6.306   4.437   5.422 -0.0983  0.9812  1.2422
 2581TIP3    H229235   6.450   4.469   5.457  0.6060 -1.1505  0.4693
 2582TIP3   OH229236   0.403   1.158  14.660  0.8416  0.4073  0.1326
 2582TIP3    H129237   0.387   1.137  14.752  1.1534  1.0299  0.3375
 2582TIP3    H229238   0.445   1.080  14.624 -0.4974 -0.3537  0.1732
 2583TIP3   OH229239   0.582   6.581   3.368 -0.5846 -0.3381 -0.3733
 2583TIP3    H129240   0.571   6.516   3.299  0.0836 -1.0185  0.1411
 2583TIP3    H229241   0.551   6.537   3.447 -2.4484  0.8334 -0.3994
 2584TIP3   OH229242   3.393   4.420  16.964 -0.3234 -0.1539  0.0803
 2584TIP3    H129243   3.363   4.333  16.992 -2.2667  0.5772  0.3789
 2584TIP3    H229244   3.404   4.411  16.869  0.9835 -1.1203  0.2930
 2585TIP3   OH229245   4.126   2.489   4.459  0.1204  0.7802 -0.6701
 2585TIP3    H129246   4.068   2.501   4.385 -1.9934 -1.9042  0.3986
 2585TIP3    H229247   4.188   2.422   4.431 -1.8339 -1.6500  0.4175
 2586TIP3   OH229248   2.929   0.846  13.728  0.1701 -0.0110  0.3259
 2586TIP3    H129249   2.977   0.922  13.695 -1.4816  1.7085  1.6740
 2586TIP3    H229250   2.945   0.777  13.662  1.1577  1.6905 -1.3108
 2587TIP3   OH229251   0.566   5.724  14.636  0.0643 -0.0637  0.2404
 2587TIP3    H129252   0.647   5.695  14.677  0.2272  1.2181  0.8784
 2587TIP3    H229253   0.517   5.765  14.707  0.5226  2.5788 -0.8574
 2588TIP3   OH229254   0.536   4.643   5.020 -0.0229 -0.0849 -0.0904
 2588TIP3    H129255   0.566   4.732   5.040 -1.5491  0.7669 -1.3013
 2588TIP3    H229256   0.559   4.631   4.928 -1.3455 -0.2455 -0.4238
 2589TIP3   OH229257   4.743   5.808   2.503  0.7217 -0.1389 -0.3592
 2589TIP3    H129258   4.685   5.882   2.523 -0.2016 -1.0816  0.5798
 2589TIP3    H229259   4.805   5.843   2.439 -0.5792  1.0580 -1.0294
 2590TIP3   OH229260   5.908   2.927   6.160  0.1245 -0.2637 -0.4138
 2590TIP3    H129261   5.919   3.021   6.144  1.5528 -0.0835  1.2882
 2590TIP3    H229262   5.934   2.915   6.251 -2.5755 -1.9556  0.2305
 2591TIP3   OH229263   4.730   2.626  15.950  0.2645 -0.4976  0.2763
 2591TIP3    H129264   4.757   2.589  15.866 -0.6802 -1.4141  0.3496
 2591TIP3    H229265   4.748   2.557  16.013  0.9306  0.1719  0.8338
 2592TIP3   OH229266   3.155   2.625   4.861  0.0817  0.1457 -0.3886
 2592TIP3    H129267   3.233   2.678   4.878 -0.5297  0.7114  0.7833
 2592TIP3    H229268   3.145   2.627   4.766  0.1067  2.1208 -0.3934
 2593TIP3   OH229269   5.657   0.264  16.795  0.1178  0.2965  0.4060
 2593TIP3    H129270   5.563   0.267  16.779 -0.1683  0.0381  1.9268
 2593TIP3    H229271   5.692   0.211  16.723 -0.6567  1.7231 -1.0866
 2594TIP3   OH229272   0.848   0.744   5.690  0.2986 -0.2754  0.0417
 2594TIP3    H129273   0.804   0.784   5.765  0.3316  1.0843 -0.6322
 2594TIP3    H229274   0.777   0.717   5.632  0.2810  1.6223 -0.8959
 2595TIP3   OH229275   4.224   6.068  15.915 -0.2656 -0.2455 -0.9727
 2595TIP3    H129276   4.280   6.101  15.844 -0.1281  1.7725  0.0039
 2595TIP3    H229277   4.137   6.101  15.894  0.3178  3.4500  1.3962
 2596TIP3   OH229278   0.474   6.573  13.658 -0.3076 -0.1803 -0.1718
 2596TIP3    H129279   0.469   6.513  13.584 -0.3079  1.2191 -1.3321
 2596TIP3    H229280   0.403   6.635  13.645 -2.1570 -1.5128  2.5408
 2597TIP3   OH229281   3.670   3.718  11.261  0.2385  0.0180 -0.5463
 2597TIP3    H129282   3.658   3.636  11.213 -0.5306 -0.4465  0.4023
 2597TIP3    H229283   3.616   3.708  11.339  0.5200  1.2409 -0.1751
 2598TIP3   OH229284   2.775   0.515  13.175 -0.4360 -0.5728  0.6648
 2598TIP3    H129285   2.762   0.545  13.265  0.8984 -3.8842  2.1291
 2598TIP3    H229286   2.719   0.438  13.167 -1.0754  0.0663 -1.6419
 2599TIP3   OH229287   5.209   6.424   0.246  0.0820 -0.3379  0.2305
 2599TIP3    H129288   5.174   6.511   0.227  1.2858  0.0983 -0.0656
 2599TIP3    H229289   5.132   6.371   0.263 -0.7137  0.6251 -0.2488
 2600TIP3   OH229290   2.225   2.998   0.450  0.1923  0.1517  0.2021
 2600TIP3    H129291   2.195   3.037   0.368 -1.3073  0.1104  0.7012
 2600TIP3    H229292   2.151   3.007   0.510 -0.2005 -3.3096  0.4021
 2601TIP3   OH229293   4.506   2.254   0.424 -0.3686  0.1532 -0.4006
 2601TIP3    H129294   4.460   2.288   0.347  0.3187 -0.4149 -1.0749
 2601TIP3    H229295   4.563   2.186   0.390 -2.0564 -2.0990  0.9800
 2602TIP3   OH229296   2.761   1.897  12.455 -0.3559 -0.3404 -0.0988
 2602TIP3    H129297   2.764   1.849  12.372  3.8287  1.8218 -1.5245
 2602TIP3    H229298   2.679   1.945  12.453 -2.4627 -3.6470 -0.7544
 2603TIP3   OH229299   4.802   6.665  12.214  0.0904 -0.7657 -0.5306
 2603TIP3    H129300   4.742   6.679  12.141 -0.3366  1.1191  0.1181
 2603TIP3    H229301   4.879   6.624  12.175 -0.0273  0.4175 -2.0806
 2604TIP3   OH229302   0.815   0.452  15.747 -0.0496 -0.2320  0.5068
 2604TIP3    H129303   0.904   0.421  15.762  0.2898  0.3618 -0.2007
 2604TIP3    H229304   0.823   0.547  15.741 -0.3051 -0.2882 -2.0465
 2605TIP3   OH229305   4.412   5.395   4.599 -0.2369 -0.2954  0.0904
 2605TIP3    H129306   4.472   5.470   4.598 -0.2863 -0.2572 -0.1980
 2605TIP3    H229307   4.400   5.375   4.692  0.7583 -0.7425  0.1322
 2606TIP3   OH229308   6.434   1.407   4.195  0.2186  0.5294  0.3586
 2606TIP3    H129309   6.342   1.399   4.222  0.4166  0.9306  1.2066
 2606TIP3    H229310   6.480   1.433   4.275  0.9883  0.8823 -0.1870
 2607TIP3   OH229311   1.344   6.185  10.451 -0.4931  0.0281  0.2545
 2607TIP3    H129312   1.311   6.265  10.491 -0.3863 -0.2932  1.0097
 2607TIP3    H229313   1.271   6.151  10.399 -0.4497  0.7539 -0.2911
 2608TIP3   OH229314   1.052   3.671  14.395  0.6326 -0.4763  0.3698
 2608TIP3    H129315   1.077   3.762  14.413  2.2215 -0.9895  0.9197
 2608TIP3    H229316   1.045   3.630  14.481  3.1653 -1.6559  0.1097
 2609TIP3   OH229317   4.412   6.220  16.524 -0.4381  0.2011 -0.5450
 2609TIP3    H129318   4.439   6.227  16.615 -0.0592  0.3187 -0.6665
 2609TIP3    H229319   4.493   6.202  16.476 -0.5986  0.3968 -0.8907
 2610TIP3   OH229320   1.310   2.932  12.123 -0.1508  0.2478 -0.4694
 2610TIP3    H129321   1.339   2.938  12.214  1.9908  0.4658 -1.1144
 2610TIP3    H229322   1.236   2.872  12.125  0.3476 -0.3611  1.3200
 2611TIP3   OH229323   0.548   3.642  11.820  0.1309  0.0826 -0.0815
 2611TIP3    H129324   0.595   3.585  11.759  0.5084 -0.5243  0.7582
 2611TIP3    H229325   0.456   3.631  11.797  0.2340 -0.5300 -0.2062
 2612TIP3   OH229326   5.815   6.452  12.445 -0.6034 -0.6871  0.5892
 2612TIP3    H129327   5.839   6.366  12.480 -1.1547 -1.4565 -0.8252
 2612TIP3    H229328   5.818   6.510  12.520  0.9790 -1.6956  1.3539
 2613TIP3   OH229329   0.008   1.620  10.869 -0.2160 -0.1938  0.3885
 2613TIP3    H129330  -0.023   1.550  10.926  0.3266 -1.3309 -0.6603
 2613TIP3    H229331  -0.040   1.607  10.787 -1.5511  1.8741  0.7629
 2614TIP3   OH229332   6.782   6.653   1.866  0.2505  0.1498 -0.2569
 2614TIP3    H129333   6.825   6.625   1.785 -0.0812 -0.3898 -0.2506
 2614TIP3    H229334   6.834   6.614   1.936 -0.8442 -1.4144 -0.2709
 2615TIP3   OH229335   5.107   6.630   0.090  0.2932  0.4307  0.0208
 2615TIP3    H129336   5.044   6.687   0.045 -0.0217 -0.6977 -1.0211
 2615TIP3    H229337   5.188   6.640   0.039 -0.3753 -1.7340 -1.5954
 2616TIP3   OH229338   5.238   6.060   6.344  0.1549 -0.3729 -0.1861
 2616TIP3    H129339   5.265   6.147   6.371  1.2145 -0.6344 -0.3643
 2616TIP3    H229340   5.242   6.007   6.424 -0.5399 -0.2575 -0.0661
 2617TIP3   OH229341   0.677   0.692  12.909 -0.0256  0.0232 -0.1069
 2617TIP3    H129342   0.651   0.781  12.888 -1.6248 -0.6081 -0.9630
 2617TIP3    H229343   0.614   0.637  12.862  1.4443 -1.5705 -0.3097
 2618TIP3   OH229344   4.270   4.416  13.899  0.4047  0.1119  0.4243
 2618TIP3    H129345   4.180   4.445  13.895  0.7174  0.9439 -1.6991
 2618TIP3    H229346   4.268   4.326  13.865  0.6468  0.9354 -1.8708
 2619TIP3   OH229347   4.397   2.672   1.077 -0.2554  0.1035 -0.4388
 2619TIP3    H129348   4.404   2.732   1.152  1.2718  0.1189 -0.5536
 2619TIP3    H229349   4.488   2.656   1.051 -0.7454  0.9741 -2.9895
 2620TIP3   OH229350   5.155   3.272  11.989 -0.2310  0.1501  0.8035
 2620TIP3    H129351   5.238   3.253  12.034  0.9714  1.1562 -0.8496
 2620TIP3    H229352   5.161   3.366  11.969 -2.2410  0.4674  1.4918
 2621TIP3   OH229353   5.332   6.120   1.090  0.2640 -0.0840 -0.1052
 2621TIP3    H129354   5.275   6.149   1.019 -1.1432  1.5673  1.5903
 2621TIP3    H229355   5.308   6.028   1.104  0.8344 -0.5484 -1.9380
 2622TIP3   OH229356   4.072   5.786   2.740 -0.2072  0.1252 -0.3698
 2622TIP3    H129357   3.993   5.803   2.791 -0.3228  0.7121 -0.7320
 2622TIP3    H229358   4.089   5.868   2.695 -1.1676 -0.8858 -2.7290
 2623TIP3   OH229359   5.491   0.809   5.791  0.5494  0.0747  0.1428
 2623TIP3    H129360   5.584   0.810   5.815  0.8871 -3.0573 -0.6222
 2623TIP3    H229361   5.453   0.744   5.849 -0.1470 -2.1161 -2.6105
 2624TIP3   OH229362   1.019   6.573  13.467  0.2750  0.2017 -0.4032
 2624TIP3    H129363   0.973   6.655  13.448 -0.6398 -0.7344 -2.6405
 2624TIP3    H229364   0.951   6.506  13.462  1.4135 -0.9476 -1.1367
 2625TIP3   OH229365   0.241   0.294  13.473  0.9366  0.2264 -0.3121
 2625TIP3    H129366   0.270   0.296  13.564  0.5403  2.5617 -0.1620
 2625TIP3    H229367   0.312   0.336  13.424 -0.4136  2.4712 -0.4836
 2626TIP3   OH229368   6.244   1.311  15.070  0.1749 -0.2058  0.1258
 2626TIP3    H129369   6.288   1.345  15.148 -0.6145 -1.0634  0.9571
 2626TIP3    H229370   6.255   1.216  15.075  0.7009 -0.2347 -1.1724
 2627TIP3   OH229371   2.621   4.884  14.898 -0.0928  0.2646 -0.0661
 2627TIP3    H129372   2.627   4.961  14.842  1.6625  0.3534  0.1756
 2627TIP3    H229373   2.709   4.845  14.893 -0.8834 -1.6271 -0.0575
 2628TIP3   OH229374   3.724   5.618   5.329  0.0317 -0.4227 -1.3820
 2628TIP3    H129375   3.737   5.685   5.397 -2.9568 -1.5028  0.4299
 2628TIP3    H229376   3.699   5.668   5.251  2.1098  0.7532 -1.3812
 2629TIP3   OH229377   0.483   3.524  14.710 -0.0980  0.3862 -0.4206
 2629TIP3    H129378   0.486   3.487  14.798  1.3014  0.5289 -0.3827
 2629TIP3    H229379   0.399   3.570  14.706 -0.4080 -0.0528  0.6441
 2630TIP3   OH229380   3.747   1.124   5.634 -0.1655 -0.2711 -0.2444
 2630TIP3    H129381   3.701   1.137   5.717 -0.2496  0.4430 -0.3956
 2630TIP3    H229382   3.787   1.038   5.642  0.6084  0.1793  0.9201
 2631TIP3   OH229383   1.118   3.695  12.367 -0.0831 -0.4956  0.1143
 2631TIP3    H129384   1.117   3.712  12.461  3.4822 -2.1184  0.6085
 2631TIP3    H229385   1.050   3.629  12.354  1.4044 -2.6109  2.2226
 2632TIP3   OH229386   4.378   6.623   0.337 -0.1920  0.1264 -0.0598
 2632TIP3    H129387   4.387   6.661   0.250  0.9399  0.4891  0.2022
 2632TIP3    H229388   4.377   6.698   0.397 -0.0874 -0.1546  0.3030
 2633TIP3   OH229389   6.083   4.676  13.866 -0.6534 -0.4557  0.3321
 2633TIP3    H129390   6.067   4.585  13.841 -0.1667 -1.2291  2.6348
 2633TIP3    H229391   6.174   4.677  13.895 -0.3416  1.0275 -0.5942
 2634TIP3   OH229392   1.787   6.785  12.463  0.4384  0.2211 -0.1798
 2634TIP3    H129393   1.755   6.714  12.518  0.8461  1.1210  1.2844
 2634TIP3    H229394   1.863   6.819  12.509 -0.6024  2.5441 -0.0350
 2635TIP3   OH229395   5.562   1.102   4.263 -0.1677  0.4327 -0.0243
 2635TIP3    H129396   5.517   1.186   4.250 -3.2034 -1.5370 -5.8107
 2635TIP3    H229397   5.515   1.061   4.335 -1.9749  1.8555 -0.3154
 2636TIP3   OH229398   6.702   5.859  16.679  0.6111  0.1511 -0.2595
 2636TIP3    H129399   6.789   5.889  16.705  0.3255  0.6774  0.1160
 2636TIP3    H229400   6.702   5.765  16.695  1.0270  0.1929 -0.0283
 2637TIP3   OH229401   1.479   4.154  13.844  0.0472  0.2811  0.1490
 2637TIP3    H129402   1.487   4.179  13.936 -0.2544  0.8162  0.0343
 2637TIP3    H229403   1.388   4.176  13.821 -0.7717 -2.4306  0.4857
 2638TIP3   OH229404   5.527   4.659   5.658  0.1702  0.1494  0.3204
 2638TIP3    H129405   5.460   4.643   5.724  1.6782 -2.5729  1.3256
 2638TIP3    H229406   5.577   4.733   5.693  0.1696 -0.4392  1.6132
 2639TIP3   OH229407   1.829   5.981   3.020  0.1740 -0.1174  0.9985
 2639TIP3    H129408   1.767   6.041   3.061  1.0922  0.0293  2.2478
 2639TIP3    H229409   1.864   5.929   3.092 -1.8831 -3.4968 -0.2455
 2640TIP3   OH229410   3.983   1.063   3.112 -0.3237 -1.0341  0.0399
 2640TIP3    H129411   4.060   1.111   3.144 -2.4764  2.2719  0.6895
 2640TIP3    H229412   3.959   1.005   3.184  0.0386 -0.1489  0.8937
 2641TIP3   OH229413   5.634   5.804  10.154  0.3864  0.3946  0.7030
 2641TIP3    H129414   5.645   5.878  10.213  1.2301  1.3853 -0.6352
 2641TIP3    H229415   5.694   5.737  10.187 -1.7011 -0.4625  3.0050
 2642TIP3   OH229416   1.537   0.362   5.582 -0.4863  0.8519 -0.3379
 2642TIP3    H129417   1.548   0.387   5.674 -1.5018  0.3690 -0.0761
 2642TIP3    H229418   1.554   0.443   5.533  2.1784  0.6678  0.1000
 2643TIP3   OH229419   3.606   0.627   6.767  0.2708 -0.4697  0.1484
 2643TIP3    H129420   3.543   0.663   6.706 -0.5381 -1.1019  0.5934
 2643TIP3    H229421   3.670   0.697   6.780 -0.4639  0.2621 -0.1224
 2644TIP3   OH229422   1.413   2.792   4.514  0.0794 -0.0396 -0.2690
 2644TIP3    H129423   1.370   2.733   4.576  0.4957 -1.6587 -1.4813
 2644TIP3    H229424   1.344   2.852   4.487 -0.4062 -0.0713  0.8208
 2645TIP3   OH229425   6.614   1.748   5.027 -0.1464  0.0131  0.4335
 2645TIP3    H129426   6.600   1.837   5.059 -0.4930  0.1864 -0.2072
 2645TIP3    H229427   6.701   1.724   5.062 -0.6781  0.0428  1.8410
 2646TIP3   OH229428   5.296   2.372   1.297 -0.2254  0.8074 -0.0668
 2646TIP3    H129429   5.225   2.385   1.234 -0.7211  0.4884  0.4203
 2646TIP3    H229430   5.361   2.439   1.274 -0.3308  0.6041 -1.0048
 2647TIP3   OH229431   2.437   1.908   0.235  0.0668 -0.4132 -0.2530
 2647TIP3    H129432   2.448   1.834   0.294  1.4615  0.0945  0.1781
 2647TIP3    H229433   2.508   1.968   0.259 -1.3974  1.3563 -0.1504
 2648TIP3   OH229434   4.392   5.738   4.953  0.1774  0.0298  0.0237
 2648TIP3    H129435   4.393   5.781   4.867  1.2707 -1.2091 -0.6226
 2648TIP3    H229436   4.327   5.669   4.944 -0.3312  0.4457  0.4851
 2649TIP3   OH229437   3.091   5.197   2.619  0.4931  0.0568  0.4201
 2649TIP3    H129438   3.144   5.266   2.658  1.1903 -0.4412  0.3782
 2649TIP3    H229439   3.144   5.165   2.546  1.5404 -2.4981  2.1802
 2650TIP3   OH229440   2.703   6.589  15.589 -0.5077  0.0100 -0.2035
 2650TIP3    H129441   2.724   6.644  15.513 -0.9137  0.8340  0.2695
 2650TIP3    H229442   2.622   6.545  15.565  0.3009 -1.1418 -0.9637
 2651TIP3   OH229443   3.243   6.689   0.405  0.3901 -0.1147  0.1200
 2651TIP3    H129444   3.195   6.656   0.480 -1.6575  1.9235 -0.1827
 2651TIP3    H229445   3.213   6.635   0.332  0.1259 -0.1979  0.2876
 2652TIP3   OH229446   5.777   4.045  13.894 -0.2254  0.1216 -0.4378
 2652TIP3    H129447   5.713   4.027  13.826 -0.1852  0.9034 -0.6957
 2652TIP3    H229448   5.839   4.105  13.853 -0.6211  1.2230  0.4996
 2653TIP3   OH229449   0.628   0.263  13.223 -0.7529  0.2490  0.3906
 2653TIP3    H129450   0.665   0.211  13.151 -0.1633 -0.3034  1.0787
 2653TIP3    H229451   0.689   0.336  13.234 -0.7688  0.2589  0.4133
 2654TIP3   OH229452   3.393   0.530  12.722 -0.1496  0.4929  0.2564
 2654TIP3    H129453   3.443   0.596  12.770 -2.4768  3.3457 -0.8990
 2654TIP3    H229454   3.342   0.485  12.790  0.9032  0.3863  0.9955
 2655TIP3   OH229455   2.595   6.534   0.861  0.0926  0.1356 -0.6277
 2655TIP3    H129456   2.558   6.567   0.779  0.7199 -0.8773 -1.3441
 2655TIP3    H229457   2.567   6.442   0.864  0.8796 -0.0939 -0.1936
 2656TIP3   OH229458   4.195   5.482   6.309 -0.3723 -0.3949  0.2021
 2656TIP3    H129459   4.187   5.392   6.275  1.6099 -0.5677  0.0760
 2656TIP3    H229460   4.289   5.493   6.325 -0.6583  1.4620  0.8032
 2657TIP3   OH229461   2.660   0.336   3.412 -0.1923  0.1485  0.2263
 2657TIP3    H129462   2.659   0.259   3.470  1.9888 -1.7093 -1.9712
 2657TIP3    H229463   2.603   0.311   3.339 -1.2563  1.6089  0.5107
 2658TIP3   OH229464   1.799   1.627   5.169  0.0496  0.3682 -0.0513
 2658TIP3    H129465   1.722   1.637   5.225 -0.5111 -2.0265 -0.2712
 2658TIP3    H229466   1.870   1.666   5.220 -0.8455  0.2352  1.3715
 2659TIP3   OH229467   3.427   6.283  14.983 -0.3616  0.4132 -0.6474
 2659TIP3    H129468   3.465   6.201  15.015  0.2264  0.2367 -1.7595
 2659TIP3    H229469   3.332   6.268  14.983 -0.2044 -0.7193 -2.0013
 2660TIP3   OH229470   2.917   0.166   1.092 -0.2119 -0.2342 -0.4343
 2660TIP3    H129471   2.915   0.160   0.996  0.5193  0.6887 -0.5204
 2660TIP3    H229472   2.992   0.222   1.111 -1.4975  1.2081  0.5887
 2661TIP3   OH229473   4.594   1.226  14.884 -0.2846 -0.5376 -0.9896
 2661TIP3    H129474   4.579   1.237  14.791 -2.1271  0.3965 -0.6420
 2661TIP3    H229475   4.532   1.158  14.911  0.0539 -0.6264 -0.4028
 2662TIP3   OH229476   5.212   1.017   0.750 -0.3064 -0.4250  0.3722
 2662TIP3    H129477   5.118   1.021   0.769 -0.2606  1.2047  0.3737
 2662TIP3    H229478   5.251   1.079   0.811  0.5370  0.3838 -0.9449
 2663TIP3   OH229479   2.031   2.553   6.238 -0.2603 -0.1155 -0.4863
 2663TIP3    H129480   2.035   2.463   6.271  0.6896 -1.4302 -3.7855
 2663TIP3    H229481   1.948   2.557   6.190  0.7659 -0.0709 -2.3349
 2664TIP3   OH229482   5.561   0.744   4.464  0.1040 -0.2894 -0.2215
 2664TIP3    H129483   5.531   0.689   4.392 -0.3562 -0.8327  0.3738
 2664TIP3    H229484   5.638   0.789   4.429  0.3026 -1.0745 -0.8243
 2665TIP3   OH229485   1.492   2.818   2.120  0.3378 -0.1776 -0.3871
 2665TIP3    H129486   1.433   2.788   2.051 -1.4272  0.0129  0.9997
 2665TIP3    H229487   1.492   2.747   2.185 -0.8710  1.1243  1.0986
 2666TIP3   OH229488   1.798   0.199  17.210  0.0988 -0.5496 -0.1578
 2666TIP3    H129489   1.822   0.110  17.187 -0.4356 -0.7802  0.1385
 2666TIP3    H229490   1.711   0.191  17.251  1.1648 -0.2634  2.3712
 2667TIP3   OH229491   0.246   4.774  12.752 -0.0052 -0.2537 -0.1379
 2667TIP3    H129492   0.198   4.841  12.704 -0.2913 -0.7464 -0.5532
 2667TIP3    H229493   0.273   4.817  12.833 -1.8278 -0.1636  0.4702
 2668TIP3   OH229494   3.676   2.986  15.374 -0.0806 -0.3440  0.0918
 2668TIP3    H129495   3.628   3.015  15.452 -2.3677 -2.5055 -0.3911
 2668TIP3    H229496   3.686   3.066  15.321 -0.8432  0.6667  1.4085
 2669TIP3   OH229497   2.557   3.378  16.002  0.3642  0.2273  0.6056
 2669TIP3    H129498   2.634   3.432  15.984  1.4322 -1.5161 -0.3600
 2669TIP3    H229499   2.526   3.351  15.916  1.3700 -2.6370  1.0442
 2670TIP3   OH229500   6.567   4.683   2.614 -0.5430 -0.0556 -0.0675
 2670TIP3    H129501   6.494   4.652   2.667 -1.1712  0.3970 -0.6432
 2670TIP3    H229502   6.612   4.747   2.670  0.6430 -1.7808  1.0462
 2671TIP3   OH229503   1.036   5.054   1.486  0.1853  0.5981  0.7741
 2671TIP3    H129504   1.123   5.029   1.517 -0.4143 -0.3584  1.7576
 2671TIP3    H229505   1.000   4.974   1.448 -1.2716  0.2062  2.8070
 2672TIP3   OH229506   2.700   4.854  17.229  0.1060 -0.0340  0.1502
 2672TIP3    H129507   2.683   4.883  17.140 -0.9515 -0.9855  0.0227
 2672TIP3    H229508   2.696   4.934  17.281  0.7285  0.5264 -0.6445
 2673TIP3   OH229509   4.899   2.368   4.914 -0.0259 -0.3289 -0.8234
 2673TIP3    H129510   4.978   2.324   4.945  0.2941  0.4464 -0.5173
 2673TIP3    H229511   4.861   2.409   4.992  0.0535  0.4923 -1.1980
 2674TIP3   OH229512   2.729   0.384  17.083  0.4654 -0.0864 -0.0197
 2674TIP3    H129513   2.813   0.350  17.052 -0.4797 -1.6772 -0.9896
 2674TIP3    H229514   2.687   0.420  17.004  0.0445  0.2785  0.3669
 2675TIP3   OH229515   2.931   0.135   1.609 -0.1844  0.3564  0.3443
 2675TIP3    H129516   3.001   0.167   1.552 -0.3202 -1.0335 -0.6398
 2675TIP3    H229517   2.873   0.086   1.551 -1.4238  0.5907  1.3379
 2676TIP3   OH229518   2.250   3.882  15.822  0.0447 -0.5041  0.3900
 2676TIP3    H129519   2.342   3.905  15.814 -0.4277  1.7859  0.9707
 2676TIP3    H229520   2.203   3.955  15.784 -1.5674 -1.7027 -0.0417
 2677TIP3   OH229521   6.692   2.928  10.961 -0.2344 -0.3687  0.3218
 2677TIP3    H129522   6.755   2.861  10.987 -1.5540 -1.9061 -0.2668
 2677TIP3    H229523   6.642   2.946  11.041  0.1415 -0.0503  0.4881
 2678TIP3   OH229524   4.897   2.076   0.080  0.1307 -0.0247  0.1816
 2678TIP3    H129525   4.846   1.997   0.095 -1.4375  1.0393  0.6758
 2678TIP3    H229526   4.988   2.045   0.078 -0.3218 -1.6527  1.7693
 2679TIP3   OH229527   6.149   2.121  11.853 -0.0779  0.1891 -0.0755
 2679TIP3    H129528   6.095   2.067  11.794  1.2824  0.6244 -1.8122
 2679TIP3    H229529   6.234   2.125  11.810  0.6371  1.5324  1.3712
 2680TIP3   OH229530   6.743   2.444   1.286  0.5655 -0.1729 -0.0729
 2680TIP3    H129531   6.686   2.368   1.287 -0.4878  0.5307 -1.9481
 2680TIP3    H229532   6.692   2.514   1.325  0.6198  0.1415 -0.5514
 2681TIP3   OH229533   6.787   1.918  15.150 -0.6691 -0.6400  0.5942
 2681TIP3    H129534   6.731   1.992  15.128  0.6691  0.2017 -0.0829
 2681TIP3    H229535   6.844   1.907  15.074  0.2617 -1.3033  1.3610
 2682TIP3   OH229536   2.010   0.138   1.139 -0.3990 -0.2333  0.0928
 2682TIP3    H129537   2.006   0.184   1.056  0.4406 -0.3594 -0.0252
 2682TIP3    H229538   2.046   0.202   1.200 -2.1314  0.2583  0.6634
 2683TIP3   OH229539   5.259   2.629  12.979 -0.4185 -0.0901  0.0103
 2683TIP3    H129540   5.203   2.697  12.941  1.4855  1.5359 -0.0124
 2683TIP3    H229541   5.333   2.622  12.920 -1.0178 -3.0228 -0.5684
 2684TIP3   OH229542   0.732   6.105   2.213  0.0864 -0.7253 -0.3085
 2684TIP3    H129543   0.707   6.097   2.305  0.1951  0.2253 -0.1903
 2684TIP3    H229544   0.661   6.155   2.173  0.4264 -0.4464 -0.5705
 2685TIP3   OH229545   6.088   6.224  13.477  0.2747  0.2339 -0.4040
 2685TIP3    H129546   6.108   6.132  13.457 -0.7859  0.0924 -0.8659
 2685TIP3    H229547   6.065   6.223  13.570  1.0809  0.1857 -0.1943
 2686TIP3   OH229548   0.005   2.081  13.969  0.2775  0.6194  0.3845
 2686TIP3    H129549   0.079   2.130  13.934 -0.3844  1.3851  0.0523
 2686TIP3    H229550   0.030   1.989  13.957  1.0950  0.8672  0.1188
 2687TIP3   OH229551   1.522   2.075  16.933  0.2936  0.3274  0.4103
 2687TIP3    H129552   1.571   2.157  16.931  4.5069 -1.8394  1.0466
 2687TIP3    H229553   1.537   2.036  16.847 -0.3298 -0.4217  0.6238
 2688TIP3   OH229554   5.249   5.983  16.825  0.0376 -0.1375  0.0650
 2688TIP3    H129555   5.323   5.923  16.817  0.4484  0.4971 -1.1771
 2688TIP3    H229556   5.289   6.068  16.846 -0.4912 -0.1484  1.2149
 2689TIP3   OH229557   6.466   0.731  15.565 -0.3110 -0.5848  0.1045
 2689TIP3    H129558   6.461   0.636  15.567  0.5931 -0.6304  0.4328
 2689TIP3    H229559   6.395   0.760  15.623 -1.6240 -1.0018 -1.2415
 2690TIP3   OH229560   5.212   5.136  15.070  0.2420  0.1694 -0.3256
 2690TIP3    H129561   5.222   5.146  15.165  0.4431 -0.1950 -0.3065
 2690TIP3    H229562   5.120   5.113  15.058  0.1838  0.3482 -0.2328
 2691TIP3   OH229563   4.319   1.239   1.421  0.3838  0.0622  0.6410
 2691TIP3    H129564   4.379   1.184   1.371  3.1264  1.4476  2.1953
 2691TIP3    H229565   4.248   1.180   1.447 -0.4278 -1.0558 -3.4156
 2692TIP3   OH229566   0.572   1.657   1.045 -0.2669  0.0487  0.4308
 2692TIP3    H129567   0.567   1.684   1.137 -2.2728 -0.9894  0.6798
 2692TIP3    H229568   0.611   1.570   1.048 -0.8836 -0.2347  0.3710
 2693TIP3   OH229569   6.202   6.469   1.082 -0.2341 -0.2125 -0.4783
 2693TIP3    H129570   6.290   6.470   1.045 -0.1604 -0.7622 -0.3281
 2693TIP3    H229571   6.213   6.506   1.170 -0.2144  0.0453 -0.5895
 2694TIP3   OH229572   1.866   1.101   0.856 -0.7523 -0.1049  0.4003
 2694TIP3    H129573   1.773   1.090   0.875 -1.0551 -0.7824 -1.2443
 2694TIP3    H229574   1.892   1.017   0.817 -0.3246  1.1296 -2.2331
 2695TIP3   OH229575   6.072   3.992  11.682  0.2900 -0.0934 -0.0763
 2695TIP3    H129576   5.983   3.983  11.648  0.5442 -2.0464 -0.3624
 2695TIP3    H229577   6.087   3.911  11.732  0.8324  1.5702  2.6461
 2696TIP3   OH229578   0.581   5.179  17.008 -0.2114 -0.0576  0.3491
 2696TIP3    H129579   0.641   5.188  16.934 -0.3284 -3.7707 -0.3832
 2696TIP3    H229580   0.496   5.160  16.968 -0.7753  0.1274  1.4309
 2697TIP3   OH229581   1.224   5.649   4.873  0.1353  0.0831  0.1999
 2697TIP3    H129582   1.164   5.692   4.935  1.4339  0.5450  1.1899
 2697TIP3    H229583   1.167   5.598   4.816 -1.5177  2.9678 -0.9846
 2698TIP3   OH229584   3.273   0.371   0.628 -0.4623 -0.3961  0.2176
 2698TIP3    H129585   3.305   0.461   0.622  0.7295 -0.8201  0.0038
 2698TIP3    H229586   3.350   0.319   0.652 -1.3230 -1.2432  1.2255
 2699TIP3   OH229587   3.673   2.997   0.415 -0.0087  0.1757  0.1750
 2699TIP3    H129588   3.666   3.057   0.340  1.0842 -1.5585 -1.3902
 2699TIP3    H229589   3.761   2.960   0.408 -0.3107 -0.9036  1.6492
 2700TIP3   OH229590   3.490   6.665   2.956 -0.2293  0.0207 -0.5823
 2700TIP3    H129591   3.504   6.572   2.977  0.8238  0.4406  0.7050
 2700TIP3    H229592   3.465   6.705   3.040 -2.8166  0.5595 -1.5140
 2701TIP3   OH229593   4.150   6.668  14.777 -0.1840 -0.5182 -0.1382
 2701TIP3    H129594   4.208   6.595  14.754  0.0827 -0.2949 -0.1903
 2701TIP3    H229595   4.194   6.745  14.742  0.6790 -0.0469  1.8036
 2702TIP3   OH229596   4.628   4.690   5.492 -0.3288  0.0505  0.5220
 2702TIP3    H129597   4.558   4.696   5.557 -0.0488  1.0505  0.7449
 2702TIP3    H229598   4.594   4.630   5.426 -1.9768  1.5124 -0.0559
 2703TIP3   OH229599   0.425   0.188  15.764  0.0981 -0.4334 -0.2705
 2703TIP3    H129600   0.514   0.222  15.775 -0.0099 -0.1469 -0.2546
 2703TIP3    H229601   0.432   0.094  15.780  0.3365 -0.3608  0.0610
 2704TIP3   OH229602   1.425   0.183  15.121 -0.2827 -0.7249 -0.1795
 2704TIP3    H129603   1.440   0.173  15.027  0.2776 -2.8458  0.0753
 2704TIP3    H229604   1.392   0.097  15.149 -1.6955  0.2510  1.3586
 2705TIP3   OH229605   4.556   2.721   3.743  0.2561 -0.1814  0.5139
 2705TIP3    H129606   4.621   2.782   3.777  1.1342 -0.5528 -0.4501
 2705TIP3    H229607   4.589   2.634   3.768 -0.1428 -0.3479  0.4769
 2706TIP3   OH229608   3.138   3.706   0.090 -0.1495 -0.1185 -0.6487
 2706TIP3    H129609   3.097   3.694   0.175  1.6965  1.5447  0.5449
 2706TIP3    H229610   3.064   3.721   0.030 -1.4994 -1.7113  0.5360
 2707TIP3   OH229611   5.574   2.634  13.409 -0.1583  0.1924 -0.8935
 2707TIP3    H129612   5.624   2.556  13.432  1.4603  0.8249 -2.0734
 2707TIP3    H229613   5.494   2.627  13.461  0.8843 -1.1563  0.6507
 2708TIP3   OH229614   1.758   1.411   4.412 -0.0906 -0.5508  0.0825
 2708TIP3    H129615   1.814   1.362   4.473  1.1231 -2.6363 -2.4831
 2708TIP3    H229616   1.811   1.417   4.332 -2.7915 -0.9342 -1.8554
 2709TIP3   OH229617   5.379   1.018   5.657 -0.2167  1.1174  0.0036
 2709TIP3    H129618   5.389   0.943   5.715  0.2149  1.0501 -0.1576
 2709TIP3    H229619   5.395   1.094   5.714 -0.2342  1.0715  0.0708
 2710TIP3   OH229620   6.026   1.951  14.501  0.1996 -0.1474  0.0373
 2710TIP3    H129621   6.082   1.965  14.425  1.8436  1.1773  1.4153
 2710TIP3    H229622   5.959   2.019  14.495 -0.3369 -0.7375 -0.7814
 2711TIP3   OH229623   2.750   3.533   2.911  0.5530  0.1877  0.3845
 2711TIP3    H129624   2.804   3.466   2.953  1.7092 -0.0531 -1.3843
 2711TIP3    H229625   2.806   3.610   2.908  0.7041  0.0431 -1.1344
 2712TIP3   OH229626   0.558   4.359  16.587  0.3832 -0.0686  0.1531
 2712TIP3    H129627   0.519   4.282  16.629 -1.7680  0.8513 -0.0469
 2712TIP3    H229628   0.652   4.339  16.582  0.0710 -2.0548  1.3834
 2713TIP3   OH229629   2.599   1.646   0.292 -0.6216 -0.0995  0.4063
 2713TIP3    H129630   2.606   1.573   0.230  2.8539  0.7312 -0.3870
 2713TIP3    H229631   2.665   1.627   0.359 -0.3164  1.7874  0.7045
 2714TIP3   OH229632   3.176   6.694   5.889 -0.2855  0.1188  0.7641
 2714TIP3    H129633   3.269   6.670   5.884 -0.2353  0.4995 -0.4453
 2714TIP3    H229634   3.150   6.668   5.977  0.3187 -2.4174  0.2963
 2715TIP3   OH229635   1.063   6.106  13.349  0.2543 -0.4254  0.1055
 2715TIP3    H129636   1.134   6.124  13.410  0.1932 -2.2922  0.7916
 2715TIP3    H229637   0.996   6.062  13.402 -1.1642  0.7471 -0.6509
 2716TIP3   OH229638   3.997   3.051   2.057 -0.1676 -0.6229 -0.0392
 2716TIP3    H129639   3.967   3.141   2.042 -0.2013 -0.2855  1.7764
 2716TIP3    H229640   3.930   2.996   2.016 -1.2450  0.1685  0.6088
 2717TIP3   OH229641   6.266   5.663  12.809  0.2401 -0.1767  0.4763
 2717TIP3    H129642   6.191   5.723  12.810 -0.0670 -0.5581  0.4351
 2717TIP3    H229643   6.281   5.642  12.901 -0.4065 -0.9663  0.4105
 2718TIP3   OH229644   2.333   4.699  15.673  0.5127  0.5789  0.0469
 2718TIP3    H129645   2.359   4.609  15.694  0.7408  0.6003 -0.1465
 2718TIP3    H229646   2.358   4.750  15.750  2.5512  0.8879 -0.7621
 2719TIP3   OH229647   3.539   2.727   2.674 -0.1166 -0.3390 -0.1376
 2719TIP3    H129648   3.460   2.757   2.629  0.5853 -1.3445 -2.1597
 2719TIP3    H229649   3.609   2.738   2.610  1.3778  0.2618  1.4991
 2720TIP3   OH229650   4.160   6.666   3.774  0.2506 -0.0038  0.5158
 2720TIP3    H129651   4.198   6.580   3.792 -0.5197 -0.4208  0.2263
 2720TIP3    H229652   4.173   6.716   3.854 -0.2925 -0.7654  1.0897
 2721TIP3   OH229653   3.931   2.722  15.186 -0.4284  0.0366  0.0463
 2721TIP3    H129654   4.012   2.764  15.214  0.7830 -1.1460 -1.5261
 2721TIP3    H229655   3.887   2.789  15.133  0.4409  0.0780 -0.6465
 2722TIP3   OH229656   4.031   2.332   1.432  0.5059  0.4149 -0.0632
 2722TIP3    H129657   3.949   2.336   1.382  0.5477 -1.8502 -0.4507
 2722TIP3    H229658   4.016   2.262   1.496  1.5893  1.0811  0.9493
 2723TIP3   OH229659   0.270   3.385  15.899  0.0172 -0.9455  0.4679
 2723TIP3    H129660   0.245   3.295  15.922  1.0178 -1.4043 -0.1955
 2723TIP3    H229661   0.346   3.404  15.954 -0.3636 -0.3816  0.8171
 2724TIP3   OH229662   0.885   6.277  16.086 -0.1377  0.8120  0.8331
 2724TIP3    H129663   0.852   6.225  16.013 -0.8666  0.3450  1.4744
 2724TIP3    H229664   0.808   6.326  16.117 -0.2722 -0.2561  2.3249
 2725TIP3   OH229665   6.308   2.664  17.185  0.1090  0.3939  0.2525
 2725TIP3    H129666   6.362   2.585  17.178 -1.4134 -0.5680 -1.7018
 2725TIP3    H229667   6.267   2.659  17.270  1.1716 -0.1261  0.7546
 2726TIP3   OH229668   3.881   3.700   0.881 -0.0142 -0.3636  0.2258
 2726TIP3    H129669   3.805   3.671   0.831 -0.2450 -0.1371  0.4461
 2726TIP3    H229670   3.850   3.708   0.971  0.2538 -0.2057  0.3063
 2727TIP3   OH229671   1.109   5.335  15.111  0.0930 -0.0369 -0.1230
 2727TIP3    H129672   1.018   5.307  15.105 -0.2791  1.2961 -1.1919
 2727TIP3    H229673   1.158   5.253  15.123 -1.1483 -0.8720 -0.5141
 2728TIP3   OH229674   2.607   5.106  15.797 -0.3843  0.2019 -0.4756
 2728TIP3    H129675   2.701   5.095  15.789 -0.6570 -1.5905 -1.7125
 2728TIP3    H229676   2.593   5.131  15.889  1.0987 -2.0187  0.4274
 2729TIP3   OH229677   3.796   6.201  15.048 -0.0962  0.6426  0.2013
 2729TIP3    H129678   3.835   6.131  14.996  1.0594  1.2714  0.2047
 2729TIP3    H229679   3.712   6.164  15.078 -0.6029  0.1095 -1.7273
 2730TIP3   OH229680   0.563   1.161   2.223 -0.4322  0.2164 -0.2277
 2730TIP3    H129681   0.653   1.163   2.254 -1.0908  0.5460  1.8393
 2730TIP3    H229682   0.549   1.070   2.196  0.0902 -0.1957  0.8430
 2731TIP3   OH229683   5.039   1.804  11.459  0.0873  0.2190  0.7718
 2731TIP3    H129684   4.969   1.857  11.420  0.2199  0.5066  0.9199
 2731TIP3    H229685   4.993   1.749  11.523 -0.1087 -0.1499  0.3156
 2732TIP3   OH229686   6.074   4.509   3.624 -0.4564  0.2093 -0.1213
 2732TIP3    H129687   6.074   4.427   3.574 -1.9165  0.6957 -0.9552
 2732TIP3    H229688   6.157   4.551   3.600 -0.2594 -0.4475 -0.6230
 2733TIP3   OH229689   6.709   5.019   5.096  0.4932  0.0759  0.1691
 2733TIP3    H129690   6.677   5.042   5.009  1.6395 -2.1540 -0.9397
 2733TIP3    H229691   6.790   4.970   5.079  1.1090  0.1537  2.5444
 2734TIP3   OH229692   4.528   5.856  11.867 -0.0355  0.4405  0.0657
 2734TIP3    H129693   4.501   5.946  11.850  1.9965  0.8425 -1.3088
 2734TIP3    H229694   4.623   5.861  11.881  0.2197 -1.5327 -0.5971
 2735TIP3   OH229695   6.218   0.716  16.072  0.1888  0.2516 -0.2991
 2735TIP3    H129696   6.308   0.733  16.099 -0.0420  0.1884  0.5260
 2735TIP3    H229697   6.226   0.654  15.999  0.8364  0.7140 -0.6289
 2736TIP3   OH229698   3.300   1.885   1.295 -0.0200 -0.1322  0.1117
 2736TIP3    H129699   3.394   1.868   1.295 -0.2569 -1.5759  1.1819
 2736TIP3    H229700   3.284   1.930   1.378 -0.3953 -0.7203  0.3659
 2737TIP3   OH229701   0.334   1.220  11.369 -0.1017 -0.5534 -0.6907
 2737TIP3    H129702   0.326   1.303  11.417  0.2721 -1.2288  0.5710
 2737TIP3    H229703   0.255   1.171  11.393  0.2996 -1.0690 -0.4084
 2738TIP3   OH229704   4.949   4.286  14.081  0.0648  0.5914  0.1150
 2738TIP3    H129705   5.040   4.259  14.096  0.6166  3.1899  2.1518
 2738TIP3    H229706   4.917   4.225  14.015  2.4672 -2.0733  1.1803
 2739TIP3   OH229707   0.325   2.276  14.450  0.2758 -0.5915  0.5700
 2739TIP3    H129708   0.297   2.280  14.542  0.1282 -2.9428  0.7005
 2739TIP3    H229709   0.265   2.335  14.404 -0.4364 -0.2939  1.8208
 2740TIP3   OH229710   4.445   6.280  13.989 -0.2326  0.1204 -0.2845
 2740TIP3    H129711   4.418   6.217  13.922 -0.3391 -2.8173  2.2953
 2740TIP3    H229712   4.531   6.249  14.018  0.5344  2.2454 -0.1034
 2741TIP3   OH229713   4.493   4.690   5.729 -0.2808  0.5316 -0.9124
 2741TIP3    H129714   4.541   4.611   5.753  1.2112  1.5723 -0.2913
 2741TIP3    H229715   4.408   4.680   5.772  0.1899 -0.3521 -0.1473
 2742TIP3   OH229716   3.446   1.144   3.159  0.6578 -0.2062 -0.1264
 2742TIP3    H129717   3.430   1.238   3.163 -2.9712 -0.6894  0.8262
 2742TIP3    H229718   3.381   1.106   3.218  2.8820 -3.2943  0.6087
 2743TIP3   OH229719   6.103   0.735  13.362  0.7730 -0.2903  0.2169
 2743TIP3    H129720   6.109   0.643  13.388  0.7446 -0.4533 -0.3322
 2743TIP3    H229721   6.127   0.735  13.269 -0.5327  0.0629 -0.1430
 2744TIP3   OH229722   5.247   5.549  12.742  0.1885  0.3161 -0.2521
 2744TIP3    H129723   5.257   5.641  12.717 -1.3167  0.6422  0.2443
 2744TIP3    H229724   5.282   5.543  12.830  1.5990  0.0741 -0.7954
 2745TIP3   OH229725   6.270   5.509   2.633  0.3107 -0.3303  0.6870
 2745TIP3    H129726   6.363   5.497   2.614 -0.0102 -1.0458 -0.4700
 2745TIP3    H229727   6.228   5.430   2.601 -0.6565 -0.2097  1.6068
 2746TIP3   OH229728   3.853   1.233  12.058 -0.8350 -0.1145 -0.7401
 2746TIP3    H129729   3.790   1.179  12.106  0.8360  0.2562  2.0652
 2746TIP3    H229730   3.817   1.322  12.061  0.1066  0.2392  1.5489
 2747TIP3   OH229731   0.014   1.935   3.839  0.6111  0.1601  0.3993
 2747TIP3    H129732  -0.061   1.918   3.896  0.3468 -1.4845 -0.3832
 2747TIP3    H229733   0.045   2.021   3.866 -0.5560  0.1736  1.8452
 2748TIP3   OH229734   0.871   5.619   3.321 -0.2206  0.0188  0.1726
 2748TIP3    H129735   0.890   5.679   3.248 -3.8008  0.2501 -0.7784
 2748TIP3    H229736   0.873   5.532   3.282  0.2805 -0.0799  0.4121
 2749TIP3   OH229737   4.824   5.884   3.305  0.2743 -0.4443 -1.0333
 2749TIP3    H129738   4.760   5.925   3.363  4.2671  3.9431  0.9380
 2749TIP3    H229739   4.843   5.800   3.346 -1.5903 -0.2839  0.2964
 2750TIP3   OH229740   0.090   0.806   4.561 -0.2417 -0.0435 -0.2126
 2750TIP3    H129741   0.072   0.853   4.479  0.8664 -0.4084 -0.6800
 2750TIP3    H229742   0.180   0.774   4.552 -0.2871 -0.5565  0.9275
 2751TIP3   OH229743   4.317   0.353  12.414 -0.0685 -0.4419 -0.2993
 2751TIP3    H129744   4.326   0.258  12.407  2.2358 -0.1999 -1.3908
 2751TIP3    H229745   4.230   0.371  12.377 -0.6378 -2.1267  0.1293
 2752TIP3   OH229746   4.114   0.524  14.001 -0.0251  0.2115  0.3714
 2752TIP3    H129747   4.124   0.439  13.959 -0.6132 -0.7278  2.0620
 2752TIP3    H229748   4.185   0.528  14.065 -0.1140  0.9415  0.4394
 2753TIP3   OH229749   1.336   0.828  11.696 -0.1974  0.1845  0.1235
 2753TIP3    H129750   1.291   0.743  11.701  0.8915 -0.4031  0.2986
 2753TIP3    H229751   1.279   0.889  11.742 -0.8275 -0.5333  0.2998
 2754TIP3   OH229752   6.614   4.938  16.645 -0.0048 -0.1544  0.2679
 2754TIP3    H129753   6.694   4.893  16.674 -0.1380 -0.3453  0.3393
 2754TIP3    H229754   6.545   4.873  16.655 -0.1335 -0.0655 -0.0178
 2755TIP3   OH229755   5.218   1.265  15.218  0.3320  0.1153  0.2514
 2755TIP3    H129756   5.249   1.334  15.276 -0.5639 -0.2022  1.1246
 2755TIP3    H229757   5.159   1.212  15.272  0.0292 -0.5967 -0.7469
 2756TIP3   OH229758   2.951   3.143  15.842  0.3836 -0.2105 -0.0329
 2756TIP3    H129759   2.933   3.185  15.927  2.8840  1.4620 -0.2237
 2756TIP3    H229760   2.876   3.085  15.828 -1.0737  0.9066  2.3934
 2757TIP3   OH229761   4.586   0.474  12.841  0.2850 -0.1850  0.3247
 2757TIP3    H129762   4.632   0.555  12.817  1.7654 -0.7028  1.2801
 2757TIP3    H229763   4.592   0.419  12.764  0.0103  0.2861 -0.0421
 2758TIP3   OH229764   5.035   5.320   2.293  0.5553 -0.7197 -0.0582
 2758TIP3    H129765   5.130   5.307   2.287  0.6417 -0.9049  1.4359
 2758TIP3    H229766   5.008   5.337   2.202  1.6853 -2.7326 -0.8487
 2759TIP3   OH229767   4.632   0.437   5.866  0.0048 -0.2553  0.3814
 2759TIP3    H129768   4.625   0.471   5.956  0.0289 -1.6504  0.9374
 2759TIP3    H229769   4.664   0.511   5.815  2.2145 -0.0414  1.9479
 2760TIP3   OH229770   3.619   2.584  15.843  0.0042 -0.0202 -0.6141
 2760TIP3    H129771   3.652   2.508  15.890 -2.4280  0.4278  2.1692
 2760TIP3    H229772   3.639   2.659  15.900 -2.2825  0.6729 -0.5792
 2761TIP3   OH229773   3.811   5.251   3.849 -0.4135  0.2582  0.0049
 2761TIP3    H129774   3.834   5.160   3.828 -1.9978  0.2291 -1.9509
 2761TIP3    H229775   3.746   5.243   3.920 -2.2473 -0.3711 -1.6391
 2762TIP3   OH229776   1.326   5.026  14.661  0.2954  0.0820 -0.1542
 2762TIP3    H129777   1.350   5.095  14.598  1.5645 -0.2647 -0.0837
 2762TIP3    H229778   1.389   4.956  14.644 -2.7181 -2.4131 -2.2862
 2763TIP3   OH229779   6.595   4.262  13.786  0.2867  0.4662 -0.7326
 2763TIP3    H129780   6.652   4.203  13.835  0.0797 -0.6184 -1.7502
 2763TIP3    H229781   6.651   4.336  13.763  1.2228 -0.4486 -1.4624
 2764TIP3   OH229782   6.727   0.373  13.693 -0.4990  0.1433 -0.1524
 2764TIP3    H129783   6.730   0.283  13.727 -0.9328  0.5502  1.0116
 2764TIP3    H229784   6.773   0.369  13.610  1.5304 -0.7050  0.9577
 2765TIP3   OH229785   3.067   6.211  10.949 -0.4834 -0.7600 -0.3091
 2765TIP3    H129786   3.092   6.182  10.861  2.1742  0.6783 -0.1351
 2765TIP3    H229787   3.090   6.138  11.006  1.1233 -0.4196 -0.4680
 2766TIP3   OH229788   0.935   2.048  14.444  0.3302 -0.4600 -0.2258
 2766TIP3    H129789   0.885   2.084  14.517  1.1493 -1.8183  1.0655
 2766TIP3    H229790   1.024   2.079  14.458  0.9100 -2.3609  0.5429
 2767TIP3   OH229791   4.856   5.884   4.639  0.0474 -0.7465 -0.0364
 2767TIP3    H129792   4.916   5.957   4.654 -0.9873  0.1183  0.0369
 2767TIP3    H229793   4.820   5.901   4.551  0.5617 -1.7375 -0.4512
 2768TIP3   OH229794   3.638   3.315   3.090 -0.2972  0.4540  0.2944
 2768TIP3    H129795   3.617   3.303   2.997 -0.8431  0.6052  0.3969
 2768TIP3    H229796   3.725   3.354   3.089  0.4518 -1.1455 -0.1123
 2769TIP3   OH229797   3.174   4.578   1.001 -0.2271 -1.0498  0.6142
 2769TIP3    H129798   3.117   4.655   0.993 -0.0676 -0.9667  0.2481
 2769TIP3    H229799   3.137   4.514   0.941  0.9654 -0.4287 -0.8543
 2770TIP3   OH229800   4.649   1.180  13.132  0.2701  0.0578  0.0396
 2770TIP3    H129801   4.666   1.224  13.049  2.2397 -0.5986  0.0418
 2770TIP3    H229802   4.696   1.233  13.197 -0.2341 -0.1199  0.5606
 2771TIP3   OH229803   0.001   5.149   4.438 -0.3593 -0.0026  0.0617
 2771TIP3    H129804   0.021   5.241   4.426 -0.1889 -0.3691 -3.8530
 2771TIP3    H229805  -0.088   5.148   4.472  0.2503  1.5446  1.8600
 2772TIP3   OH229806   2.399   6.543  15.608  0.3171 -0.2133  0.0721
 2772TIP3    H129807   2.418   6.605  15.678 -0.2863  0.1600 -0.0817
 2772TIP3    H229808   2.378   6.599  15.532 -0.0817 -0.6000 -0.1065
 2773TIP3   OH229809   5.057   2.518   2.670  0.5664  0.0505 -0.7710
 2773TIP3    H129810   5.093   2.592   2.718 -0.2779  0.0111 -0.0508
 2773TIP3    H229811   5.009   2.558   2.597 -0.0374  0.2418 -0.2832
 2774TIP3   OH229812   0.328   1.151   0.898  0.4883  0.1187 -0.0263
 2774TIP3    H129813   0.422   1.159   0.915  1.4665 -1.6486 -3.5549
 2774TIP3    H229814   0.305   1.230   0.850  0.2234  0.4501  0.6460
 2775TIP3   OH229815   5.438   4.935  16.904 -0.6418  0.0686  0.3472
 2775TIP3    H129816   5.356   4.959  16.948 -0.3945  1.0217  0.3161
 2775TIP3    H229817   5.476   5.019  16.877  0.0041 -0.4037 -0.2591
 2776TIP3   OH229818   2.680   0.138  14.057  0.7156 -0.7152  0.7404
 2776TIP3    H129819   2.672   0.048  14.026 -0.9221  0.2257 -1.8774
 2776TIP3    H229820   2.612   0.147  14.124  1.9356 -1.7688  2.2188
 2777TIP3   OH229821   5.976   5.497  11.497  0.2047  0.1244 -0.0814
 2777TIP3    H129822   6.042   5.565  11.485 -0.0674  0.3108 -0.5869
 2777TIP3    H229823   6.025   5.421  11.526  0.4509  0.6834  1.0415
 2778TIP3   OH229824   4.564   0.722  11.597 -0.2936 -0.6357  0.1161
 2778TIP3    H129825   4.558   0.715  11.692 -0.3037  0.4652  0.2094
 2778TIP3    H229826   4.474   0.708  11.567 -0.3616 -0.6067  0.3010
 2779TIP3   OH229827   0.960   0.326   4.790  0.1953 -0.1870 -0.7096
 2779TIP3    H129828   0.934   0.400   4.735 -1.2789  0.9284  1.3400
 2779TIP3    H229829   0.898   0.257   4.767 -0.1584  0.1395 -0.7558
 2780TIP3   OH229830   5.430   1.072  15.161 -0.4317  0.5500  0.0899
 2780TIP3    H129831   5.380   1.143  15.121  0.7893  0.9124 -0.8516
 2780TIP3    H229832   5.480   1.114  15.231 -0.4045  0.4396  0.1371
 2781TIP3   OH229833   5.926   3.609  14.965  0.2285 -0.4641 -0.7681
 2781TIP3    H129834   5.928   3.681  14.903  2.1528 -1.2369 -1.6860
 2781TIP3    H229835   5.852   3.555  14.937 -0.6286  0.6075 -0.6481
 2782TIP3   OH229836   1.702   4.404   3.185  0.2889  0.0978  0.5630
 2782TIP3    H129837   1.687   4.330   3.243 -0.1607  1.7123  2.6038
 2782TIP3    H229838   1.645   4.473   3.217  1.1385  1.5600 -0.8845
 2783TIP3   OH229839   5.414   6.732  12.056  0.0402  0.0432  0.5387
 2783TIP3    H129840   5.434   6.670  12.126 -1.5148 -0.7785  0.2909
 2783TIP3    H229841   5.327   6.766  12.078  1.0773  2.6678  1.0041
 2784TIP3   OH229842   3.009   5.012   2.086  0.5595  0.2280 -0.0514
 2784TIP3    H129843   3.080   5.059   2.042 -0.2731  1.7233  0.1175
 2784TIP3    H229844   2.986   5.068   2.160  0.3594 -1.0914  0.9230
 2785TIP3   OH229845   6.358   3.189   0.789 -0.1859 -0.4466 -0.2575
 2785TIP3    H129846   6.327   3.121   0.729  0.7954 -0.2928 -0.9619
 2785TIP3    H229847   6.453   3.194   0.774 -0.1680  0.7572  0.1095
 2786TIP3   OH229848   1.719   6.399   4.297  0.6131 -0.5366 -0.2718
 2786TIP3    H129849   1.684   6.403   4.386  1.0952 -0.4326 -0.0858
 2786TIP3    H229850   1.805   6.442   4.302 -0.4688  1.9635 -1.3603
 2787TIP3   OH229851   3.148   3.053   0.563 -0.9463 -0.0483  0.0254
 2787TIP3    H129852   3.095   3.120   0.606 -0.4593  1.4947 -1.6740
 2787TIP3    H229853   3.094   3.024   0.489 -0.6151 -0.6184 -0.0017
 2788TIP3   OH229854   3.549   2.856  12.622  0.1243  0.5869 -0.0899
 2788TIP3    H129855   3.642   2.863  12.601  0.0621  0.1420 -0.5484
 2788TIP3    H229856   3.548   2.824  12.713  0.4399 -0.4761 -0.4381
 2789TIP3   OH229857   6.791   4.104  12.618 -0.3721  0.2012 -0.3262
 2789TIP3    H129858   6.698   4.122  12.630 -0.8682 -0.0382 -3.2289
 2789TIP3    H229859   6.794   4.022  12.568  1.4347 -0.0923  0.1812
 2790TIP3   OH229860   5.721   2.302  12.726  0.0587 -0.5564  1.1982
 2790TIP3    H129861   5.760   2.219  12.699 -0.2363 -0.2440 -0.2899
 2790TIP3    H229862   5.627   2.288  12.717  0.0469  0.3190 -0.3275
 2791TIP3   OH229863   4.399   2.569  15.744  0.0949 -0.1050 -0.5789
 2791TIP3    H129864   4.332   2.563  15.676 -0.4528 -0.5432 -0.0144
 2791TIP3    H229865   4.462   2.499  15.723 -1.0540 -1.5039  0.3824
 2792TIP3   OH229866   3.520   0.972   2.020 -0.1452 -0.2996  0.3686
 2792TIP3    H129867   3.544   0.972   1.927 -0.2192 -0.9428  0.3460
 2792TIP3    H229868   3.425   0.983   2.020  0.0935  2.8286  0.4736
 2793TIP3   OH229869   2.885   5.411  13.641 -0.4146  0.3977  0.3489
 2793TIP3    H129870   2.856   5.326  13.608  1.5994  0.1773 -1.0272
 2793TIP3    H229871   2.806   5.451  13.676 -1.2418 -2.4771  2.1167
 2794TIP3   OH229872   5.094   2.650  16.779 -0.1363 -0.4652  0.3814
 2794TIP3    H129873   5.142   2.567  16.776  0.8814  0.1329 -0.6692
 2794TIP3    H229874   5.128   2.694  16.857 -1.1336 -1.2683  1.3038
 2795TIP3   OH229875   0.628   4.659  15.022 -0.0158 -0.5738 -0.5000
 2795TIP3    H129876   0.668   4.731  14.975  1.3582 -1.1619 -0.2748
 2795TIP3    H229877   0.625   4.587  14.959 -0.7794 -0.5273 -0.5279
 2796TIP3   OH229878   0.786   4.410   3.323 -0.2470  0.2309  0.2010
 2796TIP3    H129879   0.802   4.496   3.362 -0.6896 -0.3234  1.7000
 2796TIP3    H229880   0.742   4.360   3.392 -0.7812 -0.9310 -0.9319
 2797TIP3   OH229881   1.346   3.539  12.281 -0.1900  0.1340 -0.3360
 2797TIP3    H129882   1.380   3.568  12.197 -2.0002 -1.0397 -1.5647
 2797TIP3    H229883   1.283   3.607  12.307 -0.3515  0.0208 -0.4283
 2798TIP3   OH229884   3.751   2.526   3.422  0.5089 -0.7319 -0.0982
 2798TIP3    H129885   3.838   2.492   3.402  0.6779  0.2264 -1.1191
 2798TIP3    H229886   3.717   2.557   3.337 -0.0434  0.6357  0.5903
 2799TIP3   OH229887   1.520   1.062   4.541  0.0057 -0.4124  0.4055
 2799TIP3    H129888   1.435   1.024   4.564 -0.2590 -0.9045 -1.2199
 2799TIP3    H229889   1.557   1.090   4.624 -1.3326 -1.0592  1.2625
 2800TIP3   OH229890   0.055   3.380  16.419  0.4513  0.2156 -0.2848
 2800TIP3    H129891   0.006   3.439  16.476  1.2119 -0.4533  1.1071
 2800TIP3    H229892   0.125   3.345  16.474  2.5337  1.1232 -2.1984
 2801TIP3   OH229893   0.030   1.955  17.258  0.3103 -0.3839  0.1892
 2801TIP3    H129894   0.028   2.024  17.191 -2.8187 -0.6160 -0.0769
 2801TIP3    H229895   0.006   1.875  17.211 -1.1512 -0.6981  1.4057
 2802TIP3   OH229896   1.139   6.669  14.822 -0.8323  0.1901  0.0499
 2802TIP3    H129897   1.050   6.690  14.795 -1.7500 -0.0657  2.6607
 2802TIP3    H229898   1.153   6.580  14.792 -0.8419  0.7338 -1.6917
 2803TIP3   OH229899   5.188   3.229   0.770  0.0723  0.4245 -0.0231
 2803TIP3    H129900   5.217   3.299   0.712  1.6114 -1.6026 -1.8530
 2803TIP3    H229901   5.159   3.159   0.712  0.0236 -1.0533  1.6767
 2804TIP3   OH229902   2.705   6.562   5.389  0.0019  0.0594 -0.9202
 2804TIP3    H129903   2.659   6.590   5.468  1.4829 -1.2606  0.4666
 2804TIP3    H229904   2.669   6.618   5.320 -0.8411  1.7384  0.7782
 2805TIP3   OH229905   0.063   3.790  17.078  0.3692  0.0697 -0.0767
 2805TIP3    H129906   0.116   3.717  17.109 -1.2472 -1.4764 -0.7662
 2805TIP3    H229907  -0.021   3.780  17.123 -0.1960  0.9438 -0.8979
 2806TIP3   OH229908   5.072   2.847  16.299 -0.3798  0.0912  0.4158
 2806TIP3    H129909   5.086   2.776  16.362 -1.9278  0.0131  0.7194
 2806TIP3    H229910   5.018   2.807  16.231 -1.2223  0.9380  0.5625
 2807TIP3   OH229911   1.054   6.533   1.025  0.0979 -0.5310 -0.1826
 2807TIP3    H129912   1.038   6.624   1.052 -2.1862 -0.9878  0.2212
 2807TIP3    H229913   0.966   6.497   1.010  0.9267 -2.7854  0.0158
 2808TIP3   OH229914   0.597   6.751  16.968 -0.1836 -0.1786 -0.6436
 2808TIP3    H129915   0.644   6.678  16.928  0.4196 -0.0901 -0.1170
 2808TIP3    H229916   0.636   6.829  16.927  1.4022 -0.0135  1.0297
 2809TIP3   OH229917   3.768   3.052   2.729 -0.5915 -0.0055 -0.0742
 2809TIP3    H129918   3.779   2.990   2.801  0.7981  0.2153 -0.0816
 2809TIP3    H229919   3.811   3.010   2.655 -0.4207  0.5789 -0.3044
 2810TIP3   OH229920   6.118   0.161  13.861  0.0004 -0.2024  0.1122
 2810TIP3    H129921   6.108   0.165  13.766  0.2647 -4.0490 -0.2336
 2810TIP3    H229922   6.213   0.167  13.875 -0.0658  0.8066  0.2301
 2811TIP3   OH229923   0.003   3.630  13.267 -0.0216  0.6354 -0.0133
 2811TIP3    H129924  -0.026   3.617  13.357 -2.2206  0.0187 -0.7509
 2811TIP3    H229925   0.093   3.598  13.266  0.8006  2.5004  2.3767
 2812TIP3   OH229926   0.921   1.923  11.164  0.3457 -0.4473  0.6165
 2812TIP3    H129927   0.867   1.871  11.224  0.6270 -0.0919  1.1851
 2812TIP3    H229928   1.010   1.910  11.195  0.4025  0.5311  0.8884
 2813TIP3   OH229929   6.758   3.429  13.767  0.1022  0.5693  0.0067
 2813TIP3    H129930   6.850   3.439  13.794  0.5233  0.1946 -1.2470
 2813TIP3    H229931   6.711   3.490  13.824  1.0173  0.2268  1.1950
 2814TIP3   OH229932   3.086   4.502  16.996 -0.9494 -0.2902  0.0381
 2814TIP3    H129933   3.145   4.554  16.941 -0.3398 -1.4716 -0.4528
 2814TIP3    H229934   3.086   4.548  17.080  1.8248 -0.9760  0.5335
 2815TIP3   OH229935   5.884   3.475   5.102  0.1090 -0.5425 -0.2882
 2815TIP3    H129936   5.800   3.479   5.149  0.3536 -2.5273  0.3752
 2815TIP3    H229937   5.862   3.436   5.017  0.4645 -1.8382  0.2004
 2816TIP3   OH229938   1.588   1.689  16.921  0.2943 -0.3166  0.3465
 2816TIP3    H129939   1.661   1.660  16.866 -0.0058 -0.1773 -0.1318
 2816TIP3    H229940   1.518   1.709  16.859 -0.3157 -0.9178  0.8351
 2817TIP3   OH229941   3.123   6.265  15.521 -0.0315  0.2872  0.1909
 2817TIP3    H129942   3.050   6.208  15.498  1.0087 -0.6027 -1.0245
 2817TIP3    H229943   3.086   6.326  15.585 -1.6603 -0.5389  0.0933
 2818TIP3   OH229944   1.194   4.001   5.868  0.5430  0.4185  0.3588
 2818TIP3    H129945   1.114   4.052   5.850 -0.8128  0.3139  4.8365
 2818TIP3    H229946   1.263   4.067   5.873 -0.3619  1.3123  1.7895
 2819TIP3   OH229947   6.511   0.151   6.598 -1.2319 -0.4302  0.2041
 2819TIP3    H129948   6.474   0.225   6.549  0.2324 -0.0980 -0.4544
 2819TIP3    H229949   6.597   0.182   6.626 -1.0592 -1.5073  0.8898
 2820TIP3   OH229950   6.693   3.210  11.748  0.3138 -0.5777  0.1649
 2820TIP3    H129951   6.640   3.191  11.671  1.7715 -0.5538 -0.8832
 2820TIP3    H229952   6.630   3.216  11.820 -1.0639 -0.7249 -0.9936
 2821TIP3   OH229953   4.300   1.332  11.814 -0.1720  0.0808 -0.5880
 2821TIP3    H129954   4.330   1.321  11.724  0.1377  1.9916 -0.7460
 2821TIP3    H229955   4.227   1.270  11.823  0.5473 -0.9916 -1.7532
 2822TIP3   OH229956   0.116   3.063  10.653  0.1273  0.1895  0.5714
 2822TIP3    H129957   0.123   2.982  10.603 -0.7623  1.0219 -0.9834
 2822TIP3    H229958   0.182   3.054  10.722  2.4081 -0.4570 -1.5390
 2823TIP3   OH229959   0.980   4.168   1.351 -0.1165 -0.0626  0.1875
 2823TIP3    H129960   1.027   4.090   1.320 -0.3859 -0.2098  0.1410
 2823TIP3    H229961   0.971   4.154   1.445  0.0731  0.0417  0.2215
 2824TIP3   OH229962   6.098   0.729   2.608  0.0623  0.2027 -0.3802
 2824TIP3    H129963   6.126   0.637   2.616 -0.2769  0.0598 -0.7542
 2824TIP3    H229964   6.069   0.736   2.517  0.0287  0.6672 -0.3329
 2825TIP3   OH229965   2.828   6.032   1.672  0.1385  0.4005  0.0643
 2825TIP3    H129966   2.768   5.983   1.727 -1.0712 -0.0569 -1.5625
 2825TIP3    H229967   2.834   6.119   1.713  0.6766 -0.4282  1.8250
 2826TIP3   OH229968   0.057   2.658  12.071  0.4704  0.0171  0.0695
 2826TIP3    H129969   0.033   2.742  12.111 -1.6644 -1.2272  1.5694
 2826TIP3    H229970   0.056   2.676  11.976 -1.2622  1.3822  0.2933
 2827TIP3   OH229971   4.495   4.363  13.538  0.4416 -0.2302  0.0063
 2827TIP3    H129972   4.527   4.273  13.528  2.0096  0.5157 -2.3805
 2827TIP3    H229973   4.411   4.353  13.582  0.9637 -2.7831  0.6149
 2828TIP3   OH229974   5.705   4.791  15.846 -0.3696  0.0334 -0.5235
 2828TIP3    H129975   5.643   4.860  15.822 -0.0519  0.4613 -0.1096
 2828TIP3    H229976   5.658   4.739  15.912 -0.4412  0.1059 -0.5168
 2829TIP3   OH229977   2.581   6.477  13.369  0.0329  0.1245 -0.1090
 2829TIP3    H129978   2.602   6.526  13.290  0.8492 -0.7712 -0.4736
 2829TIP3    H229979   2.646   6.507  13.433 -1.0125  1.3034  0.4342
 2830TIP3   OH229980   5.061   6.240   0.056 -0.4510  0.1964  0.0373
 2830TIP3    H129981   5.038   6.180  -0.015 -1.4073  0.5113  0.0658
 2830TIP3    H229982   5.138   6.287   0.023 -0.6457  0.0611 -0.6328
 2831TIP3   OH229983   0.136   0.798  15.286  0.1020  0.4887  0.1479
 2831TIP3    H129984   0.222   0.762  15.264  0.9920  1.1212  2.3921
 2831TIP3    H229985   0.100   0.827  15.202  0.3995 -3.1724 -1.4476
 2832TIP3   OH229986   5.118   0.902  17.052  0.1119  0.6889 -0.1867
 2832TIP3    H129987   5.114   0.847  16.973  0.9820 -0.3532  0.4824
 2832TIP3    H229988   5.207   0.935  17.054 -0.3964  2.1560 -0.5708
 2833TIP3   OH229989   6.259   6.238   5.151 -0.2071 -0.2442 -0.0123
 2833TIP3    H129990   6.243   6.246   5.056 -1.5578 -0.6564  0.1582
 2833TIP3    H229991   6.258   6.144   5.167  4.0610 -0.5112 -0.1735
 2834TIP3   OH229992   5.477   2.761   2.236  0.8094 -0.1234  0.0503
 2834TIP3    H129993   5.449   2.751   2.145 -0.3508 -0.7041  0.4609
 2834TIP3    H229994   5.439   2.844   2.264 -1.1445 -1.2017  0.7977
 2835TIP3   OH229995   6.234   0.131   5.009  0.3525 -0.0605  0.3132
 2835TIP3    H129996   6.267   0.060   5.064  3.1481  1.0376  0.2304
 2835TIP3    H229997   6.254   0.210   5.058 -0.0980  0.7964 -0.8420
 2836TIP3   OH229998   0.426   5.206   1.671 -0.2739  0.0366 -0.0909
 2836TIP3    H129999   0.507   5.207   1.721 -0.4977 -0.8313  0.3102
 2836TIP3    H230000   0.451   5.174   1.584 -0.2191 -0.4752  0.1089
 2837TIP3   OH230001   3.755   2.790  11.696  0.2909  0.6281 -0.3265
 2837TIP3    H130002   3.816   2.720  11.719 -1.6888 -0.7187  1.1525
 2837TIP3    H230003   3.688   2.746  11.643 -1.4065  1.1671  1.2776
 2838TIP3   OH230004   0.884   0.885  14.027 -0.1091  0.1300  0.4997
 2838TIP3    H130005   0.941   0.945  13.978 -0.5275 -0.2988 -0.5477
 2838TIP3    H230006   0.827   0.942  14.078  0.9976  0.5750  1.2784
 2839TIP3   OH230007   4.894   1.647   4.021  0.3412 -0.2868  0.1689
 2839TIP3    H130008   4.893   1.567   3.969  0.5260  0.9706 -1.9209
 2839TIP3    H230009   4.802   1.672   4.030  0.3568  0.0397 -0.5078
 2840TIP3   OH230010   1.824   4.201  11.231  0.3201 -0.4301  0.3247
 2840TIP3    H130011   1.741   4.222  11.187  0.7544 -1.1580 -0.9112
 2840TIP3    H230012   1.798   4.153  11.310 -0.4466 -1.0283 -0.2650
 2841TIP3   OH230013   5.502   3.169  16.145 -0.4490 -0.2476  0.4183
 2841TIP3    H130014   5.414   3.147  16.177 -0.7083 -1.3071 -0.9240
 2841TIP3    H230015   5.487   3.226  16.070  0.0272 -0.0854  0.4431
 2842TIP3   OH230016   4.245   3.877   0.338  0.0393 -0.5177 -0.2140
 2842TIP3    H130017   4.173   3.932   0.371  0.4736  0.6217 -1.0949
 2842TIP3    H230018   4.209   3.835   0.259  0.2305 -0.1815 -0.4847
 2843TIP3   OH230019   3.176   6.538   0.193  0.0585  0.4366 -0.3212
 2843TIP3    H130020   3.102   6.588   0.157  0.6438  1.2454 -0.4307
 2843TIP3    H230021   3.139   6.453   0.215 -1.1353  1.1583  0.5371
 2844TIP3   OH230022   6.446   0.983  13.187 -0.2107  0.2470  0.0283
 2844TIP3    H130023   6.382   1.052  13.168  0.9974  1.0420 -1.3789
 2844TIP3    H230024   6.513   0.994  13.119  1.8253 -0.0477  1.8921
 2845TIP3   OH230025   1.612   2.702  10.237 -0.1718 -0.7289  0.7744
 2845TIP3    H130026   1.580   2.791  10.255 -1.1624 -0.4351 -1.9542
 2845TIP3    H230027   1.707   2.712  10.229 -0.2085 -0.0542  1.0762
 2846TIP3   OH230028   4.683   0.310  16.908  0.3516  0.0655  0.3793
 2846TIP3    H130029   4.729   0.389  16.880  1.6125 -0.1286  1.8316
 2846TIP3    H230030   4.645   0.333  16.993  0.3133 -0.7258  0.5826
 2847TIP3   OH230031   3.577   0.654   5.960 -0.1493  0.4046 -0.5916
 2847TIP3    H130032   3.571   0.601   5.881  0.6492 -0.5991  0.0060
 2847TIP3    H230033   3.582   0.744   5.928  1.4140 -0.0575 -1.7437
 2848TIP3   OH230034   5.849   2.534  12.746  0.0817 -0.0823  0.1115
 2848TIP3    H130035   5.792   2.457  12.742 -0.3637  0.1378  1.5443
 2848TIP3    H230036   5.935   2.503  12.718 -0.9078 -0.1670 -3.2826
 2849TIP3   OH230037   4.514   5.504   6.048  0.2448 -0.0563  0.1160
 2849TIP3    H130038   4.509   5.431   6.109  2.1475  0.5545  1.0971
 2849TIP3    H230039   4.603   5.498   6.011  0.6207  1.9893  0.5703
 2850TIP3   OH230040   2.593   3.253   3.263 -0.1898  0.2242  0.2748
 2850TIP3    H130041   2.674   3.201   3.268  0.7739  1.7308  1.0347
 2850TIP3    H230042   2.535   3.212   3.327 -0.5458 -1.6491 -1.1495
 2851TIP3   OH230043   0.366   3.397  15.532 -0.2238 -0.7288 -0.5122
 2851TIP3    H130044   0.320   3.317  15.507 -2.7139  1.2327 -2.7111
 2851TIP3    H230045   0.424   3.415  15.458 -0.2357 -0.0857 -0.3649
 2852TIP3   OH230046   1.905   4.124   5.783  0.4735  0.1919  0.2847
 2852TIP3    H130047   1.993   4.097   5.757  1.0471  2.0334  0.1804
 2852TIP3    H230048   1.908   4.219   5.782 -1.4446  0.2913  0.6035
 2853TIP3   OH230049   1.631   0.432   2.861  0.0700 -0.0564  0.1530
 2853TIP3    H130050   1.641   0.522   2.831 -2.7224  0.1325 -0.4848
 2853TIP3    H230051   1.677   0.429   2.945 -1.2422  2.4849  1.0429
 2854TIP3   OH230052   5.827   1.929   1.248  0.0171 -0.2909  0.6809
 2854TIP3    H130053   5.755   1.957   1.191  0.3536  1.8994  1.2671
 2854TIP3    H230054   5.873   2.009   1.271  3.8100 -1.6789 -1.0698
 2855TIP3   OH230055   5.742   1.130   5.200  0.3717  0.3920 -0.0230
 2855TIP3    H130056   5.759   1.126   5.294 -0.3595 -0.9324  0.0864
 2855TIP3    H230057   5.749   1.039   5.171  2.2003  0.9509 -1.5795
 2856TIP3   OH230058   6.468   6.481   5.675 -0.2472  0.3112 -0.4588
 2856TIP3    H130059   6.420   6.564   5.674 -0.8942 -0.0548 -1.1148
 2856TIP3    H230060   6.478   6.460   5.768 -1.0677  0.5714 -0.3019
 2857TIP3   OH230061   2.690   4.929   5.592  0.9475  0.2428 -0.1648
 2857TIP3    H130062   2.709   4.939   5.499  0.2135  0.1459 -0.3315
 2857TIP3    H230063   2.597   4.906   5.595  1.0794 -0.2222  0.5653
 2858TIP3   OH230064   3.802   6.435   0.445 -0.2230  0.0463 -0.3909
 2858TIP3    H130065   3.852   6.485   0.380 -0.6049  1.7089  0.5539
 2858TIP3    H230066   3.792   6.494   0.519 -2.1140 -0.8612  0.1424
 2859TIP3   OH230067   2.543   3.773  12.900 -0.7224  0.1449 -0.0636
 2859TIP3    H130068   2.622   3.722  12.883 -0.0054  1.2449 -0.1501
 2859TIP3    H230069   2.540   3.780  12.995 -0.3208  0.6791 -0.0839
 2860TIP3   OH230070   2.410   4.403   1.361 -0.0976 -0.3351  0.2648
 2860TIP3    H130071   2.448   4.491   1.361  1.3535 -0.9371  0.2363
 2860TIP3    H230072   2.404   4.380   1.454  0.0649 -0.4348  0.2500
 2861TIP3   OH230073   5.763   3.515  14.056 -0.1162 -0.3045  0.0433
 2861TIP3    H130074   5.726   3.588  14.105  1.1945  1.4586 -1.4454
 2861TIP3    H230075   5.690   3.479  14.007 -0.6076  0.6561  0.0535
 2862TIP3   OH230076   4.397   3.808  17.205 -0.2652 -0.0067  0.5185
 2862TIP3    H130077   4.336   3.872  17.240  0.6265  1.2761 -0.1951
 2862TIP3    H230078   4.471   3.859  17.173  1.0594 -1.4845  1.0472
 2863TIP3   OH230079   2.793   6.272  14.969  0.3106 -0.3873 -0.0183
 2863TIP3    H130080   2.865   6.251  15.028  0.9261 -0.3148 -0.7387
 2863TIP3    H230081   2.786   6.197  14.911  0.1565 -0.1619 -0.2956
 2864TIP3   OH230082   6.115   4.844   4.050 -0.0384 -0.2540 -0.4233
 2864TIP3    H130083   6.140   4.753   4.061  1.2591  0.2064  0.7408
 2864TIP3    H230084   6.172   4.876   3.980 -1.2037 -0.5545 -1.5657
 2865TIP3   OH230085   3.853   6.273  11.488 -0.0555  0.2452  0.2462
 2865TIP3    H130086   3.779   6.214  11.495 -0.0556  0.2880  0.6479
 2865TIP3    H230087   3.917   6.240  11.552  0.1298  0.4089  0.1479
 2866TIP3   OH230088   6.348   3.573  13.082 -0.1660 -0.6315 -0.0955
 2866TIP3    H130089   6.292   3.594  13.008  0.4092 -0.1224 -0.3919
 2866TIP3    H230090   6.406   3.504  13.049 -0.0713 -0.5759 -0.0463
 2867TIP3   OH230091   1.220   1.324   5.647  0.6205  0.7891 -0.6523
 2867TIP3    H130092   1.223   1.420   5.649  1.3870  0.7613  0.0680
 2867TIP3    H230093   1.139   1.302   5.693  1.8057  1.0570  1.7382
 2868TIP3   OH230094   5.301   1.259  14.354 -0.5179  0.0549 -0.0683
 2868TIP3    H130095   5.340   1.243  14.268  1.4979  2.6787  0.2281
 2868TIP3    H230096   5.374   1.286  14.409 -1.7665 -1.4523  2.5243
 2869TIP3   OH230097   0.997   3.935   4.433 -0.2000 -0.2664  0.3452
 2869TIP3    H130098   0.945   4.009   4.401  0.5795  0.5569  0.9653
 2869TIP3    H230099   0.940   3.891   4.496 -1.4316 -1.4003 -1.4630
 2870TIP3   OH230100   2.994   5.460  12.692 -0.3376  0.6901 -0.4874
 2870TIP3    H130101   3.087   5.464  12.717 -0.3709  1.1029 -0.4142
 2870TIP3    H230102   2.995   5.457  12.597 -0.2193 -0.4996 -0.4634
 2871TIP3   OH230103   6.786   5.411   2.591  0.6143  0.4623  0.0728
 2871TIP3    H130104   6.722   5.479   2.613 -0.3219 -0.0030 -1.0902
 2871TIP3    H230105   6.838   5.449   2.520 -1.2219 -0.6491 -2.0446
 2872TIP3   OH230106   5.094   5.664  13.882  0.5746  0.5082 -0.5268
 2872TIP3    H130107   5.160   5.604  13.848  0.6651 -0.0692  0.6089
 2872TIP3    H230108   5.143   5.729  13.933  0.2211 -0.9997  1.9214
 2873TIP3   OH230109   5.730   1.927  15.810 -0.2245  0.4458  0.3281
 2873TIP3    H130110   5.818   1.945  15.843  0.2076  0.6595 -0.8799
 2873TIP3    H230111   5.724   1.831  15.808  0.5269  0.4051 -0.9097
 2874TIP3   OH230112   6.197   3.996  15.324  0.4409  0.3982 -0.1014
 2874TIP3    H130113   6.134   4.004  15.396  1.6942  2.7370  0.8570
 2874TIP3    H230114   6.143   3.995  15.245 -0.8405  1.2154  0.7193
 2875TIP3   OH230115   3.943   3.933   5.906 -1.0892  0.0962  0.0304
 2875TIP3    H130116   3.999   3.996   5.861 -1.6140 -0.4037 -1.4065
 2875TIP3    H230117   3.953   3.953   5.999 -0.5655  1.6969 -0.3416
 2876TIP3   OH230118   3.632   4.032  12.722 -0.0617  0.3182  0.3008
 2876TIP3    H130119   3.704   4.028  12.785  0.0515  1.6242  0.2765
 2876TIP3    H230120   3.668   3.993  12.642  0.0872 -0.4944  0.7485
 2877TIP3   OH230121   1.580   1.870   4.398 -0.0672 -0.0056 -0.1587
 2877TIP3    H130122   1.634   1.827   4.332 -1.6423 -3.0622  0.3717
 2877TIP3    H230123   1.613   1.837   4.482 -0.1931  1.2504  0.4048
 2878TIP3   OH230124   4.284   1.685  11.885  0.1812 -0.1812 -0.4103
 2878TIP3    H130125   4.201   1.636  11.882  0.1121 -0.2671  1.6385
 2878TIP3    H230126   4.338   1.644  11.818 -0.8707 -1.2121 -0.6615
 2879TIP3   OH230127   6.015   5.198   3.433  0.6303 -0.2827 -0.0470
 2879TIP3    H130128   6.020   5.286   3.395  0.4996 -0.7568 -1.2262
 2879TIP3    H230129   6.090   5.151   3.396  0.9384 -0.5550  0.8947
 2880TIP3   OH230130   5.554   1.388   1.575  0.0759  0.0930 -0.3944
 2880TIP3    H130131   5.602   1.317   1.617 -0.2601 -0.3236 -0.7079
 2880TIP3    H230132   5.515   1.437   1.648 -1.2319 -1.1428 -0.2279
 2881TIP3   OH230133   1.405   6.100  13.747 -0.3428 -0.3012 -0.2602
 2881TIP3    H130134   1.494   6.125  13.722 -0.4499 -0.1673 -0.5110
 2881TIP3    H230135   1.412   6.072  13.838 -0.5307  2.3094  0.6259
 2882TIP3   OH230136   6.544   1.392   3.910 -0.0587  0.4304  0.6854
 2882TIP3    H130137   6.637   1.388   3.888 -0.0815  0.5462  0.5677
 2882TIP3    H230138   6.542   1.384   4.005  0.0850  0.6376  0.7067
 2883TIP3   OH230139   5.575   2.268   4.264 -0.5868  0.7714 -0.1679
 2883TIP3    H130140   5.665   2.271   4.295 -0.1467 -0.9135 -1.1347
 2883TIP3    H230141   5.529   2.214   4.329 -0.4750  0.1564 -0.5932
 2884TIP3   OH230142   4.520   0.157   2.895  0.0166 -0.3325 -0.3266
 2884TIP3    H130143   4.472   0.170   2.976 -1.5597 -1.1009 -1.0916
 2884TIP3    H230144   4.547   0.244   2.868 -1.9585  0.2849 -0.4479
 2885TIP3   OH230145   0.471   5.268   3.460  0.2168  0.0116 -0.2245
 2885TIP3    H130146   0.498   5.249   3.371  0.9076  1.5174 -0.3689
 2885TIP3    H230147   0.546   5.314   3.499 -0.3533  0.0429  0.8927
 2886TIP3   OH230148   1.303   2.365  13.007 -0.0215 -0.0668 -0.3717
 2886TIP3    H130149   1.349   2.326  13.081 -0.7418 -0.9917 -0.4002
 2886TIP3    H230150   1.284   2.292  12.948 -2.3287  0.0870  0.0722
 2887TIP3   OH230151   0.219   3.498  12.122  0.4677  0.1914 -0.1746
 2887TIP3    H130152   0.148   3.521  12.062 -0.4247 -0.6660  0.5067
 2887TIP3    H230153   0.262   3.424  12.080  0.1969 -0.0495 -0.0337
 2888TIP3   OH230154   0.906   5.433   4.436  0.5667  0.0690 -0.5202
 2888TIP3    H130155   0.862   5.425   4.352 -0.8817  1.6054  0.0379
 2888TIP3    H230156   0.861   5.371   4.493  0.1859  0.4927 -0.3588
 2889TIP3   OH230157   5.596   5.799  14.029 -0.0466  0.7622  0.3194
 2889TIP3    H130158   5.593   5.895  14.034  1.8062  1.1721 -3.2546
 2889TIP3    H230159   5.580   5.779  13.937 -1.2149 -2.4883  1.1062
 2890TIP3   OH230160   5.154   1.260  15.700 -0.0660 -0.4769  0.0790
 2890TIP3    H130161   5.206   1.232  15.624 -0.9987  0.3905 -0.9063
 2890TIP3    H230162   5.125   1.179  15.740  0.8681 -0.9575 -0.1851
 2891TIP3   OH230163   4.753   5.605   3.300 -0.1155  0.7896 -0.2981
 2891TIP3    H130164   4.763   5.609   3.205 -0.6417  1.9905 -0.3225
 2891TIP3    H230165   4.683   5.542   3.315  2.0475 -1.8439 -0.5094
 2892TIP3   OH230166   6.373   4.378   1.727  0.1438  0.2571  0.1324
 2892TIP3    H130167   6.452   4.330   1.703 -0.6308 -0.9653 -0.0415
 2892TIP3    H230168   6.304   4.337   1.676 -0.8641  0.2911  1.4464
 2893TIP3   OH230169   2.289   0.329   3.955 -0.1813 -0.2936 -0.3060
 2893TIP3    H130170   2.270   0.366   3.869 -1.7515 -1.7015 -0.6188
 2893TIP3    H230171   2.208   0.341   4.005 -0.9181 -3.4690 -0.5372
 2894TIP3   OH230172   3.220   4.708  15.878  0.6434 -0.1639  0.1767
 2894TIP3    H130173   3.237   4.669  15.792 -1.5692  0.0339 -0.4026
 2894TIP3    H230174   3.201   4.634  15.935 -0.9096 -0.1443 -0.2773
 2895TIP3   OH230175   1.739   4.424  14.335 -0.8864 -0.3538  0.3098
 2895TIP3    H130176   1.779   4.348  14.377 -1.2762 -1.0694 -0.5884
 2895TIP3    H230177   1.811   4.488  14.328 -0.5948 -0.5583  1.2010
 2896TIP3   OH230178   6.413   1.949  12.004 -0.2189  0.3114 -0.1243
 2896TIP3    H130179   6.333   1.901  11.980  0.0540 -0.7173  0.8971
 2896TIP3    H230180   6.384   2.040  12.014 -0.7337  0.4192 -2.1884
 2897TIP3   OH230181   4.819   0.441  15.067 -0.1432  0.2486 -0.3123
 2897TIP3    H130182   4.872   0.444  15.147 -1.3249 -2.0605  0.6545
 2897TIP3    H230183   4.729   0.446  15.098 -0.5863  1.5723 -1.7266
 2898TIP3   OH230184   1.822   2.434   1.486  0.1299 -0.3028 -0.6795
 2898TIP3    H130185   1.908   2.468   1.510 -0.6436  2.1224 -1.0817
 2898TIP3    H230186   1.821   2.435   1.390 -0.5950  0.4113 -0.6732
 2899TIP3   OH230187   1.278   6.564   4.205  0.3986 -0.4576 -0.3684
 2899TIP3    H130188   1.291   6.469   4.203 -2.1600 -0.9120  0.7519
 2899TIP3    H230189   1.226   6.582   4.127  0.8527  0.0322 -0.5591
 2900TIP3   OH230190   6.316   4.987  16.408 -0.4163 -0.3835 -0.3731
 2900TIP3    H130191   6.405   5.002  16.376 -0.9404  4.3818 -0.3924
 2900TIP3    H230192   6.315   5.025  16.495 -2.3878 -0.4068 -0.3271
 2901TIP3   OH230193   1.694   0.778   4.003  0.8540  0.1667  0.5893
 2901TIP3    H130194   1.712   0.871   3.988  2.2698 -0.1428  0.1901
 2901TIP3    H230195   1.726   0.735   3.924  0.1200 -0.6632  0.7347
 2902TIP3   OH230196   1.380   3.036  13.125 -0.0967 -0.4638  0.1681
 2902TIP3    H130197   1.409   2.950  13.158  0.8528 -0.4044 -0.4701
 2902TIP3    H230198   1.440   3.098  13.166  0.4954 -0.3006 -0.9268
 2903TIP3   OH230199   1.462   4.318   0.895 -0.2749 -0.1842  0.2676
 2903TIP3    H130200   1.520   4.250   0.929  2.3209  0.9406 -1.5512
 2903TIP3    H230201   1.472   4.391   0.956  2.9301  1.1563 -1.5652
 2904TIP3   OH230202   4.840   1.452   4.270 -0.2646 -0.2031 -0.5036
 2904TIP3    H130203   4.752   1.438   4.304  0.6520  1.1327  2.8603
 2904TIP3    H230204   4.842   1.544   4.243 -0.4074 -0.7486 -2.5167
 2905TIP3   OH230205   4.009   3.470  13.974  0.1177  0.0500 -0.1101
 2905TIP3    H130206   4.105   3.471  13.972  0.1595 -1.0638  0.6946
 2905TIP3    H230207   3.987   3.405  14.041 -1.1994  1.2816  0.6883
 2906TIP3   OH230208   4.580   3.401  14.914  0.9030  0.5250 -0.4434
 2906TIP3    H130209   4.611   3.489  14.891  1.5511  0.8122  1.3484
 2906TIP3    H230210   4.632   3.377  14.991 -0.7898 -0.5325  0.4325
 2907TIP3   OH230211   6.293   2.267   0.391  0.2980  0.1405 -0.4587
 2907TIP3    H130212   6.235   2.191   0.397  1.1422 -0.4205  0.8884
 2907TIP3    H230213   6.347   2.263   0.470  0.9633  1.6498 -0.8032
 2908TIP3   OH230214   4.263   5.599  14.875  0.3176  0.3609  0.4223
 2908TIP3    H130215   4.314   5.669  14.835  0.4270 -0.6196 -1.2066
 2908TIP3    H230216   4.176   5.607  14.836  0.7395 -1.3195 -0.9720
 2909TIP3   OH230217   2.667   6.372  11.429  0.1260  0.0103 -0.0012
 2909TIP3    H130218   2.650   6.331  11.514  0.2329 -0.9581 -0.4390
 2909TIP3    H230219   2.754   6.341  11.404  0.7303  1.4386  0.1871
 2910TIP3   OH230220   6.730   0.596  16.914 -0.2796  0.1720  0.2486
 2910TIP3    H130221   6.742   0.689  16.895 -1.0305  0.0840 -0.7510
 2910TIP3    H230222   6.751   0.588  17.007 -0.5864  1.4142  0.4513
 2911TIP3   OH230223   3.559   5.675  12.235 -0.3889  0.1582  0.2907
 2911TIP3    H130224   3.566   5.712  12.148  0.5972  0.6387  0.5575
 2911TIP3    H230225   3.603   5.590  12.229  0.0048  0.3536  0.4093
 2912TIP3   OH230226   3.375   1.935  11.222 -0.2750  0.0573 -0.7125
 2912TIP3    H130227   3.308   1.867  11.212 -0.5162  0.0269  0.9001
 2912TIP3    H230228   3.351   2.001  11.157 -1.6867 -0.1169 -0.4052
 2913TIP3   OH230229   2.635   3.987  13.720 -0.5387  0.8207  0.1288
 2913TIP3    H130230   2.650   4.047  13.793  2.2563 -0.8136  1.0633
 2913TIP3    H230231   2.566   3.928  13.750 -0.9558  1.4962  0.5257
 2914TIP3   OH230232   5.877   6.547   3.893  0.3481  0.1573 -0.0244
 2914TIP3    H130233   5.963   6.562   3.855 -0.2029 -0.4147 -1.5547
 2914TIP3    H230234   5.838   6.478   3.840 -0.9660  0.2338  0.7845
 2915TIP3   OH230235   5.411   5.108   5.152  0.3495  0.0387 -0.3749
 2915TIP3    H130236   5.480   5.136   5.212 -0.3079  1.4153 -0.2296
 2915TIP3    H230237   5.358   5.186   5.138 -0.5767 -0.7292 -1.3132
 2916TIP3   OH230238   5.493   1.980  13.398 -0.4859  0.4120  0.2074
 2916TIP3    H130239   5.477   1.901  13.346 -2.8971 -0.5170  2.1049
 2916TIP3    H230240   5.436   2.046  13.359  0.6717  0.9248 -0.6734
 2917TIP3   OH230241   0.841   4.996   4.885  0.3300 -0.3123 -0.0865
 2917TIP3    H130242   0.932   4.994   4.857  0.0923 -0.9690 -0.8439
 2917TIP3    H230243   0.794   5.034   4.810  0.0177  0.3254  0.4190
 2918TIP3   OH230244   2.891   6.311   5.242  0.0546 -0.0666  0.3955
 2918TIP3    H130245   2.846   6.306   5.158 -0.7509  2.4472  0.6092
 2918TIP3    H230246   2.963   6.373   5.227  0.3116 -0.1072  1.3935
 2919TIP3   OH230247   4.881   3.511  14.322 -0.0053 -0.2934  0.7017
 2919TIP3    H130248   4.861   3.585  14.263  0.2337 -2.3844 -2.2474
 2919TIP3    H230249   4.972   3.490  14.304  0.3164 -0.5615  2.4692
 2920TIP3   OH230250   3.960   4.641  11.453  1.1050 -0.1552  0.2912
 2920TIP3    H130251   4.008   4.587  11.515  1.0323  1.0229  1.3994
 2920TIP3    H230252   4.022   4.708  11.426  1.1162 -0.6050 -0.8920
 2921TIP3   OH230253   5.626   2.453  16.358  0.2148 -0.4499  0.3271
 2921TIP3    H130254   5.698   2.407  16.401  2.4558  0.6261 -2.0433
 2921TIP3    H230255   5.597   2.394  16.289  0.0574 -0.1286  0.1141
 2922TIP3   OH230256   3.665   5.956  15.359 -0.1936  0.0393 -0.1047
 2922TIP3    H130257   3.745   5.909  15.335 -0.9431 -0.4489 -1.8011
 2922TIP3    H230258   3.621   5.899  15.422 -0.3650 -0.8829 -1.0217
 2923TIP3   OH230259   0.301   0.040  10.276 -0.1917 -0.0517 -0.1261
 2923TIP3    H130260   0.295   0.070  10.367 -1.0077 -0.7381  0.0618
 2923TIP3    H230261   0.237  -0.032  10.270 -0.7561  0.5249 -1.4504
 2924TIP3   OH230262   1.402   1.093   1.682 -0.6410  0.5335 -0.1003
 2924TIP3    H130263   1.352   1.015   1.708 -2.0149  1.5178  0.3467
 2924TIP3    H230264   1.396   1.094   1.586 -0.0670 -0.2427 -0.1549
 2925TIP3   OH230265   3.914   3.967  13.950  0.1225 -0.3847 -0.5963
 2925TIP3    H130266   3.893   4.060  13.962  0.9373 -0.1386 -1.0035
 2925TIP3    H230267   3.867   3.943  13.870  1.3924  0.1907 -1.5571
 2926TIP3   OH230268   2.973   5.797  16.517 -0.1191 -0.8481 -0.0505
 2926TIP3    H130269   2.896   5.839  16.556 -0.5992  0.0286 -1.8262
 2926TIP3    H230270   3.047   5.844  16.556 -0.6388  2.0428 -2.1683
 2927TIP3   OH230271   2.697   0.636   5.037  0.0260 -0.1031  0.3736
 2927TIP3    H130272   2.705   0.728   5.061  1.6105  0.2208 -1.1107
 2927TIP3    H230273   2.607   0.613   5.056 -1.0268  2.3678 -1.1315
 2928TIP3   OH230274   4.236   5.311   2.030  0.3201 -0.0329 -0.7040
 2928TIP3    H130275   4.200   5.350   1.951 -2.4487  0.8815  0.8759
 2928TIP3    H230276   4.301   5.374   2.062  1.2497 -0.2809 -2.0230
 2929TIP3   OH230277   0.434   0.906   3.661 -0.1752 -0.7428  0.2382
 2929TIP3    H130278   0.436   0.997   3.632  0.2785 -0.3608  1.3978
 2929TIP3    H230279   0.491   0.860   3.601 -0.9631 -0.4101 -0.7959
 2930TIP3   OH230280   6.218   3.873   1.396  0.2483 -0.5307 -0.2242
 2930TIP3    H130281   6.149   3.833   1.343  2.2336 -1.6297 -2.1521
 2930TIP3    H230282   6.254   3.801   1.448 -0.7043  0.2481  1.5789
 2931TIP3   OH230283   2.062   2.159   0.471 -0.1416  0.2577  0.4455
 2931TIP3    H130284   1.980   2.162   0.422 -0.4846  0.9324  1.0565
 2931TIP3    H230285   2.130   2.155   0.403 -0.6615 -0.0469 -0.0623
 2932TIP3   OH230286   3.758   1.220   3.753 -0.0528 -0.7785  0.0412
 2932TIP3    H130287   3.755   1.182   3.665  2.3452 -3.6441  0.9999
 2932TIP3    H230288   3.816   1.161   3.802  1.3728  2.5052  2.6929
 2933TIP3   OH230289   5.991   0.281  11.452 -0.4452 -0.1439  0.0155
 2933TIP3    H130290   6.007   0.187  11.463 -4.0886 -0.6505  3.0698
 2933TIP3    H230291   5.960   0.290  11.362  0.7441 -1.6438 -0.5995
 2934TIP3   OH230292   4.262   6.731  12.636  0.1554 -0.0461 -0.0403
 2934TIP3    H130293   4.193   6.752  12.698  0.8232  0.8357  0.4263
 2934TIP3    H230294   4.298   6.648  12.667 -0.2425 -0.1620  0.1107
 2935TIP3   OH230295   3.286   4.381   4.252  0.3148  0.1304  0.1879
 2935TIP3    H130296   3.357   4.426   4.206 -0.1199 -0.1740 -0.8238
 2935TIP3    H230297   3.231   4.451   4.286  0.2875  0.3747 -0.3437
 2936TIP3   OH230298   5.294   0.099   3.577 -0.0497  0.0115 -0.3536
 2936TIP3    H130299   5.347   0.046   3.635  0.2893 -0.6686 -1.2600
 2936TIP3    H230300   5.354   0.127   3.508 -0.3107  1.2761 -0.0900
 2937TIP3   OH230301   4.308   4.533  17.246 -0.0957 -0.4945 -0.2777
 2937TIP3    H130302   4.358   4.498  17.172  0.5559 -0.9205  0.3438
 2937TIP3    H230303   4.262   4.457  17.281  0.3361 -0.4828  0.3198
 2938TIP3   OH230304   4.549   1.781   1.024  0.2715  0.5163 -0.2291
 2938TIP3    H130305   4.457   1.805   1.028 -0.3757 -1.6973 -0.6943
 2938TIP3    H230306   4.555   1.715   0.955  1.1302 -3.4266  3.1766
 2939TIP3   OH230307   2.944   0.498   4.477  0.4044 -0.6827  0.2193
 2939TIP3    H130308   2.954   0.578   4.426  1.5290 -0.0393  1.3960
 2939TIP3    H230309   2.855   0.469   4.459 -0.5422  1.6170  0.8831
 2940TIP3   OH230310   6.016   3.470  14.179 -0.2466  0.0810  0.1455
 2940TIP3    H130311   5.980   3.398  14.231 -0.1288 -1.1451 -1.4005
 2940TIP3    H230312   5.940   3.507  14.133  0.0923 -1.2732 -1.6370
 2941TIP3   OH230313   0.015   5.274   2.956 -0.1190 -0.2292 -0.2358
 2941TIP3    H130314   0.029   5.227   3.039  1.1522 -0.8278 -0.7669
 2941TIP3    H230315   0.099   5.267   2.910 -0.0160  2.2048 -0.5443
 2942TIP3   OH230316   4.838   6.329  14.664 -0.5591 -0.0831 -0.2275
 2942TIP3    H130317   4.863   6.372  14.582 -2.8064 -0.6900 -1.3251
 2942TIP3    H230318   4.909   6.267  14.682  0.1205  0.2771 -1.5647
 2943TIP3   OH230319   3.458   5.120  10.545 -0.8168 -0.2249 -0.3184
 2943TIP3    H130320   3.439   5.057  10.476 -1.1300  0.8915 -1.2958
 2943TIP3    H230321   3.553   5.132  10.541 -0.8398 -0.1230 -0.5980
 2944TIP3   OH230322   0.200   4.482   3.276  0.5401  0.1227 -0.2552
 2944TIP3    H130323   0.292   4.455   3.270  0.6833  0.2132  1.2113
 2944TIP3    H230324   0.198   4.570   3.239  0.8865 -0.2011 -1.0579
 2945TIP3   OH230325   2.077   0.157   0.417 -0.3514 -0.0748  0.1299
 2945TIP3    H130326   2.053   0.094   0.349 -0.3138 -0.2685  0.2961
 2945TIP3    H230327   1.995   0.200   0.439 -0.0242  1.6023 -1.6450
 2946TIP3   OH230328   2.347   2.960   5.405 -0.5644  0.3372 -0.4638
 2946TIP3    H130329   2.313   3.004   5.483 -0.3691  0.7006 -0.5806
 2946TIP3    H230330   2.442   2.960   5.418 -0.6283 -1.2263  0.1582
 2947TIP3   OH230331   1.471   2.315  12.698  0.1825 -0.1605  0.0687
 2947TIP3    H130332   1.518   2.258  12.637  2.4467  0.3142  1.2787
 2947TIP3    H230333   1.538   2.350  12.755 -1.5222  1.5372  1.1577
 2948TIP3   OH230334   3.879   5.420  14.606  0.0280 -0.0498 -0.0771
 2948TIP3    H130335   3.970   5.448  14.600 -0.4334  1.4252 -0.8129
 2948TIP3    H230336   3.848   5.453  14.690 -0.3094  1.0829 -0.6231
 2949TIP3   OH230337   5.665   1.056   5.984  0.1050 -0.1575  0.0264
 2949TIP3    H130338   5.697   0.987   5.926 -0.7127 -0.2635 -0.3259
 2949TIP3    H230339   5.726   1.057   6.057  1.1843 -0.0029 -0.8455
 2950TIP3   OH230340   2.075   4.813  13.556  0.2559 -0.1204  0.4891
 2950TIP3    H130341   1.993   4.844  13.518  0.1843 -0.5492  0.2992
 2950TIP3    H230342   2.090   4.728  13.516 -0.6267 -1.3218  2.5753
 2951TIP3   OH230343   3.727   4.571  12.324 -0.3640 -0.2198 -0.2920
 2951TIP3    H130344   3.749   4.571  12.417  1.9238 -0.6045 -0.7635
 2951TIP3    H230345   3.733   4.663  12.297 -0.0737 -0.2218 -0.2392
 2952TIP3   OH230346   3.359   2.076   5.591 -0.1907 -0.0826  0.7465
 2952TIP3    H130347   3.287   2.045   5.646  0.4927 -0.6326  1.3501
 2952TIP3    H230348   3.379   2.163   5.625 -0.1957 -0.1601  0.9512
 2953TIP3   OH230349   0.732   5.194  16.772  0.1464  0.2200  0.0539
 2953TIP3    H130350   0.762   5.253  16.704  0.4108 -2.0680 -1.9449
 2953TIP3    H230351   0.811   5.152  16.806  0.2001  2.3638  2.9524
 2954TIP3   OH230352   5.680   3.291   4.753  0.1701 -0.1409  0.1164
 2954TIP3    H130353   5.634   3.305   4.836 -1.3197 -0.0551 -0.6851
 2954TIP3    H230354   5.656   3.201   4.728  0.8994 -0.2934 -0.0582
 2955TIP3   OH230355   6.380   4.982  13.555  0.2704  0.0665 -0.4347
 2955TIP3    H130356   6.420   4.901  13.586  0.6514  0.4234  0.0138
 2955TIP3    H230357   6.314   4.954  13.492 -1.6235 -0.7615  1.8109
 2956TIP3   OH230358   3.204   2.147  14.789 -0.2506  0.7536 -0.4300
 2956TIP3    H130359   3.194   2.121  14.697  0.5445 -0.5385 -0.1660
 2956TIP3    H230360   3.147   2.087  14.837 -0.8045  1.5423 -0.0655
 2957TIP3   OH230361   3.454   1.951   0.219 -0.2150 -0.3555  0.4783
 2957TIP3    H130362   3.465   1.952   0.124 -1.0913  0.4264  0.3640
 2957TIP3    H230363   3.463   1.859   0.244 -2.2445 -0.9417 -0.6632
 2958TIP3   OH230364   3.803   3.580   4.723 -0.6666 -0.0390 -0.0533
 2958TIP3    H130365   3.885   3.592   4.771 -1.5498  2.5230  0.9705
 2958TIP3    H230366   3.797   3.486   4.709  2.6392 -0.3053 -0.5562
 2959TIP3   OH230367   5.440   4.254   3.846  0.5388  0.1562 -0.2927
 2959TIP3    H130368   5.472   4.320   3.784 -2.5692  1.9141 -0.2460
 2959TIP3    H230369   5.426   4.303   3.927 -1.2326 -0.6476 -0.0672
 2960TIP3   OH230370   6.047   4.232   4.558  0.6815 -0.0475  0.3790
 2960TIP3    H130371   6.040   4.303   4.622 -0.7599 -2.6234  3.2915
 2960TIP3    H230372   6.138   4.234   4.529  0.6094  3.1939 -0.0709
 2961TIP3   OH230373   6.758   4.299  12.342  0.1345  0.0959  0.1531
 2961TIP3    H130374   6.722   4.378  12.302  1.6263  0.1941 -1.1372
 2961TIP3    H230375   6.706   4.228  12.305  0.4289  0.3147 -0.7105
 2962TIP3   OH230376   5.489   2.603   0.395  0.1641  0.0371  0.3061
 2962TIP3    H130377   5.403   2.579   0.361 -0.6292  3.5723 -0.6432
 2962TIP3    H230378   5.483   2.586   0.489 -1.2351 -0.6566  0.1143
 2963TIP3   OH230379   5.884   2.413  14.160 -0.7332 -0.3398  0.1470
 2963TIP3    H130380   5.830   2.427  14.082 -1.1815 -0.6606  0.3937
 2963TIP3    H230381   5.824   2.428  14.233  0.3261  2.7708  0.5277
 2964TIP3   OH230382   4.897   2.307   5.289  0.5557 -0.5100 -0.2201
 2964TIP3    H130383   4.858   2.350   5.365 -0.3089 -0.0406 -0.9104
 2964TIP3    H230384   4.930   2.224   5.323 -2.0730 -1.4724  0.2339
 2965TIP3   OH230385   1.836   6.279   1.989  0.1912 -0.3788  0.0101
 2965TIP3    H130386   1.742   6.288   2.001  0.1733 -1.1947  0.5582
 2965TIP3    H230387   1.873   6.360   2.026 -0.4131  1.1485 -2.4910
 2966TIP3   OH230388   1.235   5.574  11.770  0.0760  0.3103  0.1332
 2966TIP3    H130389   1.291   5.505  11.806  0.1366  1.1161  1.6396
 2966TIP3    H230390   1.262   5.654  11.815 -0.6142  1.1688 -0.9179
 2967TIP3   OH230391   3.967   6.165  11.942 -0.4065  0.2709 -0.2855
 2967TIP3    H130392   3.898   6.102  11.963 -0.3286  1.1533  3.1751
 2967TIP3    H230393   3.921   6.247  11.927 -0.2069  0.6932  1.2847
 2968TIP3   OH230394   5.135   6.228  14.583 -0.0154  0.6378  0.0286
 2968TIP3    H130395   5.128   6.317  14.547  0.7454  2.2490  3.4799
 2968TIP3    H230396   5.225   6.222  14.615 -1.0729  0.1988  3.2908
 2969TIP3   OH230397   1.906   3.798   4.795  0.2077  0.1614 -0.5316
 2969TIP3    H130398   1.911   3.889   4.823  0.4179 -0.3707  1.3464
 2969TIP3    H230399   1.978   3.787   4.733  2.9306  0.3210  2.3306
 2970TIP3   OH230400   1.178   0.195  15.303 -0.2172  0.2372  0.1763
 2970TIP3    H130401   1.104   0.173  15.246 -0.4569 -2.5737  1.4015
 2970TIP3    H230402   1.252   0.148  15.264 -0.2908 -1.3450  1.8199
 2971TIP3   OH230403   2.427   1.979   2.389  0.6764 -0.1386  0.3905
 2971TIP3    H130404   2.390   1.921   2.322  0.7205 -0.0422  0.2831
 2971TIP3    H230405   2.483   1.923   2.442  0.5813 -0.2306  0.3940
 2972TIP3   OH230406   5.079   2.763   2.092  0.6387 -0.1003 -0.0398
 2972TIP3    H130407   5.008   2.700   2.080 -0.7472  1.3700  0.0849
 2972TIP3    H230408   5.113   2.778   2.003  0.9034 -0.9145 -0.0819
 2973TIP3   OH230409   2.980   0.610  16.955 -0.0120  0.5481  0.6106
 2973TIP3    H130410   2.953   0.621  16.864  1.9931  2.1278  0.1126
 2973TIP3    H230411   3.009   0.519  16.961  1.6436  0.9021 -0.9386
 2974TIP3   OH230412   3.377   3.227   1.317  0.1212  0.0280  0.5751
 2974TIP3    H130413   3.358   3.170   1.243  1.1145  0.4514 -0.0235
 2974TIP3    H230414   3.293   3.238   1.361 -0.4858 -0.1976 -0.5061
 2975TIP3   OH230415   5.867   2.933  13.169  0.2364  0.2350  0.6051
 2975TIP3    H130416   5.958   2.962  13.161  0.3669 -0.0540  1.0587
 2975TIP3    H230417   5.835   2.973  13.250 -0.7171  2.1248 -0.6085
 2976TIP3   OH230418   1.413   4.962  13.695  0.3768 -0.1056 -0.6986
 2976TIP3    H130419   1.403   4.935  13.604  0.7785 -3.1941  0.0599
 2976TIP3    H230420   1.470   4.895  13.734 -1.7629 -0.3537  2.3757
 2977TIP3   OH230421   6.098   1.385   5.825 -0.1699 -0.5975  0.3829
 2977TIP3    H130422   6.178   1.336   5.844  0.0959 -0.6202 -0.7019
 2977TIP3    H230423   6.102   1.401   5.730 -0.8794  0.4046  0.5076
 2978TIP3   OH230424   6.303   3.328   2.990 -0.0236 -0.0025  0.0604
 2978TIP3    H130425   6.241   3.399   3.006  0.9176  0.5152  1.6261
 2978TIP3    H230426   6.383   3.355   3.036  1.2672 -0.8128 -1.5747
 2979TIP3   OH230427   3.140   3.461  14.077  0.0615 -0.2814  0.4448
 2979TIP3    H130428   3.135   3.493  14.167 -0.0414  0.8797  0.0494
 2979TIP3    H230429   3.049   3.448  14.051  0.0341  0.4098  0.1723
 2980TIP3   OH230430   3.368   4.317   2.093  0.2918 -0.1434 -0.7098
 2980TIP3    H130431   3.308   4.365   2.036  0.2613  0.4834 -0.1550
 2980TIP3    H230432   3.319   4.305   2.174 -0.3340 -2.5636 -1.3551
 2981TIP3   OH230433   4.522   0.327   3.466 -0.2377 -0.3049 -0.2613
 2981TIP3    H130434   4.474   0.253   3.428 -1.9753  0.3317  0.5612
 2981TIP3    H230435   4.506   0.320   3.560 -0.6668  1.2496 -0.1886
 2982TIP3   OH230436   0.726   6.309  15.145  0.1673 -0.1105 -0.4051
 2982TIP3    H130437   0.737   6.401  15.120  0.7530 -0.3717 -1.1398
 2982TIP3    H230438   0.664   6.274  15.081  0.5227 -0.4111 -0.5882
 2983TIP3   OH230439   5.706   4.769  15.466  0.1909  0.4535 -0.0843
 2983TIP3    H130440   5.755   4.770  15.548  0.0288  0.2183  0.0165
 2983TIP3    H230441   5.650   4.692  15.473  1.5371 -0.6718 -1.2118
 2984TIP3   OH230442   0.267   0.722  17.022 -0.2280  0.0226  0.4359
 2984TIP3    H130443   0.254   0.813  17.048 -0.3609  0.2375 -0.3416
 2984TIP3    H230444   0.307   0.728  16.935  0.2307 -0.6597  0.5936
 2985TIP3   OH230445   1.856   4.074  13.967  0.1259 -0.3995 -0.2259
 2985TIP3    H130446   1.886   3.991  14.004  2.6095  0.5902  0.1932
 2985TIP3    H230447   1.819   4.050  13.882 -1.3946 -2.1736  0.8677
 2986TIP3   OH230448   1.512   3.558  12.985 -0.0755 -0.8165  0.0206
 2986TIP3    H130449   1.576   3.539  13.053 -1.2591 -0.2347  1.3462
 2986TIP3    H230450   1.427   3.544  13.027 -0.8624  0.3018 -1.1062
 2987TIP3   OH230451   4.238   2.470  15.948  0.7636  0.3392  0.4878
 2987TIP3    H130452   4.302   2.474  15.877 -0.8546 -0.0023 -1.0401
 2987TIP3    H230453   4.290   2.484  16.027  2.5693  1.1156 -0.7652
 2988TIP3   OH230454   5.004   6.154  15.116 -0.0433 -0.0131  0.7403
 2988TIP3    H130455   4.970   6.138  15.028 -1.2466 -1.8760  1.4854
 2988TIP3    H230456   5.098   6.168  15.103 -0.1144 -0.7424 -0.7969
 2989TIP3   OH230457   3.705   2.635   5.953 -0.0953  0.2608 -0.1712
 2989TIP3    H130458   3.708   2.656   5.859 -0.1088  2.4794  0.2739
 2989TIP3    H230459   3.612   2.632   5.974 -0.1105 -0.9009 -0.3289
 2990TIP3   OH230460   2.200   3.019   6.112 -0.5473  0.5000  0.2585
 2990TIP3    H130461   2.269   3.078   6.143  0.2091 -0.3090  0.1750
 2990TIP3    H230462   2.208   2.942   6.169 -1.3087  0.3526  0.1684
 2991TIP3   OH230463   0.235   0.798  16.128  0.0810  0.4664  0.1391
 2991TIP3    H130464   0.250   0.849  16.048 -0.5040 -0.8001 -0.8179
 2991TIP3    H230465   0.170   0.732  16.102  0.6560 -0.6289  1.3740
 2992TIP3   OH230466   5.059   6.168   4.026  0.3111 -0.2564 -0.0062
 2992TIP3    H130467   4.993   6.120   3.976 -0.1673 -0.5289  0.8757
 2992TIP3    H230468   5.142   6.124   4.005  0.0412 -0.6996 -0.1443
 2993TIP3   OH230469   2.105   0.390   0.941  0.1168 -0.1053 -0.5699
 2993TIP3    H130470   2.180   0.339   0.911  1.9042  0.9154  1.7929
 2993TIP3    H230471   2.110   0.472   0.892 -0.4409 -0.6483 -1.5620
 2994TIP3   OH230472   6.438   2.974  16.108 -0.3341 -0.4444  0.2676
 2994TIP3    H130473   6.386   3.055  16.112  0.6320  0.1957  0.2777
 2994TIP3    H230474   6.447   2.946  16.199  1.2089  0.7046  0.5195
 2995TIP3   OH230475   5.237   2.054   2.195  0.1225  0.1822 -0.1621
 2995TIP3    H130476   5.307   2.113   2.166  0.7796 -0.7564 -0.5508
 2995TIP3    H230477   5.258   2.036   2.287  0.4165 -0.1036 -0.2797
 2996TIP3   OH230478   3.664   4.611   5.627 -0.1087  0.6560  0.0667
 2996TIP3    H130479   3.678   4.665   5.705 -0.2135 -0.4064  0.8400
 2996TIP3    H230480   3.715   4.654   5.559 -0.4106  1.8825  0.5896
 2997TIP3   OH230481   1.250   2.625   2.477 -0.2174  0.6189 -0.2327
 2997TIP3    H130482   1.165   2.665   2.493 -0.0930  1.5480 -1.6657
 2997TIP3    H230483   1.248   2.543   2.526 -2.1705  0.3379 -0.7138
 2998TIP3   OH230484   1.080   2.695  12.223  0.2596  0.0798  0.4519
 2998TIP3    H130485   1.047   2.781  12.250  3.4227  1.9120 -0.8565
 2998TIP3    H230486   1.073   2.640  12.301  0.9865  2.5039  2.3595
 2999TIP3   OH230487   4.729   3.843   4.887 -0.0202 -0.5793  0.5097
 2999TIP3    H130488   4.749   3.935   4.899 -1.8896 -0.0276 -0.2770
 2999TIP3    H230489   4.703   3.812   4.974  0.4511 -0.3306  0.7425
 3000TIP3   OH230490   2.202   5.337  11.642  0.2211  0.5770  0.3077
 3000TIP3    H130491   2.263   5.286  11.695  0.7423  1.7880  0.9125
 3000TIP3    H230492   2.258   5.393  11.588 -0.3359  0.6973 -0.1526
 3001TIP3   OH230493   5.635   0.021   5.805  0.2239 -0.8184  0.2980
 3001TIP3    H130494   5.599   0.109   5.806  3.2214  0.5330  0.6960
 3001TIP3    H230495   5.653   0.002   5.897  0.9972 -1.2001  0.0759
 3002TIP3   OH230496   1.779   0.014   6.182 -0.4042  0.0263 -0.1826
 3002TIP3    H130497   1.692  -0.008   6.216 -0.5347  0.6235 -0.1226
 3002TIP3    H230498   1.816   0.073   6.247  0.0766 -0.2656 -0.1801
 3003TIP3   OH230499   6.367   2.796   0.982  0.4213 -0.1061 -0.8215
 3003TIP3    H130500   6.322   2.824   1.062  1.4759  1.4434 -0.7398
 3003TIP3    H230501   6.299   2.797   0.914 -0.1780 -0.1089 -0.2293
 3004TIP3   OH230502   1.515   1.957  16.416 -0.2507 -0.5981 -0.1887
 3004TIP3    H130503   1.528   1.979  16.508 -0.4166 -0.0748 -0.2882
 3004TIP3    H230504   1.502   2.041  16.373  0.0089 -0.8307 -0.7214
 3005TIP3   OH230505   6.096   3.619   0.535 -0.1892  0.1648  0.5380
 3005TIP3    H130506   6.137   3.704   0.545  0.2719  0.0921 -0.6420
 3005TIP3    H230507   6.169   3.558   0.523 -0.5456 -0.3031  0.7049
 3006TIP3   OH230508   1.744   1.999  11.210 -0.4752  0.0649  0.0386
 3006TIP3    H130509   1.721   2.019  11.300 -0.2144 -0.2670  0.1798
 3006TIP3    H230510   1.726   2.080  11.162 -0.0780  0.4206  0.4837
 3007TIP3   OH230511   1.428   3.062   1.571 -0.1021  0.2841  0.0085
 3007TIP3    H130512   1.509   3.104   1.600 -0.5583  0.5676  0.9264
 3007TIP3    H230513   1.455   2.975   1.543  0.5904  0.5456 -0.1556
 3008TIP3   OH230514   1.010   6.232   5.178  0.2312 -0.1563  0.2635
 3008TIP3    H130515   0.926   6.275   5.194 -0.2623 -1.2706  0.7437
 3008TIP3    H230516   1.069   6.269   5.244  0.2156  0.8338 -0.2504
 3009TIP3   OH230517   5.934   1.151  14.592  0.2252  0.1358 -0.0821
 3009TIP3    H130518   5.995   1.116  14.656 -3.4223 -2.4888  2.3767
 3009TIP3    H230519   5.900   1.232  14.632 -2.3329 -1.6971  1.8005
 3010TIP3   OH230520   1.433   1.725  10.285  0.4080 -0.6155  0.1365
 3010TIP3    H130521   1.382   1.802  10.311  1.1816  0.0623 -0.3054
 3010TIP3    H230522   1.370   1.669  10.240 -0.2418 -0.3972  0.7510
 3011TIP3   OH230523   4.710   1.134  13.554 -0.6260  0.1041 -0.3659
 3011TIP3    H130524   4.624   1.126  13.513 -0.4294  0.7119 -0.9013
 3011TIP3    H230525   4.767   1.171  13.486 -0.3433  1.3006  0.4752
 3012TIP3   OH230526   1.346   3.771   0.868 -0.3545  0.7612  0.2886
 3012TIP3    H130527   1.326   3.677   0.861 -1.6211  0.9735  0.6799
 3012TIP3    H230528   1.260   3.813   0.875  0.2080  1.9177  0.5095
 3013TIP3   OH230529   6.156   4.896   3.103 -0.1987 -0.1297  0.5649
 3013TIP3    H130530   6.115   4.975   3.136 -0.2392  0.6927 -1.3428
 3013TIP3    H230531   6.085   4.848   3.059  0.2311 -0.2398 -0.0193
 3014TIP3   OH230532   5.413   6.532   4.133 -0.2889  0.1218  0.0028
 3014TIP3    H130533   5.433   6.546   4.225 -0.3742 -0.7691  0.1692
 3014TIP3    H230534   5.398   6.620   4.098  0.3927  0.5194  0.6812
 3015TIP3   OH230535   0.934   2.721   4.059 -0.4168 -0.1281 -0.1447
 3015TIP3    H130536   0.945   2.790   3.994 -0.0201  0.5552  0.6195
 3015TIP3    H230537   0.989   2.749   4.133  1.6640 -2.4109 -0.6890
 3016TIP3   OH230538   5.737   3.986   2.066  0.2030  0.3209 -0.1309
 3016TIP3    H130539   5.658   4.036   2.048 -1.5266 -1.9772  0.5837
 3016TIP3    H230540   5.714   3.930   2.141  2.2147 -1.0128 -0.4131
 3017TIP3   OH230541   2.720   2.680  12.909  0.4434 -0.3246 -0.2100
 3017TIP3    H130542   2.757   2.592  12.909  0.5732 -0.2861  1.0371
 3017TIP3    H230543   2.789   2.736  12.946  0.5984  0.4235 -1.5537
 3018TIP3   OH230544   2.265   5.014  12.454 -0.3756  0.2773  0.5094
 3018TIP3    H130545   2.329   4.946  12.433 -2.1101 -1.7017  1.1869
 3018TIP3    H230546   2.263   5.070  12.377  1.6010 -0.0119  0.1925
 3019TIP3   OH230547   4.753   1.537  13.977  0.1093  0.1922  0.5921
 3019TIP3    H130548   4.707   1.619  13.957  1.9360  1.4598  1.3539
 3019TIP3    H230549   4.708   1.471  13.924 -0.9612  1.8083 -0.6112
 3020TIP3   OH230550   1.740   5.748  13.691 -1.1821 -0.2069  0.0759
 3020TIP3    H130551   1.706   5.835  13.668 -1.4340 -0.2847  0.1565
 3020TIP3    H230552   1.719   5.694  13.615 -0.0389  0.0646 -0.4479
 3021TIP3   OH230553   3.423   5.208   1.065 -0.1325 -0.3676  0.7121
 3021TIP3    H130554   3.416   5.299   1.097 -1.3107 -0.2535  0.1872
 3021TIP3    H230555   3.398   5.214   0.973  2.2269 -0.8543 -0.0143
 3022TIP3   OH230556   1.353   1.984  17.115  0.5730  0.3815  0.2711
 3022TIP3    H130557   1.354   2.039  17.193 -1.5606  2.0350 -0.7612
 3022TIP3    H230558   1.444   1.986  17.084  1.0449  1.3278  1.6113
 3023TIP3   OH230559   2.743   2.114  13.863  0.0488  0.3977 -0.0654
 3023TIP3    H130560   2.652   2.110  13.894  0.5584  0.5595  1.5403
 3023TIP3    H230561   2.766   2.023  13.844  0.1203  0.1155  1.3030
 3024TIP3   OH230562   3.412   4.305   0.041  0.0536 -0.6646 -0.2307
 3024TIP3    H130563   3.427   4.356   0.121 -0.0835 -2.4347  0.9637
 3024TIP3    H230564   3.484   4.331  -0.017  2.2075 -1.7814  1.7358
 3025TIP3   OH230565   1.584   4.772   5.755 -0.1455  0.0074  0.0263
 3025TIP3    H130566   1.539   4.736   5.831 -2.9784  3.2895  0.1165
 3025TIP3    H230567   1.667   4.806   5.790 -0.4266 -0.4503  1.1725
 3026TIP3   OH230568   3.390   3.712  12.848 -0.5427 -0.7481 -0.0011
 3026TIP3    H130569   3.328   3.639  12.846  1.8053 -2.8613  0.3036
 3026TIP3    H230570   3.471   3.677  12.811  0.5918  1.8412 -0.2269
 3027TIP3   OH230571   0.705   6.218  12.754 -0.2203  0.0010  0.7222
 3027TIP3    H130572   0.774   6.239  12.816  0.8802  0.8629 -0.7258
 3027TIP3    H230573   0.646   6.293  12.758 -0.3368 -0.1052  0.9811
 3028TIP3   OH230574   3.183   1.927   2.780 -0.1739 -0.3529 -0.4467
 3028TIP3    H130575   3.275   1.952   2.773  0.5772 -2.4629  0.8844
 3028TIP3    H230576   3.148   1.985   2.848  0.5486 -0.4750  0.0405
 3029TIP3   OH230577   3.997   2.048  16.922 -0.5106 -0.0157  0.1681
 3029TIP3    H130578   4.031   1.987  16.988 -0.6742 -0.7163 -0.3834
 3029TIP3    H230579   4.051   2.031  16.845  0.8660  2.0248  0.6076
 3030TIP3   OH230580   0.049   6.501  16.633 -0.3133 -0.4325 -0.2265
 3030TIP3    H130581   0.076   6.539  16.549 -2.2826 -1.0532 -1.2271
 3030TIP3    H230582   0.101   6.421  16.640 -0.2691 -0.4823 -0.9775
 3031TIP3   OH230583   2.740   2.618  16.926 -0.1249 -0.3824  0.6177
 3031TIP3    H130584   2.704   2.702  16.952  0.1811 -0.2126  0.5049
 3031TIP3    H230585   2.780   2.583  17.005 -0.0046 -0.2902  0.5983
 3032TIP3   OH230586   4.406   2.061  16.010 -0.3106 -0.3335 -0.2283
 3032TIP3    H130587   4.452   2.125  15.955  1.3066 -1.5201 -0.3439
 3032TIP3    H230588   4.462   1.983  16.007 -0.8317 -0.8693  2.0621
 3033TIP3   OH230589   6.672   1.375   2.931 -0.0067  0.2405 -0.0611
 3033TIP3    H130590   6.698   1.302   2.874  0.9874  0.3671  0.2314
 3033TIP3    H230591   6.656   1.448   2.871  0.4141  0.1892 -0.2374
 3034TIP3   OH230592   4.453   3.555   0.387  0.2390  0.4015 -0.1297
 3034TIP3    H130593   4.536   3.506   0.384  1.6109  2.6463 -1.1089
 3034TIP3    H230594   4.416   3.545   0.300  0.6699  1.3018 -0.4252
 3035TIP3   OH230595   4.166   3.168  16.308  0.1611 -0.2799 -0.2804
 3035TIP3    H130596   4.121   3.131  16.385  1.2566 -0.8363  0.1126
 3035TIP3    H230597   4.250   3.122  16.305 -0.5212 -1.5510 -2.8442
 3036TIP3   OH230598   4.271   2.329  15.123  0.2258 -0.1093  0.0978
 3036TIP3    H130599   4.269   2.327  15.027 -0.5446 -2.9621  0.0739
 3036TIP3    H230600   4.344   2.271  15.146  0.1576  0.2376  1.2424
 3037TIP3   OH230601   6.349   1.314   2.414  0.8365  0.5644 -0.4710
 3037TIP3    H130602   6.399   1.349   2.340 -1.2897 -1.5445 -3.1089
 3037TIP3    H230603   6.273   1.372   2.420 -0.3912 -0.8023 -1.8794
 3038TIP3   OH230604   2.176   0.198   2.559  0.5542 -0.3071 -0.4020
 3038TIP3    H130605   2.187   0.196   2.654  0.7712  0.9855 -0.3881
 3038TIP3    H230606   2.139   0.112   2.538 -1.1756 -0.0022  1.0607
 3039TIP3   OH230607   0.388   2.530  17.105  0.3916 -0.5190  0.3363
 3039TIP3    H130608   0.312   2.536  17.163 -0.8515 -1.8497 -1.0752
 3039TIP3    H230609   0.458   2.495  17.161 -0.1537  0.2477  1.5319
 3040TIP3   OH230610   3.371   2.926   4.468 -0.0306 -0.1400  0.9268
 3040TIP3    H130611   3.389   3.006   4.517 -1.0487  0.9816 -0.4716
 3040TIP3    H230612   3.452   2.909   4.419 -0.5975  1.4848 -0.6830
 3041TIP3   OH230613   3.451   0.791   1.825  0.1309 -0.1107  0.1517
 3041TIP3    H130614   3.414   0.763   1.741 -2.8394  2.0801  0.5612
 3041TIP3    H230615   3.453   0.711   1.878 -1.2819 -0.8848 -0.8988
 3042TIP3   OH230616   6.793   1.314  15.849  0.8754  0.2590 -0.0867
 3042TIP3    H130617   6.796   1.386  15.786  0.1745  0.0707 -0.3369
 3042TIP3    H230618   6.719   1.335  15.906 -1.8279 -2.0841 -2.4109
 3043TIP3   OH230619   6.780   0.520   2.843  0.0491 -0.1026  0.3810
 3043TIP3    H130620   6.824   0.436   2.832  0.9692  0.4732 -0.4406
 3043TIP3    H230621   6.724   0.508   2.920  1.0404 -1.0952  0.9646
 3044TIP3   OH230622   3.531   3.055  14.081  0.3557 -0.7635  0.1558
 3044TIP3    H130623   3.471   2.981  14.089 -1.8453  1.0658  2.2497
 3044TIP3    H230624   3.584   3.051  14.160  1.8610 -1.3152 -0.8230
 3045TIP3   OH230625   0.523   2.582  13.895 -0.0059  0.1181  0.7031
 3045TIP3    H130626   0.568   2.503  13.924 -2.0032 -1.2107  0.3335
 3045TIP3    H230627   0.527   2.578  13.799  0.5530  0.9020  0.6791
 3046TIP3   OH230628   4.152   5.049   5.197  0.0724  0.3187 -0.1680
 3046TIP3    H130629   4.067   5.014   5.172  1.2703 -2.9692 -0.1665
 3046TIP3    H230630   4.153   5.046   5.292  0.4698 -0.4809 -0.1902
 3047TIP3   OH230631   2.931   0.006  16.988  0.2135 -0.3612 -0.4224
 3047TIP3    H130632   2.930   0.100  16.971 -2.3012  0.0853  1.5795
 3047TIP3    H230633   2.984  -0.004  17.067  1.3027 -0.8042 -1.1790
 3048TIP3   OH230634   0.319   3.913   3.923  0.8692  0.5504  0.0449
 3048TIP3    H130635   0.384   3.900   3.991 -0.2509 -1.9433  0.7356
 3048TIP3    H230636   0.300   4.007   3.926  1.3750  0.6457  2.7107
 3049TIP3   OH230637   0.795   5.466   5.169  1.0603 -0.0049 -0.0086
 3049TIP3    H130638   0.754   5.479   5.255  2.1510 -1.2724  0.7318
 3049TIP3    H230639   0.777   5.548   5.123 -1.5928 -0.1567  0.5370
 3050TIP3   OH230640   3.006   3.388   2.453 -0.5485 -0.3157 -0.0278
 3050TIP3    H130641   2.942   3.432   2.510 -0.8000 -2.4765  1.4923
 3050TIP3    H230642   3.023   3.305   2.497  0.5635 -1.3600 -2.3041
 3051TIP3   OH230643   0.798   5.021   4.594 -0.2735  0.4246  0.0221
 3051TIP3    H130644   0.742   5.008   4.517 -2.5959 -1.4977  1.8515
 3051TIP3    H230645   0.826   4.932   4.619  1.5802  1.1271  0.6278
 3052TIP3   OH230646   6.674   0.021  14.428  0.0434  0.5846 -0.3011
 3052TIP3    H130647   6.716  -0.055  14.389  1.9734  1.0215  0.8010
 3052TIP3    H230648   6.696   0.093  14.370  0.2800  0.7112 -0.0540
 3053TIP3   OH230649   2.854   1.751   2.813  0.5176  0.4874  0.4658
 3053TIP3    H130650   2.842   1.667   2.769  1.3111  0.9567 -0.6995
 3053TIP3    H230651   2.943   1.747   2.849 -0.7033 -0.6220  3.7914
 3054TIP3   OH230652   2.093   5.869  16.550  0.1478 -0.1417  0.3382
 3054TIP3    H130653   2.132   5.950  16.582 -0.9622  0.5173  0.0967
 3054TIP3    H230654   2.127   5.859  16.462  0.3963 -0.0056  0.4174
 3055TIP3   OH230655   4.499   0.447  13.087 -0.1739 -0.4061 -0.1114
 3055TIP3    H130656   4.540   0.473  13.004  1.3340  0.2212  0.7877
 3055TIP3    H230657   4.426   0.391  13.061  0.4529 -0.4845 -1.8471
 3056TIP3   OH230658   0.715   1.379   4.109 -1.0049  0.4528 -0.3822
 3056TIP3    H130659   0.715   1.388   4.204  0.4531 -0.0812 -0.3077
 3056TIP3    H230660   0.651   1.310   4.091 -0.2112 -0.5010  0.3454
 3057TIP3   OH230661   1.077   3.978   5.579 -0.3642  0.2831  0.5747
 3057TIP3    H130662   1.122   4.011   5.502 -1.9293 -1.4330 -1.1639
 3057TIP3    H230663   1.047   4.056   5.625 -0.1441  1.3352 -1.0169
 3058TIP3   OH230664   1.156   0.351   1.382  0.0094 -0.5638  0.5476
 3058TIP3    H130665   1.204   0.434   1.381  0.0534 -0.5357  2.1462
 3058TIP3    H230666   1.215   0.288   1.341  0.2722  0.0407 -0.0073
 3059TIP3   OH230667   2.368   0.319   3.309  0.9698 -0.3683  0.4661
 3059TIP3    H130668   2.390   0.321   3.216  1.7781 -0.9316  0.6351
 3059TIP3    H230669   2.274   0.299   3.311  1.0092 -0.6378 -0.2248
 3060TIP3   OH230670   4.140   1.754   0.073  0.5953 -0.3597 -0.7062
 3060TIP3    H130671   4.193   1.820   0.118  0.4635 -1.2336  0.7677
 3060TIP3    H230672   4.203   1.687   0.047  0.4009 -0.8201 -0.0163
 3061TIP3   OH230673   3.884   1.949  14.187 -1.0870  0.2384 -0.3639
 3061TIP3    H130674   3.938   2.026  14.168  0.9996 -0.3789  2.4560
 3061TIP3    H230675   3.912   1.884  14.122  2.0571 -0.2029  1.2387
 3062TIP3   OH230676   5.483   0.402   3.056  0.2687 -0.0907  0.4621
 3062TIP3    H130677   5.469   0.486   3.014 -1.1504 -0.2849  0.5219
 3062TIP3    H230678   5.440   0.409   3.141  2.9341  0.2295  1.9280
 3063TIP3   OH230679   2.603   1.488   0.061  0.1727 -0.0279  0.1361
 3063TIP3    H130680   2.630   1.453  -0.024 -0.2171  0.1211 -0.0542
 3063TIP3    H230681   2.559   1.415   0.104  1.9938 -0.6740  0.9878
 3064TIP3   OH230682   0.185   3.278   2.820  0.2089 -0.3044  1.5075
 3064TIP3    H130683   0.117   3.339   2.849  0.2104 -1.1846  3.4782
 3064TIP3    H230684   0.267   3.327   2.832  0.0706  0.0859  0.9189
 3065TIP3   OH230685   1.280   0.868  14.507 -0.1152  0.6113 -0.5286
 3065TIP3    H130686   1.349   0.801  14.507  0.9311  1.6586  0.7591
 3065TIP3    H230687   1.208   0.827  14.459  0.3989 -1.5388  0.4206
 3066TIP3   OH230688   4.602   3.418   1.429  0.6728 -0.5541 -0.3694
 3066TIP3    H130689   4.611   3.483   1.359  0.0689 -1.4078 -1.2721
 3066TIP3    H230690   4.570   3.468   1.504  0.9530  0.3149 -0.8144
 3067TIP3   OH230691   4.530   6.446   5.022  0.1965 -1.0237  0.0938
 3067TIP3    H130692   4.475   6.507   5.070  0.6588 -0.2836 -0.2984
 3067TIP3    H230693   4.620   6.477   5.037  0.2827  0.5308 -2.9005
 3068TIP3   OH230694   0.138   1.105  14.551 -0.2103  0.0341  0.0572
 3068TIP3    H130695   0.178   1.040  14.609 -2.4428 -1.3252  0.2031
 3068TIP3    H230696   0.102   1.171  14.611  2.0290  1.5063 -0.0899
 3069TIP3   OH230697   0.218   0.056  13.947  0.1684  0.3261  0.2505
 3069TIP3    H130698   0.166   0.074  14.026 -1.0375  0.3950 -0.5302
 3069TIP3    H230699   0.270  -0.021  13.969 -2.4561 -1.6078  0.1313
 3070TIP3   OH230700   2.174   0.418   0.297 -0.1640 -0.4681 -0.3502
 3070TIP3    H130701   2.134   0.458   0.220  0.8199  0.5017 -0.3652
 3070TIP3    H230702   2.100   0.381   0.345 -1.1654  1.6908 -0.1340
 3071TIP3   OH230703   2.240   0.967  14.806 -0.4472 -0.0213 -0.2378
 3071TIP3    H130704   2.221   1.052  14.845 -1.1755 -0.1321 -0.3484
 3071TIP3    H230705   2.321   0.982  14.756  0.7617  0.0095  1.6285
 3072TIP3   OH230706   4.189   1.660  16.616 -0.6169  0.1975  0.1227
 3072TIP3    H130707   4.152   1.571  16.621  1.0572 -0.6339 -1.3151
 3072TIP3    H230708   4.143   1.701  16.543 -0.3953 -0.0015 -0.1319
 3073TIP3   OH230709   2.855   3.582  12.019 -0.1281 -0.2657 -0.4328
 3073TIP3    H130710   2.816   3.540  11.943  0.3045 -0.5946 -0.4778
 3073TIP3    H230711   2.946   3.597  11.995 -0.7314  2.7339 -1.2674
 3074TIP3   OH230712   6.391   1.521  12.286  0.2596 -0.1289 -0.0373
 3074TIP3    H130713   6.389   1.601  12.339 -0.4984 -0.2254  0.0965
 3074TIP3    H230714   6.440   1.545  12.208  0.2881  0.3879  0.1322
 3075TIP3   OH230715   2.577   4.162  11.939 -0.0878 -0.3557 -0.2473
 3075TIP3    H130716   2.603   4.246  11.901  0.3062 -0.5077 -0.3218
 3075TIP3    H230717   2.626   4.156  12.021  1.6370 -1.4805 -1.2679
 3076TIP3   OH230718   3.857   0.582  14.037 -0.0316  0.2336 -0.0878
 3076TIP3    H130719   3.853   0.678  14.033  0.1470  0.3833  2.0186
 3076TIP3    H230720   3.950   0.562  14.031 -0.0491  0.2023 -0.2640
 3077TIP3   OH230721   2.081   3.097  16.387  0.0884 -0.4536  0.3723
 3077TIP3    H130722   2.096   3.025  16.326 -1.5507 -0.1456 -0.4495
 3077TIP3    H230723   2.147   3.162  16.363 -0.4364 -0.3996 -1.0044
 3078TIP3   OH230724   3.174   1.552  11.438  0.4673 -0.1156  0.3187
 3078TIP3    H130725   3.123   1.516  11.511 -1.5589  2.4493  0.3375
 3078TIP3    H230726   3.160   1.490  11.367  0.0540 -1.1719  1.2831
 3079TIP3   OH230727   2.507   0.008   2.429  0.1046 -0.4386  0.2999
 3079TIP3    H130728   2.577   0.073   2.423  0.4104 -0.6731  1.1747
 3079TIP3    H230729   2.486  -0.013   2.338  0.0228  0.8560 -0.0016
 3080TIP3   OH230730   2.175   3.639  13.391  0.6539 -0.1757  0.2061
 3080TIP3    H130731   2.235   3.586  13.443  2.1878  1.0157 -0.3003
 3080TIP3    H230732   2.199   3.729  13.410 -0.8793  0.3396 -0.1511
 3081TIP3   OH230733   4.714   5.407  14.021 -0.1206 -0.6996  0.5506
 3081TIP3    H130734   4.747   5.317  14.031  2.0522  0.1893  2.1714
 3081TIP3    H230735   4.776   5.449  13.962 -0.4073  0.0856  0.7935
 3082TIP3   OH230736   0.933   2.273   4.139 -0.1928  0.0898 -0.5902
 3082TIP3    H130737   0.839   2.256   4.149 -0.7781  2.0196 -2.2461
 3082TIP3    H230738   0.945   2.362   4.172  0.8743  0.2359 -1.3293
 3083TIP3   OH230739   0.595   3.070  11.694 -0.2282 -0.1415 -0.7868
 3083TIP3    H130740   0.534   3.050  11.764  2.4874  1.1778  2.1907
 3083TIP3    H230741   0.585   3.164  11.678  0.8055  0.0388 -0.4430
 3084TIP3   OH230742   2.609   5.655  11.433 -0.0295  0.3109  0.0495
 3084TIP3    H130743   2.665   5.597  11.382 -0.3966 -1.3152  1.4108
 3084TIP3    H230744   2.567   5.597  11.497 -0.2278  2.1142  1.6309
 3085TIP3   OH230745   4.355   0.136   5.855  0.2152 -0.4095 -0.5219
 3085TIP3    H130746   4.431   0.114   5.801  0.8514  2.4421 -0.9556
 3085TIP3    H230747   4.392   0.158   5.940 -0.2905 -0.3669 -0.3110
 3086TIP3   OH230748   2.950   0.454   0.546  0.4768 -0.1929  0.2202
 3086TIP3    H130749   3.045   0.453   0.531  0.5743  0.1288  0.7912
 3086TIP3    H230750   2.916   0.389   0.484  0.6722  2.1648 -2.6047
 3087TIP3   OH230751   0.735   3.446   6.002  0.1306  0.2224  0.1677
 3087TIP3    H130752   0.801   3.513   5.983  0.0971  0.8812  2.0578
 3087TIP3    H230753   0.750   3.425   6.094 -1.0662 -1.0356  0.0928
 3088TIP3   OH230754   3.312   4.851   0.840 -0.0982  0.2106  0.0031
 3088TIP3    H130755   3.281   4.940   0.819  2.0846  1.6364  2.2740
 3088TIP3    H230756   3.280   4.835   0.928 -0.5435 -1.3662 -0.4150
 3089TIP3   OH230757   3.247   5.729   3.173 -0.1610  0.0531 -0.0839
 3089TIP3    H130758   3.287   5.643   3.162  0.3590  0.2208  0.4488
 3089TIP3    H230759   3.217   5.753   3.085  0.6854 -0.1897 -0.4493
 3090TIP3   OH230760   3.439   0.120   4.901  0.3387  0.7680  0.4452
 3090TIP3    H130761   3.518   0.106   4.953  1.5041  2.1031 -0.8949
 3090TIP3    H230762   3.378   0.053   4.933  2.0247 -0.3785  1.4327
 3091TIP3   OH230763   2.996   2.192  17.172  0.1388 -0.0712 -0.4034
 3091TIP3    H130764   3.076   2.185  17.225  0.1665  0.2455 -0.4068
 3091TIP3    H230765   2.956   2.105  17.179  0.6084 -0.3085 -0.5994
 3092TIP3   OH230766   1.038   5.694  11.570 -0.2070 -0.2292 -0.2037
 3092TIP3    H130767   1.117   5.677  11.519  1.2120 -2.5640  2.5443
 3092TIP3    H230768   1.065   5.760  11.634  0.1335 -2.1944  1.7957
 3093TIP3   OH230769   2.885   5.285  15.124 -0.2727 -0.3239 -0.0565
 3093TIP3    H130770   2.851   5.251  15.041  0.7781 -0.7175 -0.3450
 3093TIP3    H230771   2.916   5.208  15.171 -0.0180 -0.0094  0.3040
 3094TIP3   OH230772   4.223   0.907  15.268 -0.2774 -0.3351 -1.0778
 3094TIP3    H130773   4.192   0.972  15.205  0.7158  0.2050 -1.0290
 3094TIP3    H230774   4.216   0.951  15.353  1.5660  0.2008 -1.1637
 3095TIP3   OH230775   6.708   0.975  12.213  0.0442 -0.4981  0.6306
 3095TIP3    H130776   6.715   0.908  12.145 -2.4741  0.2244 -0.4657
 3095TIP3    H230777   6.732   1.056  12.169 -1.1754 -0.0879  0.7045
 3096TIP3   OH230778   2.910   0.810  16.123 -0.2813 -1.1569 -0.7670
 3096TIP3    H130779   2.832   0.799  16.069 -0.1173  0.7292 -1.4425
 3096TIP3    H230780   2.895   0.753  16.198 -2.4614 -0.6112 -0.7290
 3097TIP3   OH230781   2.081   2.611   2.987  0.1451 -0.0636  0.0949
 3097TIP3    H130782   2.022   2.598   3.061 -0.4242  0.3380 -0.2735
 3097TIP3    H230783   2.161   2.646   3.025 -1.0838  2.8484  0.3058
 3098TIP3   OH230784   6.337   2.428   5.375 -0.1410 -0.3253 -0.7722
 3098TIP3    H130785   6.373   2.515   5.355 -1.1897  0.2311 -0.3736
 3098TIP3    H230786   6.246   2.446   5.401  0.3320 -1.2644  1.7900
 3099TIP3   OH230787   1.937   2.369  14.013 -0.6719  0.2992 -0.3671
 3099TIP3    H130788   1.894   2.454  14.004 -0.3502  0.4903 -0.1228
 3099TIP3    H230789   1.908   2.337  14.098  2.2436  1.9425  1.4233
 3100TIP3   OH230790   6.693   4.689   5.868 -0.1632 -0.2010  1.0281
 3100TIP3    H130791   6.785   4.688   5.840  0.6591  4.1237  2.7207
 3100TIP3    H230792   6.697   4.670   5.961 -1.1391 -0.9030  0.9355
 3101TIP3   OH230793   0.058   4.604  11.979  0.0621 -0.4014 -0.4468
 3101TIP3    H130794  -0.003   4.614  11.906 -1.0611 -0.2501  0.4820
 3101TIP3    H230795   0.126   4.669  11.962  1.0246 -1.8336 -2.4868
 3102TIP3   OH230796   6.096   4.407   2.322  0.0604 -0.2057  0.1350
 3102TIP3    H130797   6.121   4.500   2.322 -1.0549  0.1065 -0.4945
 3102TIP3    H230798   6.162   4.364   2.268 -0.8654  0.6510 -1.7576
 3103TIP3   OH230799   6.231   2.981   4.483  0.5338  1.0074  0.1697
 3103TIP3    H130800   6.313   3.012   4.522  0.1483  2.8519 -0.3849
 3103TIP3    H230801   6.251   2.968   4.391  0.7479 -0.7265  0.4321
 3104TIP3   OH230802   6.412   4.408   2.468  0.4522  0.0122 -0.1631
 3104TIP3    H130803   6.470   4.481   2.450  0.7881  0.4722  2.4468
 3104TIP3    H230804   6.360   4.436   2.543 -0.0642 -2.0681  0.3184
 3105TIP3   OH230805   4.659   1.480   3.831 -0.0137 -0.9088 -0.0382
 3105TIP3    H130806   4.753   1.460   3.829 -0.0083 -0.9405  0.4553
 3105TIP3    H230807   4.645   1.524   3.914 -0.2261  0.2010 -0.6462
 3106TIP3   OH230808   1.836   2.051  12.079  0.1917 -0.2950  0.1180
 3106TIP3    H130809   1.820   2.135  12.037 -0.9241 -0.3712  0.3412
 3106TIP3    H230810   1.893   2.004  12.019  1.3105  0.8262  0.2624
 3107TIP3   OH230811   0.285   5.580   5.635  0.5351 -0.0780 -0.2909
 3107TIP3    H130812   0.363   5.601   5.584 -0.3287  1.6477 -1.0138
 3107TIP3    H230813   0.224   5.543   5.572  0.6893 -1.3166  0.2486
 3108TIP3   OH230814   1.581   4.833   5.217 -0.9537  0.5353  0.4223
 3108TIP3    H130815   1.637   4.906   5.193  0.5394 -0.3977  0.9304
 3108TIP3    H230816   1.632   4.784   5.282 -1.5524 -1.3963 -0.4914
 3109TIP3   OH230817   3.583   2.989   1.308  0.0019 -0.4423  0.7060
 3109TIP3    H130818   3.627   3.020   1.388  1.2993  1.3721 -0.6237
 3109TIP3    H230819   3.530   3.064   1.280  1.1150 -0.2929 -1.1627
 3110TIP3   OH230820   2.492   2.133   3.180 -0.7592 -0.1405 -0.4542
 3110TIP3    H130821   2.464   2.197   3.113  0.8364 -0.4637 -1.4943
 3110TIP3    H230822   2.585   2.120   3.162 -0.9417 -2.4233  0.0258
 3111TIP3   OH230823   4.401   1.071  10.918 -0.9731  0.5764 -0.0944
 3111TIP3    H130824   4.352   1.002  10.964 -0.3096 -0.8781 -1.4715
 3111TIP3    H230825   4.479   1.085  10.973 -0.6122 -0.5249 -0.2945
 3112TIP3   OH230826   1.591   5.400   2.207  0.2522 -0.1723 -0.6062
 3112TIP3    H130827   1.510   5.378   2.161 -1.6127  0.9774  1.9028
 3112TIP3    H230828   1.613   5.321   2.256 -0.4204  0.0684  0.1095
 3113TIP3   OH230829   4.664   2.012  12.364 -0.0182  0.4466  0.6206
 3113TIP3    H130830   4.646   2.106  12.361 -0.1041  0.4331  0.6990
 3113TIP3    H230831   4.594   1.976  12.419  0.4727  0.4472  1.2535
 3114TIP3   OH230832   4.772   4.563   1.272 -0.4294 -0.5312  0.4394
 3114TIP3    H130833   4.794   4.488   1.216 -0.0998 -0.1258  0.0210
 3114TIP3    H230834   4.785   4.531   1.361  0.9323 -0.5925  0.2303
 3115TIP3   OH230835   2.269   6.098   4.221 -0.1588  1.5108  0.6516
 3115TIP3    H130836   2.327   6.024   4.200 -0.1934  1.4485  0.7761
 3115TIP3    H230837   2.187   6.076   4.177  0.3060  2.2289 -0.6443
 3116TIP3   OH230838   0.396   3.282   3.110 -0.3765  0.0447  0.0016
 3116TIP3    H130839   0.346   3.201   3.096  0.0387  0.0647 -1.7832
 3116TIP3    H230840   0.481   3.253   3.142 -1.4478  0.0156  3.2659
 3117TIP3   OH230841   4.217   1.335   5.161 -0.1580 -0.1925  0.1063
 3117TIP3    H130842   4.141   1.278   5.157  1.5013 -2.4729 -0.7153
 3117TIP3    H230843   4.263   1.310   5.241 -0.5651  1.6673  0.9874
 3118TIP3   OH230844   3.350   4.480   1.792  0.2402  0.6279 -0.2430
 3118TIP3    H130845   3.389   4.392   1.789  2.0505  1.2765  1.9320
 3118TIP3    H230846   3.409   4.534   1.738 -1.3614  0.4377 -2.3369
 3119TIP3   OH230847   0.711   2.023  16.416  0.2643  0.3140 -0.0891
 3119TIP3    H130848   0.643   2.088  16.434 -0.3899 -0.5279  0.5878
 3119TIP3    H230849   0.780   2.041  16.481  0.3299  0.6673 -0.2569
 3120TIP3   OH230850   3.235   4.951  14.728 -0.1408  0.7878  0.4093
 3120TIP3    H130851   3.314   4.963  14.675 -0.0602  0.9885  0.5739
 3120TIP3    H230852   3.180   5.027  14.707  0.1560  1.1958  1.0779
 3121TIP3   OH230853   4.355   6.498  16.448 -0.0956  0.4547 -0.5441
 3121TIP3    H130854   4.353   6.410  16.486  1.1787  0.3097 -0.7648
 3121TIP3    H230855   4.424   6.544  16.495  0.2245  0.8722 -1.3922
 3122TIP3   OH230856   3.438   4.175  13.026 -0.3093 -0.0008 -0.1752
 3122TIP3    H130857   3.445   4.190  13.120  0.1829 -1.4286  0.0492
 3122TIP3    H230858   3.428   4.080  13.018 -0.8735  0.1508 -1.5400
 3123TIP3   OH230859   6.441   3.291  16.926  0.2288  0.0676  0.1167
 3123TIP3    H130860   6.365   3.326  16.971 -0.9274 -1.8133 -0.2451
 3123TIP3    H230861   6.408   3.263  16.840  1.6445  0.4832 -0.6025
 3124TIP3   OH230862   1.459   4.202   3.332 -0.3169 -0.2388 -0.1524
 3124TIP3    H130863   1.423   4.232   3.248 -0.4885  0.3076  0.1133
 3124TIP3    H230864   1.395   4.230   3.397  0.6517  0.8930  0.3527
 3125TIP3   OH230865   5.172   6.112   1.491 -0.1996  0.2685 -0.3866
 3125TIP3    H130866   5.189   6.204   1.510 -1.6881  0.3735  0.5834
 3125TIP3    H230867   5.077   6.105   1.485 -0.0355 -0.7886 -2.8176
 3126TIP3   OH230868   6.384   0.355   0.119 -0.7695 -0.1614 -0.6414
 3126TIP3    H130869   6.316   0.418   0.142 -1.3324 -1.2380  0.8129
 3126TIP3    H230870   6.348   0.270   0.147  0.7004 -0.8932 -0.8873
 3127TIP3   OH230871   0.656   4.661  11.636 -0.3228  0.4589  0.2863
 3127TIP3    H130872   0.696   4.683  11.553  1.2688 -1.1124  0.5644
 3127TIP3    H230873   0.692   4.723  11.699  0.3947  0.1130  0.2229
 3128TIP3   OH230874   3.923   5.040   3.438  0.2886  0.4344  0.2827
 3128TIP3    H130875   3.904   5.040   3.532 -2.2579  1.2035 -0.1427
 3128TIP3    H230876   3.993   5.105   3.427  1.0919 -0.1611  1.6947
 3129TIP3   OH230877   3.412   0.602  14.926 -0.3312  0.3938 -0.3609
 3129TIP3    H130878   3.438   0.601  14.834  0.9026  1.3783 -0.0593
 3129TIP3    H230879   3.475   0.544  14.969 -0.7922  0.0764 -0.1044
 3130TIP3   OH230880   2.956   3.908  15.425 -0.7615 -0.1300 -0.2429
 3130TIP3    H130881   3.020   3.941  15.362 -0.2665 -0.6313 -0.0035
 3130TIP3    H230882   2.914   3.834  15.381 -0.5928 -0.3216 -0.0825
 3131TIP3   OH230883   2.629   5.304  13.812 -0.0702  0.4761  1.0041
 3131TIP3    H130884   2.608   5.295  13.905  0.9696  1.8745  1.4116
 3131TIP3    H230885   2.712   5.257  13.802 -0.4824 -0.1940  0.6264
 3132TIP3   OH230886   0.162   0.078   3.285 -0.1099  0.3014  0.6751
 3132TIP3    H130887   0.208   0.134   3.347 -1.1474  1.6838  0.2568
 3132TIP3    H230888   0.080   0.125   3.266 -0.0510 -0.2981 -1.3520
 3133TIP3   OH230889   1.591   4.589  14.016  0.5790  0.3190 -0.4665
 3133TIP3    H130890   1.641   4.521  14.060 -1.9156 -1.8486 -0.7337
 3133TIP3    H230891   1.584   4.560  13.925 -0.5914  0.8661 -0.5746
 3134TIP3   OH230892   3.880   5.781  12.838  0.2969 -0.4331  0.4044
 3134TIP3    H130893   3.867   5.826  12.922  1.1801 -1.6403  1.2147
 3134TIP3    H230894   3.847   5.843  12.773  1.0035  1.1916  1.5119
 3135TIP3   OH230895   1.875   2.093   1.406  0.0703 -0.0741 -0.2325
 3135TIP3    H130896   1.930   2.129   1.476  1.0073  0.4687 -1.2092
 3135TIP3    H230897   1.799   2.058   1.451  0.8621 -0.1586  1.1072
 3136TIP3   OH230898   3.767   4.592  16.711 -0.2965 -0.0327  0.3490
 3136TIP3    H130899   3.701   4.615  16.645 -1.2515  0.4003  1.4227
 3136TIP3    H230900   3.749   4.651  16.784  0.3432 -0.9317  1.2550
 3137TIP3   OH230901   2.027   3.638   0.660  0.1096  0.1966 -0.2086
 3137TIP3    H130902   1.996   3.713   0.610 -0.2075  0.1917 -0.0233
 3137TIP3    H230903   2.022   3.667   0.751 -0.1805 -0.1067 -0.1243
 3138TIP3   OH230904   4.640   0.846   1.609 -0.4089 -0.5572 -0.3045
 3138TIP3    H130905   4.669   0.778   1.550  0.4284  0.2235 -0.8237
 3138TIP3    H230906   4.571   0.893   1.561 -1.3447 -1.3329  0.2499
 3139TIP3   OH230907   2.905   6.281  11.331  0.0586  0.3467 -0.5213
 3139TIP3    H130908   2.997   6.266  11.354  0.3409  0.6069 -1.4067
 3139TIP3    H230909   2.906   6.292  11.236 -1.0670 -0.8388 -0.6987
 3140TIP3   OH230910   6.688   3.743  12.767 -0.1205 -0.8869 -0.0266
 3140TIP3    H130911   6.634   3.813  12.806  1.3726  0.4283 -0.2411
 3140TIP3    H230912   6.778   3.774  12.776  0.4913 -2.1688 -1.3906
 3141TIP3   OH230913   1.242   1.243   4.446 -0.1886  0.1246  0.0608
 3141TIP3    H130914   1.260   1.165   4.499 -2.1034  0.1046  0.7528
 3141TIP3    H230915   1.249   1.316   4.507 -0.5179  0.2874 -0.0950
 3142TIP3   OH230916   4.781   6.361   5.456  0.1095  0.1001  0.3526
 3142TIP3    H130917   4.825   6.313   5.385 -0.6795  2.4213 -1.8860
 3142TIP3    H230918   4.702   6.310   5.473 -0.5322  0.2830 -1.7087
 3143TIP3   OH230919   3.559   2.227   5.375 -0.0386 -0.4959  0.2690
 3143TIP3    H130920   3.549   2.199   5.466 -1.1928  1.0541  0.6706
 3143TIP3    H230921   3.521   2.156   5.324 -0.3653 -0.9150  1.0633
 3144TIP3   OH230922   5.154   5.093  13.794 -0.0731  0.2434  0.4705
 3144TIP3    H130923   5.207   5.133  13.863  1.0917  0.1111 -0.3383
 3144TIP3    H230924   5.065   5.095  13.829  0.5801 -0.4875  2.2969
 3145TIP3   OH230925   4.326   0.355  14.341 -0.1093  0.7385  0.1260
 3145TIP3    H130926   4.232   0.338  14.353 -0.4742  1.6238 -1.2029
 3145TIP3    H230927   4.330   0.405  14.259  1.6068 -0.0732 -0.3172
 3146TIP3   OH230928   3.469   5.000  14.609  0.0401  0.1756  0.1380
 3146TIP3    H130929   3.493   5.054  14.535 -0.4993 -0.0829 -0.2327
 3146TIP3    H230930   3.464   4.911  14.574 -0.2731  0.0582  0.4683
 3147TIP3   OH230931   5.229   5.787  13.332 -0.2784  0.1024  0.4564
 3147TIP3    H130932   5.235   5.763  13.424 -0.9513 -0.9838  0.2413
 3147TIP3    H230933   5.305   5.746  13.291 -0.9621 -1.0041  0.2379
 3148TIP3   OH230934   5.702   2.004   1.014  0.1446 -1.0573  0.1130
 3148TIP3    H130935   5.716   2.094   1.044 -1.2829 -1.4337  2.0925
 3148TIP3    H230936   5.665   2.013   0.926  0.0984  0.2795  0.2529
 3149TIP3   OH230937   4.538   6.517   3.188 -0.0524  0.2980  0.3737
 3149TIP3    H130938   4.576   6.438   3.226 -1.3279 -0.8472 -0.6091
 3149TIP3    H230939   4.604   6.585   3.201 -0.3058 -0.0033  4.4050
 3150TIP3   OH230940   2.568   3.583   4.235 -0.0673  0.3923  0.6611
 3150TIP3    H130941   2.572   3.488   4.230  1.0284  0.4193  0.7340
 3150TIP3    H230942   2.651   3.608   4.276 -0.8516  1.3155  1.7399
 3151TIP3   OH230943   0.587   4.422   5.160 -0.0361  0.5396 -0.2102
 3151TIP3    H130944   0.682   4.424   5.173 -0.1210  0.9867  0.4217
 3151TIP3    H230945   0.568   4.503   5.112 -0.1395  0.6421  0.0011
 3152TIP3   OH230946   4.251   0.894   3.385  0.1017 -0.4567 -0.7389
 3152TIP3    H130947   4.327   0.951   3.395 -0.4836  0.3088 -0.5175
 3152TIP3    H230948   4.272   0.817   3.438  0.2757  0.2203  0.2115
 3153TIP3   OH230949   0.454   4.043   5.814 -0.3343  0.2911  0.3405
 3153TIP3    H130950   0.464   4.037   5.719  0.4624  0.9274  0.3690
 3153TIP3    H230951   0.458   4.137   5.833  1.6191  0.0988  1.1883
 3154TIP3   OH230952   1.275   4.030   1.535 -0.2696 -0.3890 -0.2422
 3154TIP3    H130953   1.213   3.980   1.588 -0.5167  0.3569  0.1912
 3154TIP3    H230954   1.226   4.051   1.455 -0.6449  0.3304  0.1649
 3155TIP3   OH230955   1.017   1.970  16.472 -0.1278 -0.5770 -0.0247
 3155TIP3    H130956   1.065   1.991  16.392 -0.0764 -0.6789 -0.0209
 3155TIP3    H230957   0.981   1.883  16.456  0.7003 -1.0214  0.4396
 3156TIP3   OH230958   4.183   5.761   0.947  0.0257 -0.7455  0.5924
 3156TIP3    H130959   4.092   5.781   0.972 -0.3458 -1.9341  0.2394
 3156TIP3    H230960   4.190   5.666   0.956  1.0438 -0.7387 -0.0257
 3157TIP3   OH230961   3.255   1.400   2.894  0.0485 -0.1632  0.0522
 3157TIP3    H130962   3.210   1.328   2.938 -0.6895  0.0665 -0.3081
 3157TIP3    H230963   3.204   1.477   2.916  0.0107  0.0388 -0.7181
 3158TIP3   OH230964   1.995   0.748  11.166 -0.1355 -0.1073  0.3559
 3158TIP3    H130965   1.902   0.759  11.148  0.0323  0.0717 -0.4631
 3158TIP3    H230966   2.035   0.739  11.079  0.6028 -0.2193  0.7012
 3159TIP3   OH230967   4.845   2.803  15.607  0.5398 -0.4674  0.6350
 3159TIP3    H130968   4.850   2.786  15.513  1.5842  0.1165  0.5694
 3159TIP3    H230969   4.756   2.836  15.621  0.9042  1.0556 -0.4229
 3160TIP3   OH230970   2.891   0.084  15.058 -0.3360  0.0370  0.1065
 3160TIP3    H130971   2.916  -0.009  15.061 -0.7932 -0.0801  0.3739
 3160TIP3    H230972   2.818   0.091  15.120  0.1618  0.7191  0.6356
 3161TIP3   OH230973   0.564   1.469  12.838  0.4345 -0.2780 -0.1159
 3161TIP3    H130974   0.595   1.556  12.865 -1.1370  2.1038 -4.8685
 3161TIP3    H230975   0.643   1.420  12.818  1.3407  1.2798 -0.4906
 3162TIP3   OH230976   2.779   0.458   1.849 -0.2961 -0.2063 -0.1018
 3162TIP3    H130977   2.760   0.365   1.852 -1.4248  0.0128  0.0402
 3162TIP3    H230978   2.695   0.499   1.827 -0.2010  0.8752  1.4042
 3163TIP3   OH230979   2.554   4.363   4.317  0.0974 -0.0610  0.2878
 3163TIP3    H130980   2.548   4.269   4.335 -2.8474 -0.3848 -1.7469
 3163TIP3    H230981   2.616   4.369   4.243 -0.1904 -0.4758  0.0094
 3164TIP3   OH230982   4.106   0.485   3.713 -0.1605  0.2882 -0.6131
 3164TIP3    H130983   4.193   0.524   3.704  0.6407 -1.3759 -0.4430
 3164TIP3    H230984   4.072   0.484   3.623 -0.3501  1.6432 -0.5769
 3165TIP3   OH230985   5.231   0.423   2.402  0.1951 -0.0214 -0.5544
 3165TIP3    H130986   5.231   0.331   2.375  1.9542  0.7432 -3.6741
 3165TIP3    H230987   5.323   0.443   2.418 -0.2948  0.9513  1.3581
 3166TIP3   OH230988   0.044   3.497   2.983 -0.0411 -0.1308  0.1638
 3166TIP3    H130989  -0.043   3.463   2.961  0.0644 -0.8669  0.8729
 3166TIP3    H230990   0.044   3.586   2.947 -1.4032  0.2003  0.9023
 3167TIP3   OH230991   3.891   3.044  13.507 -0.7698 -0.0351 -0.1935
 3167TIP3    H130992   3.822   3.054  13.442 -2.2708  0.3882  1.4092
 3167TIP3    H230993   3.846   3.014  13.586  0.9692 -0.3304  0.7388
 3168TIP3   OH230994   4.544   5.592  14.640 -0.0012 -0.1517  0.4388
 3168TIP3    H130995   4.589   5.586  14.725  1.2007  0.9152 -0.0936
 3168TIP3    H230996   4.482   5.664  14.651 -1.6065 -1.5686  1.1456
 3169TIP3   OH230997   2.368   6.043   0.650  0.0053  0.7652 -0.1203
 3169TIP3    H130998   2.430   6.114   0.636  0.7588  0.9058  3.1174
 3169TIP3    H230999   2.286   6.087   0.672 -0.3529  0.5889 -1.0637
 3170TIP3   OH231000   3.689   1.576   5.108 -0.0698 -0.0051  0.0134
 3170TIP3    H131001   3.631   1.502   5.088 -0.2382 -0.0879  0.7931
 3170TIP3    H231002   3.774   1.549   5.072 -0.6531  0.4547 -1.8561
 3171TIP3   OH231003   1.827   1.700   0.165 -0.5681  0.3865 -0.6865
 3171TIP3    H131004   1.769   1.755   0.112 -0.7273  0.5103 -0.3891
 3171TIP3    H231005   1.888   1.661   0.102 -2.0033 -1.0708 -1.2632
 3172TIP3   OH231006   5.822   0.689  14.751  0.0676 -0.2683 -0.4215
 3172TIP3    H131007   5.779   0.669  14.668 -1.7059 -1.3469  0.7020
 3172TIP3    H231008   5.865   0.773  14.736 -3.4363  1.5518 -1.3256
 3173TIP3   OH231009   0.697   4.745  15.448 -0.0312  0.6358  0.2880
 3173TIP3    H131010   0.622   4.802  15.467  0.5708  0.9875  1.7983
 3173TIP3    H231011   0.771   4.790  15.488  0.3492 -1.5468  2.2196
 3174TIP3   OH231012   2.918   5.532   2.638  0.1805  0.3879 -0.3185
 3174TIP3    H131013   2.960   5.490   2.563  0.5271  1.9241 -1.0321
 3174TIP3    H231014   2.979   5.601   2.664  0.1990 -0.2680  1.5815
 3175TIP3   OH231015   0.885   1.978  13.596 -0.0390  0.5333  0.1479
 3175TIP3    H131016   0.877   2.011  13.506 -2.4198 -0.8408 -0.2266
 3175TIP3    H231017   0.909   1.886  13.585  2.0839  0.9132  1.0588
 3176TIP3   OH231018   6.600   4.344  14.067 -0.1940 -0.5572 -0.4124
 3176TIP3    H131019   6.595   4.249  14.079  0.6790 -0.6060 -0.3794
 3176TIP3    H231020   6.593   4.357  13.973  1.1472 -0.7696 -0.5573
 3177TIP3   OH231021   6.105   5.268   0.985 -0.5428  0.0622  0.3520
 3177TIP3    H131022   6.063   5.348   1.017  0.5977  1.1688 -0.7855
 3177TIP3    H231023   6.082   5.265   0.892 -1.1836 -1.3664  0.5349
 3178TIP3   OH231024   1.896   3.282  13.869  0.0917  0.2932 -0.7140
 3178TIP3    H131025   1.810   3.240  13.874  0.3216 -0.0871  0.3815
 3178TIP3    H231026   1.958   3.210  13.858  0.4857  0.2845  1.1260
 3179TIP3   OH231027   1.694   6.277   3.775 -0.8915  0.1949 -0.0778
 3179TIP3    H131028   1.682   6.307   3.865 -2.3735 -0.4942 -0.0118
 3179TIP3    H231029   1.661   6.187   3.775  3.2066 -1.5547 -0.2939
 3180TIP3   OH231030   6.473   0.506   5.468 -0.4737  0.4244  0.3538
 3180TIP3    H131031   6.569   0.509   5.461 -0.5797  0.5070 -2.1507
 3180TIP3    H231032   6.445   0.596   5.453 -0.9415  0.4391  1.2847
 3181TIP3   OH231033   2.632   5.218   1.192 -0.4554 -0.3503 -0.3838
 3181TIP3    H131034   2.650   5.126   1.210  0.1385 -0.1480  0.0716
 3181TIP3    H231035   2.549   5.217   1.143  0.8637 -1.3035 -2.7564
 3182TIP3   OH231036   2.816   6.647   0.527 -0.2181  0.1664  0.4812
 3182TIP3    H131037   2.740   6.630   0.472  0.2653 -1.2954  0.2209
 3182TIP3    H231038   2.873   6.701   0.472  0.0923 -0.9620 -0.3660
 3183TIP3   OH231039   6.446   2.596   4.489 -0.1210  0.0516  0.0566
 3183TIP3    H131040   6.447   2.548   4.406 -0.9798 -0.9821  0.6157
 3183TIP3    H231041   6.360   2.637   4.492  0.1988  0.7298  0.0906
 3184TIP3   OH231042   1.330   2.629  13.060  0.5045 -0.1932 -0.0240
 3184TIP3    H131043   1.235   2.631  13.075  0.7526  1.1949  1.5282
 3184TIP3    H231044   1.348   2.537  13.039 -1.1986 -0.4528 -0.5268
 3185TIP3   OH231045   3.607   1.487   2.912  0.0281 -0.2337  0.5777
 3185TIP3    H131046   3.612   1.572   2.955 -0.8243 -0.0913  0.4037
 3185TIP3    H231047   3.521   1.453   2.935 -0.4076 -0.2133 -0.9009
 3186TIP3   OH231048   3.145   5.706   2.652  0.4236  1.1875 -0.0636
 3186TIP3    H131049   3.127   5.740   2.565  0.0883  3.5407  0.8590
 3186TIP3    H231050   3.241   5.705   2.658  0.4389  1.4843 -0.2783
 3187TIP3   OH231051   3.758   2.581  13.817  0.1775 -0.4982 -0.2321
 3187TIP3    H131052   3.705   2.533  13.753 -0.8054  0.6486 -0.3138
 3187TIP3    H231053   3.809   2.643  13.764  0.3772 -0.4832 -0.0205
 3188TIP3   OH231054   1.005   6.409   4.264  0.2185 -0.5294  0.5180
 3188TIP3    H131055   1.039   6.421   4.175 -1.7347 -0.8608 -0.3300
 3188TIP3    H231056   1.063   6.462   4.319  0.3787  1.2183 -1.2053
 3189TIP3   OH231057   2.544   3.982   3.328 -0.1087  0.2280  0.1904
 3189TIP3    H131058   2.546   3.894   3.365  0.1857  0.6095  1.1164
 3189TIP3    H231059   2.540   4.040   3.405  0.1234  1.0265 -0.3879
 3190TIP3   OH231060   6.004   2.592   4.101 -0.1552  0.2021 -0.5822
 3190TIP3    H131061   6.088   2.635   4.084 -0.5457  1.1254 -0.2254
 3190TIP3    H231062   5.965   2.642   4.173 -0.5392 -0.8763 -0.0333
 3191TIP3   OH231063   5.633   3.850  12.387  0.7778  0.5596  0.0917
 3191TIP3    H131064   5.676   3.764  12.383 -0.9820 -0.3198 -1.4004
 3191TIP3    H231065   5.635   3.873  12.480  2.1893 -0.5996  0.3837
 3192TIP3   OH231066   0.028   2.165   0.682  0.7425 -0.9559  0.0559
 3192TIP3    H131067   0.017   2.148   0.589  0.9390  1.8909 -0.5660
 3192TIP3    H231068   0.112   2.210   0.689  0.2658 -0.2150  1.4722
 3193TIP3   OH231069   4.772   1.133   2.630 -0.3903  0.0770 -0.8663
 3193TIP3    H131070   4.739   1.186   2.702 -1.8264 -1.0791 -0.6256
 3193TIP3    H231071   4.814   1.058   2.673 -0.4243 -0.1477 -1.2242
 3194TIP3   OH231072   5.810   5.434   3.876 -0.2323 -0.5406  0.1851
 3194TIP3    H131073   5.827   5.378   3.800 -1.6477 -0.5581 -0.1430
 3194TIP3    H231074   5.743   5.387   3.926 -2.7485  1.5714 -0.9736
 3195TIP3   OH231075   6.410   4.801  11.903 -0.5654 -0.3487 -0.9517
 3195TIP3    H131076   6.350   4.746  11.852  0.7692 -1.9053 -0.9127
 3195TIP3    H231077   6.479   4.824  11.842  1.0072 -2.1567  0.0138
 3196TIP3   OH231078   2.413   5.919  16.661 -0.4605 -0.1777  0.2970
 3196TIP3    H131079   2.343   5.982  16.677  0.0733  0.2180  1.1402
 3196TIP3    H231080   2.485   5.972  16.625  0.3685 -0.0864  1.9851
 3197TIP3   OH231081   0.480   4.529  14.122  0.2192  0.2000 -0.0762
 3197TIP3    H131082   0.465   4.443  14.161  0.1743 -0.0726 -0.6862
 3197TIP3    H231083   0.426   4.529  14.043  0.4088  0.6953 -0.2062
 3198TIP3   OH231084   4.767   6.236  16.243  0.3847  0.2997 -0.1876
 3198TIP3    H131085   4.672   6.246  16.233  0.4233  0.1024 -0.8121
 3198TIP3    H231086   4.786   6.274  16.329 -0.4312 -0.7878  0.4932
 3199TIP3   OH231087   4.519   4.797  13.239  0.0185  0.3302  0.0757
 3199TIP3    H131088   4.490   4.777  13.328  1.4935  1.3013  0.8043
 3199TIP3    H231089   4.543   4.711  13.203 -2.8152 -0.4267 -0.3011
 3200TIP3   OH231090   2.476   0.884   0.846 -0.4032 -0.3261  0.1783
 3200TIP3    H131091   2.392   0.838   0.852 -0.2762 -0.5423  0.3039
 3200TIP3    H231092   2.471   0.951   0.914 -1.5200  1.3751 -1.4715
 3201TIP3   OH231093   4.461   5.869   3.951  0.0108 -0.1808 -0.5277
 3201TIP3    H131094   4.514   5.840   4.025 -0.6359 -0.3044 -0.1023
 3201TIP3    H231095   4.385   5.912   3.991  0.3727  1.0843 -1.1332
 3202TIP3   OH231096   0.577   2.779   1.913  0.3575  0.2706 -0.0533
 3202TIP3    H131097   0.541   2.699   1.874  3.1819 -0.4684 -1.4664
 3202TIP3    H231098   0.666   2.755   1.939  1.0265  2.7343  0.2155
 3203TIP3   OH231099   5.286   4.506   5.543  0.1396  0.2980 -0.3685
 3203TIP3    H131100   5.309   4.582   5.597 -0.8955  0.9373 -0.7869
 3203TIP3    H231101   5.273   4.541   5.455  0.5157 -0.5163 -0.7604
 3204TIP3   OH231102   4.581   5.804  10.688 -0.1894 -0.4355 -0.0361
 3204TIP3    H131103   4.519   5.738  10.718  0.6803 -1.0204  0.5505
 3204TIP3    H231104   4.538   5.888  10.704 -0.7044 -0.8209  0.6305
 3205TIP3   OH231105   5.035   4.099  15.162 -0.3865 -0.1321  1.0069
 3205TIP3    H131106   4.942   4.089  15.181 -0.3077  1.8007  2.7914
 3205TIP3    H231107   5.056   4.026  15.104 -2.4718 -1.9716  2.4339
 3206TIP3   OH231108   5.590   3.902   0.253  0.6657  0.3381  0.2587
 3206TIP3    H131109   5.613   3.924   0.162 -3.0427 -0.1269 -0.9497
 3206TIP3    H231110   5.569   3.809   0.251 -2.4257  0.9233  0.7636
 3207TIP3   OH231111   4.147   3.626  16.569  0.1018  0.2957 -0.1567
 3207TIP3    H131112   4.154   3.547  16.515 -0.2923  0.2260 -0.1094
 3207TIP3    H231113   4.109   3.595  16.652 -0.7952  0.6561 -0.4196
 3208TIP3   OH231114   3.509   1.066   3.840  0.2755 -0.9270 -0.3885
 3208TIP3    H131115   3.597   1.096   3.860  0.6365 -2.0746 -0.2173
 3208TIP3    H231116   3.518   1.018   3.757 -0.2872 -0.6118 -0.6409
 3209TIP3   OH231117   0.355   6.249  11.543  0.0554 -0.2417  0.0494
 3209TIP3    H131118   0.314   6.323  11.586 -1.8917 -1.4644  0.4402
 3209TIP3    H231119   0.356   6.272  11.450  1.5016  1.1485  0.3815
 3210TIP3   OH231120   3.443   5.289  16.607  0.5691  0.1387 -0.3720
 3210TIP3    H131121   3.380   5.241  16.552 -0.5488 -0.2066  1.1429
 3210TIP3    H231122   3.483   5.353  16.547 -0.7673 -0.0560 -1.5318
 3211TIP3   OH231123   6.518   6.086  13.262 -0.1872 -0.4116  0.3063
 3211TIP3    H131124   6.529   6.059  13.353 -1.2526  0.0731  0.5916
 3211TIP3    H231125   6.516   6.182  13.265  0.1820 -0.3794 -0.2804
 3212TIP3   OH231126   5.846   5.097   4.082 -0.1925 -0.3461  0.4105
 3212TIP3    H131127   5.901   5.167   4.118  1.7058 -1.2960 -0.5077
 3212TIP3    H231128   5.771   5.094   4.140 -0.2222  2.2635  0.6576
 3213TIP3   OH231129   2.912   4.908  11.322  0.2807  0.4583  0.6335
 3213TIP3    H131130   2.990   4.866  11.358  1.7340  0.8103 -1.8363
 3213TIP3    H231131   2.868   4.839  11.272  1.1376  1.1083 -1.0988
 3214TIP3   OH231132   0.592   5.189   1.433  0.2323  0.0016  0.3637
 3214TIP3    H131133   0.680   5.205   1.398  0.1089 -0.4439 -0.1767
 3214TIP3    H231134   0.591   5.095   1.453 -0.2357 -0.0749  0.0114
 3215TIP3   OH231135   3.393   4.048  15.036 -0.1300 -0.1154 -0.1245
 3215TIP3    H131136   3.373   4.097  15.116 -2.7859 -0.5446 -0.4334
 3215TIP3    H231137   3.447   3.975  15.066 -1.9076 -0.8497  1.5130
 3216TIP3   OH231138   3.628   2.558   5.039 -0.3213 -0.2973  0.2289
 3216TIP3    H131139   3.722   2.544   5.032 -0.2431  0.2164  0.1597
 3216TIP3    H231140   3.589   2.487   4.989  0.0302 -0.4790  0.2061
 3217TIP3   OH231141   2.415   0.916  14.179  0.4122  0.7728 -0.0213
 3217TIP3    H131142   2.487   0.978  14.190  0.4823  0.5704  0.7013
 3217TIP3    H231143   2.417   0.862  14.257 -1.1410  1.3963  0.5024
 3218TIP3   OH231144   4.922   3.118  14.322 -0.4676 -0.0565  0.2385
 3218TIP3    H131145   5.009   3.128  14.286 -0.9029  1.6122 -0.4360
 3218TIP3    H231146   4.895   3.029  14.298 -0.1494  0.4556 -2.2630
 3219TIP3   OH231147   0.366   0.179   2.661  0.3422 -0.3797  0.5656
 3219TIP3    H131148   0.323   0.187   2.746  1.0998  1.2576  0.8258
 3219TIP3    H231149   0.404   0.265   2.645 -0.6310 -0.3275 -1.9072
 3220TIP3   OH231150   1.374   3.198  15.166 -0.4209  0.3973  0.0586
 3220TIP3    H131151   1.392   3.272  15.223  1.2687 -0.8095  1.1925
 3220TIP3    H231152   1.442   3.202  15.099  0.4126 -0.7226  0.7943
 3221TIP3   OH231153   0.241   5.651   0.189 -0.2336  0.8100  0.6017
 3221TIP3    H131154   0.194   5.569   0.204  0.9501  0.0144  0.1458
 3221TIP3    H231155   0.178   5.707   0.144 -1.8615  1.0738  3.0521
 3222TIP3   OH231156   4.126   6.362  13.911  0.6388  0.2892  0.0046
 3222TIP3    H131157   4.205   6.308  13.902  1.0174  0.6642  0.9747
 3222TIP3    H231158   4.102   6.384  13.821  1.9130  0.5611 -0.2931
 3223TIP3   OH231159   6.266   3.660   3.284 -0.1175  0.2721  0.0059
 3223TIP3    H131160   6.290   3.740   3.330 -0.3770 -0.4365  1.4271
 3223TIP3    H231161   6.217   3.609   3.348  0.1791 -1.1025 -0.8133
 3224TIP3   OH231162   6.804   0.183   3.953 -0.0949  0.0833  0.3478
 3224TIP3    H131163   6.789   0.146   3.866 -1.1114 -0.2052  0.6327
 3224TIP3    H231164   6.833   0.109   4.006 -2.9576 -0.6238  1.1388
 3225TIP3   OH231165   3.998   2.453   5.616 -0.3543  0.0905  0.1432
 3225TIP3    H131166   3.948   2.500   5.683 -1.7295 -1.8998  0.6067
 3225TIP3    H231167   4.075   2.418   5.663 -1.0640 -0.8872  0.6224
 3226TIP3   OH231168   1.587   2.190   0.103  0.2675 -0.1880 -0.0262
 3226TIP3    H131169   1.581   2.248   0.179  0.6314  1.1923 -1.0157
 3226TIP3    H231170   1.522   2.122   0.120 -1.3190  1.3776  0.4409
 3227TIP3   OH231171   5.472   1.610  14.737 -0.2319  0.5130  0.1296
 3227TIP3    H131172   5.507   1.528  14.771 -0.3016  0.9765  1.4165
 3227TIP3    H231173   5.505   1.677  14.798  0.1015  1.4799 -1.0855
 3228TIP3   OH231174   2.836   2.332  12.606 -0.2506 -0.5793 -0.4344
 3228TIP3    H131175   2.814   2.252  12.557  0.1363 -1.5153  0.8452
 3228TIP3    H231176   2.923   2.356  12.575  0.3418 -1.6372  0.3100
 3229TIP3   OH231177   5.897   1.319   3.868  0.0341 -0.6674 -0.6653
 3229TIP3    H131178   5.926   1.262   3.939 -1.1001 -1.4963 -0.8373
 3229TIP3    H231179   5.913   1.408   3.900 -0.4622 -1.0211  0.6282
 3230TIP3   OH231180   3.284   0.053  11.304 -0.0835 -0.8824  0.0508
 3230TIP3    H131181   3.323   0.132  11.265  2.6846 -1.4923  1.3001
 3230TIP3    H231182   3.358  -0.006  11.317 -1.8514 -3.1365  0.5241
 3231TIP3   OH231183   3.766   5.377  12.518 -0.5264  0.4318  0.0671
 3231TIP3    H131184   3.809   5.439  12.577 -1.3745  0.2647  0.8712
 3231TIP3    H231185   3.817   5.297  12.527 -0.7239  0.3672  0.6848
 3232TIP3   OH231186   1.467   6.409  13.133  0.2931  0.1012 -0.0749
 3232TIP3    H131187   1.489   6.316  13.133 -1.4147 -0.3577 -1.2887
 3232TIP3    H231188   1.537   6.451  13.184  1.9104 -1.6412 -0.7506
 3233TIP3   OH231189   5.549   4.621  12.762  0.4183 -0.1884 -0.3316
 3233TIP3    H131190   5.569   4.536  12.723 -0.4326 -0.0853 -1.0289
 3233TIP3    H231191   5.613   4.681  12.722 -0.6242 -0.0265 -1.8531
 3234TIP3   OH231192   2.866   3.130  14.577 -0.3493  0.7709  0.3146
 3234TIP3    H131193   2.919   3.076  14.636 -0.0814 -0.9242 -1.3734
 3234TIP3    H231194   2.879   3.220  14.607  1.9419  0.2222  1.1274
 3235TIP3   OH231195   3.938   4.333   3.445 -0.5831 -0.1895 -0.3320
 3235TIP3    H131196   3.958   4.344   3.352 -0.7894  1.2041 -0.2372
 3235TIP3    H231197   3.990   4.257   3.472 -0.5083 -0.6039 -1.5720
 3236TIP3   OH231198   2.637   6.124  16.529  0.2228  0.0781  0.3656
 3236TIP3    H131199   2.670   6.214  16.522 -0.7256  0.3479 -0.7806
 3236TIP3    H231200   2.684   6.076  16.461 -0.7521  0.1668 -0.3815
 3237TIP3   OH231201   0.388   4.277  14.502  0.3243  0.0675 -0.3423
 3237TIP3    H131202   0.296   4.302  14.513  0.5395  0.1682  1.4957
 3237TIP3    H231203   0.436   4.359  14.502  0.4907 -0.0271 -0.6232
 3238TIP3   OH231204   5.810   6.375   4.151 -0.2630  0.2505 -0.4511
 3238TIP3    H131205   5.844   6.463   4.133 -3.0148  0.8817 -3.5551
 3238TIP3    H231206   5.875   6.316   4.113  0.5772  1.0425 -0.2810
 3239TIP3   OH231207   2.201   6.092   5.744  0.3116  0.1609 -0.4015
 3239TIP3    H131208   2.173   6.051   5.662  2.5016  0.1695 -1.2363
 3239TIP3    H231209   2.187   6.024   5.810 -2.2363  0.4308 -0.5883
 3240TIP3   OH231210   6.513   1.999  15.515 -0.1547  0.1965  0.4350
 3240TIP3    H131211   6.521   2.008  15.610  0.0318  2.2798  0.2741
 3240TIP3    H231212   6.599   1.966  15.487 -0.0155  0.1251  0.9423
 3241TIP3   OH231213   1.655   6.571  13.248 -0.7547  0.3424 -0.1120
 3241TIP3    H131214   1.698   6.628  13.312  1.1608 -2.2528  1.0833
 3241TIP3    H231215   1.708   6.581  13.168 -1.3510  1.3247 -0.4045
 3242TIP3   OH231216   3.168   6.360   3.105  0.1896 -0.1200  0.1243
 3242TIP3    H131217   3.172   6.448   3.143  0.9152 -1.3202  3.0613
 3242TIP3    H231218   3.245   6.355   3.049 -0.0871  1.2178 -0.4255
 3243TIP3   OH231219   2.214   5.201   5.971  0.0533 -0.2328  0.1136
 3243TIP3    H131220   2.293   5.158   6.004  1.0579  0.4107 -1.3405
 3243TIP3    H231221   2.144   5.172   6.031  1.5584  0.0816  2.1366
 3244TIP3   OH231222   4.157   3.397  14.236  0.1761  0.2441  0.3278
 3244TIP3    H131223   4.187   3.316  14.278 -0.0277 -0.7976 -1.4279
 3244TIP3    H231224   4.069   3.410  14.269 -1.0227 -2.0515 -1.6558
 3245TIP3   OH231225   3.467   2.815   0.419  0.4445 -0.0209  0.0394
 3245TIP3    H131226   3.538   2.757   0.448 -0.3935 -0.9503  0.2735
 3245TIP3    H231227   3.509   2.901   0.410  1.6294 -0.5728  0.0483
 3246TIP3   OH231228   5.727   3.949   2.999 -0.0836  0.1255 -0.1986
 3246TIP3    H131229   5.660   3.934   3.067  1.2507 -3.7295  0.5042
 3246TIP3    H231230   5.697   3.897   2.925  1.1843 -0.0586 -0.5924
 3247TIP3   OH231231   6.466   6.568  14.725 -0.4638 -0.0594 -0.0279
 3247TIP3    H131232   6.413   6.489  14.724 -0.3237 -0.1637  0.3613
 3247TIP3    H231233   6.462   6.601  14.636 -1.2410 -0.0197  0.0158
 3248TIP3   OH231234   2.992   4.765  15.091  0.2861 -0.0917  0.0592
 3248TIP3    H131235   3.053   4.692  15.096  1.7109  1.0725  0.3754
 3248TIP3    H231236   2.915   4.736  15.140  1.3982 -0.8349  1.4375
 3249TIP3   OH231237   3.490   6.761  13.276  0.5892 -0.2727  0.0808
 3249TIP3    H131238   3.573   6.713  13.271  1.2343  0.7691  0.6618
 3249TIP3    H231239   3.500   6.833  13.215  0.3911  0.2826  0.6971
 3250TIP3   OH231240   1.829   3.711   4.451  0.5777 -0.5293 -0.3470
 3250TIP3    H131241   1.909   3.731   4.500  1.2473  1.5245 -2.0922
 3250TIP3    H231242   1.859   3.692   4.362 -0.7873 -1.0799 -0.7234
 3251TIP3   OH231243   2.618   2.545   3.731 -0.0688 -0.1594 -0.0679
 3251TIP3    H131244   2.713   2.562   3.729  0.3306 -2.1300  0.2515
 3251TIP3    H231245   2.578   2.631   3.716  1.7697  0.5931 -0.9532
 3252TIP3   OH231246   4.379   5.793  15.850 -0.0099 -0.2178  0.2284
 3252TIP3    H131247   4.462   5.747  15.866  0.0581  0.3497  1.6219
 3252TIP3    H231248   4.387   5.827  15.761  0.0623 -2.6081 -0.7492
 3253TIP3   OH231249   4.834   1.589  13.706 -0.2908  0.6348 -0.3396
 3253TIP3    H131250   4.810   1.501  13.737 -0.4830 -0.0575 -2.2567
 3253TIP3    H231251   4.761   1.644  13.733 -0.8404 -0.0939 -0.2832
 3254TIP3   OH231252   6.210   6.386  11.448 -0.1990  0.1265  0.3841
 3254TIP3    H131253   6.119   6.389  11.417  0.0219  2.5692 -0.2400
 3254TIP3    H231254   6.262   6.364  11.371  0.0935  3.4772 -0.5258
 3255TIP3   OH231255   0.471   0.714   2.013 -0.9031  0.0401  0.0059
 3255TIP3    H131256   0.436   0.628   2.036  0.1360 -0.7382 -1.1713
 3255TIP3    H231257   0.473   0.714   1.917 -2.7223  2.1653 -0.0995
 3256TIP3   OH231258   0.584   1.226   3.180 -0.1492 -0.0208  0.0136
 3256TIP3    H131259   0.609   1.234   3.088 -0.6925  3.1422  0.0024
 3256TIP3    H231260   0.495   1.191   3.178 -0.8621  1.7111 -0.8646
 3257TIP3   OH231261   1.160   0.445  11.500  0.1971 -0.5345 -0.5035
 3257TIP3    H131262   1.167   0.538  11.478 -1.0969 -0.3189 -0.1227
 3257TIP3    H231263   1.087   0.414  11.447  0.4567 -1.2732 -0.4346
 3258TIP3   OH231264   3.073   1.308   2.252 -0.4013 -0.4301  0.1016
 3258TIP3    H131265   3.057   1.361   2.330  1.0498  0.4951 -0.1997
 3258TIP3    H231266   3.075   1.371   2.180  1.1752 -0.8814 -0.2884
 3259TIP3   OH231267   2.310   1.615   2.566  0.2234  0.4358 -0.0967
 3259TIP3    H131268   2.243   1.668   2.608  0.3607  0.5463 -0.0154
 3259TIP3    H231269   2.384   1.618   2.627  0.0782 -0.2038  0.1168
 3260TIP3   OH231270   2.288   6.610   2.291 -0.3821  0.4470  0.1470
 3260TIP3    H131271   2.240   6.609   2.374 -0.7940  0.4296 -0.0917
 3260TIP3    H231272   2.328   6.523   2.285 -0.0317  0.5801  0.5130
 3261TIP3   OH231273   4.780   2.533  13.728  0.3119 -0.1665 -0.5654
 3261TIP3    H131274   4.845   2.565  13.665  1.3137 -2.1740 -0.6484
 3261TIP3    H231275   4.819   2.453  13.764 -0.7766  0.2554  1.7293
 3262TIP3   OH231276   0.166   6.287  14.335  0.0081  0.1882  0.6273
 3262TIP3    H131277   0.214   6.322  14.410 -0.1205  0.3912  0.6161
 3262TIP3    H231278   0.215   6.209  14.310  0.0411  0.1084  0.9345
 3263TIP3   OH231279   1.286   1.894  12.772  0.1414  0.0308 -0.8502
 3263TIP3    H131280   1.285   1.988  12.787 -0.9536  0.1270 -1.4215
 3263TIP3    H231281   1.376   1.867  12.794  0.4508  1.1841 -0.6282
 3264TIP3   OH231282   3.090   3.367  17.259  0.1104  0.3003  0.1560
 3264TIP3    H131283   3.124   3.421  17.330 -0.2477 -1.3928  1.6948
 3264TIP3    H231284   3.005   3.405  17.239  0.9016  1.7850 -0.5427
 3265TIP3   OH231285   6.115   2.066   0.499 -1.1974  0.4282  0.0544
 3265TIP3    H131286   6.178   2.004   0.535 -0.1546  1.8740  0.8287
 3265TIP3    H231287   6.059   2.089   0.573 -2.6807 -0.8169 -0.6182
 3266TIP3   OH231288   3.786   4.464  14.695 -0.6600  0.0347 -0.2192
 3266TIP3    H131289   3.723   4.489  14.763  0.1636 -0.0508  0.5886
 3266TIP3    H231290   3.735   4.465  14.614 -1.4004  1.2305  0.2352
 3267TIP3   OH231291   2.040   5.331  12.637  0.0457 -0.1087 -0.0949
 3267TIP3    H131292   1.963   5.385  12.620  0.0421  0.2513  0.9687
 3267TIP3    H231293   2.102   5.390  12.680 -0.0507 -0.9864  1.3279
 3268TIP3   OH231294   1.407   6.824   4.195  0.3356  0.3941 -0.2874
 3268TIP3    H131295   1.450   6.775   4.265  1.4479  1.5548 -0.1094
 3268TIP3    H231296   1.453   6.798   4.116  0.4300  0.5791 -0.2946
 3269TIP3   OH231297   0.941   5.773  14.512  0.1887 -0.2339 -0.2038
 3269TIP3    H131298   0.904   5.786  14.599  2.3370  1.1777  0.5830
 3269TIP3    H231299   0.991   5.692  14.519  0.4545 -0.0593 -0.1019
 3270TIP3   OH231300   3.987   2.766   0.541  0.3079  0.4629 -0.2776
 3270TIP3    H131301   3.981   2.760   0.445 -0.0060  1.6889 -0.3502
 3270TIP3    H231302   4.046   2.695   0.565 -3.7365 -3.5237 -0.8044
 3271TIP3   OH231303   2.125   1.380  13.484 -0.3687  0.4649  0.1723
 3271TIP3    H131304   2.116   1.460  13.432 -1.1855  0.2092 -0.0856
 3271TIP3    H231305   2.104   1.406  13.573  0.5727  0.8011  0.3073
 3272TIP3   OH231306   4.333   4.963   1.694  0.6019  0.3368 -0.1830
 3272TIP3    H131307   4.388   5.026   1.742  0.3643  0.0280  0.5106
 3272TIP3    H231308   4.251   5.011   1.679  0.2893  0.0954  0.6563
 3273TIP3   OH231309   6.629   3.127  14.822  0.0772  0.7149  0.3402
 3273TIP3    H131310   6.660   3.085  14.902  0.4472  0.5457  0.1112
 3273TIP3    H231311   6.603   3.055  14.765  0.4443  0.8002  0.0558
 3274TIP3   OH231312   0.638   2.802  12.469 -0.3467 -0.1037 -0.2163
 3274TIP3    H131313   0.610   2.750  12.544  0.6661  0.7010  0.7634
 3274TIP3    H231314   0.630   2.893  12.498 -0.2485  0.2332 -1.1965
 3275TIP3   OH231315   4.424   0.239   5.077  0.0289  0.3974  0.3478
 3275TIP3    H131316   4.373   0.183   5.019  2.6287 -0.7421 -0.9636
 3275TIP3    H231317   4.394   0.215   5.165 -0.7951 -1.1197 -0.2988
 3276TIP3   OH231318   5.841   6.405   0.755  0.0603 -0.4158 -0.3623
 3276TIP3    H131319   5.754   6.425   0.721  0.0148 -0.1623 -0.1022
 3276TIP3    H231320   5.860   6.477   0.816 -0.7688 -1.9293  1.8253
 3277TIP3   OH231321   0.167   1.843  12.098  0.1755  0.4451 -0.0052
 3277TIP3    H131322   0.096   1.796  12.054 -0.4296 -0.3025  1.7016
 3277TIP3    H231323   0.247   1.800  12.066 -0.3685 -2.2629  1.9071
 3278TIP3   OH231324   5.503   1.031   3.587  0.5099 -0.1401 -0.0500
 3278TIP3    H131325   5.422   0.997   3.625  1.4935 -1.7336  0.7081
 3278TIP3    H231326   5.482   1.121   3.561 -1.1531 -0.1329  1.2119
 3279TIP3   OH231327   5.786   3.800  13.682  0.3130  0.0135 -0.6948
 3279TIP3    H131328   5.743   3.742  13.619 -0.5626  0.9674 -1.0021
 3279TIP3    H231329   5.821   3.741  13.749 -0.4787 -0.8730 -1.0369
 3280TIP3   OH231330   6.154   3.548   3.057  0.2466  0.4193 -0.1334
 3280TIP3    H131331   6.192   3.611   3.118 -1.5558  1.8581 -0.4181
 3280TIP3    H231332   6.117   3.601   2.987 -0.5435 -1.0158 -0.8556
 3281TIP3   OH231333   2.986   5.341  11.854 -0.0163 -0.1376 -0.6014
 3281TIP3    H131334   2.968   5.262  11.904  1.6275  1.5131  3.0142
 3281TIP3    H231335   2.910   5.397  11.869  0.2795  0.1884 -0.2811
 3282TIP3   OH231336   4.949   1.784   2.166 -0.3277  0.0416  0.1303
 3282TIP3    H131337   4.954   1.839   2.087 -1.6371  0.5165  0.3584
 3282TIP3    H231338   5.009   1.712   2.148  0.8380  1.1214 -0.5102
 3283TIP3   OH231339   6.608   1.460  14.017 -0.0867  0.1429  0.0704
 3283TIP3    H131340   6.579   1.440  14.106 -0.5987  0.8825  0.0730
 3283TIP3    H231341   6.559   1.399  13.962  0.8368 -0.8944  0.3351
 3284TIP3   OH231342   4.563   2.048   1.181 -0.0284 -0.6130  0.0382
 3284TIP3    H131343   4.475   2.015   1.161  0.0740  0.0716 -1.7153
 3284TIP3    H231344   4.601   1.980   1.237 -0.2419 -2.9826 -2.4423
 3285TIP3   OH231345   5.801   0.465   4.574 -0.6157 -0.2764  0.7873
 3285TIP3    H131346   5.801   0.549   4.528  0.7032 -0.9863 -0.5807
 3285TIP3    H231347   5.766   0.403   4.510 -0.0461 -1.0461  1.2100
 3286TIP3   OH231348   3.313   5.200  13.146  0.8697  0.3479 -0.0619
 3286TIP3    H131349   3.261   5.257  13.090 -0.4847 -2.0141 -1.3689
 3286TIP3    H231350   3.253   5.171  13.215  2.1977  2.2818  2.0706
 3287TIP3   OH231351   0.614   2.466   5.960  0.3495 -0.2913  0.4341
 3287TIP3    H131352   0.611   2.400   6.028  0.5489 -0.2231  0.5113
 3287TIP3    H231353   0.591   2.419   5.879 -0.2224 -0.2983  0.5987
 3288TIP3   OH231354   3.501   1.040  14.873  0.0844  0.1073  0.8569
 3288TIP3    H131355   3.594   1.041  14.896  0.3110 -2.4402  0.3162
 3288TIP3    H231356   3.463   0.975  14.933 -1.2695  0.7687  0.7441
 3289TIP3   OH231357   3.947   3.022   0.305 -0.5575  0.1186 -0.1458
 3289TIP3    H131358   3.904   3.018   0.219 -0.2591 -1.8782 -0.2638
 3289TIP3    H231359   4.036   2.989   0.288 -0.1784  0.6587  0.7588
 3290TIP3   OH231360   3.510   2.304   3.372  0.0541  0.5529 -0.6591
 3290TIP3    H131361   3.565   2.382   3.386  1.1084 -0.4973  1.7132
 3290TIP3    H231362   3.561   2.248   3.314  0.7688  0.3103  0.1811
 3291TIP3   OH231363   3.057   2.377   4.849  0.8905 -0.2820 -0.5913
 3291TIP3    H131364   2.983   2.362   4.790 -0.4353  1.5242  0.4899
 3291TIP3    H231365   3.068   2.472   4.850  0.4018 -0.1496  2.5152
 3292TIP3   OH231366   0.620   3.302  15.827  0.0025 -0.1836 -0.1797
 3292TIP3    H131367   0.560   3.236  15.863  0.8383 -0.3595  0.9482
 3292TIP3    H231368   0.670   3.332  15.903  1.7127 -0.4248 -1.1698
 3293TIP3   OH231369   1.628   5.186   1.468  0.1840 -0.0350 -0.3538
 3293TIP3    H131370   1.622   5.232   1.552  0.3771  0.3038 -0.5232
 3293TIP3    H231371   1.715   5.147   1.468  0.1322 -0.1514 -0.3384
 3294TIP3   OH231372   1.415   4.125  12.566 -0.0466  0.3172 -0.0633
 3294TIP3    H131373   1.340   4.066  12.574  0.3510 -0.0755  0.9860
 3294TIP3    H231374   1.487   4.077  12.608  0.4060  1.3448  0.3591
 3295TIP3   OH231375   6.786   6.225  13.411  0.2245  0.0111 -0.4422
 3295TIP3    H131376   6.859   6.271  13.454 -0.9141  1.5690 -0.1015
 3295TIP3    H231377   6.775   6.271  13.328  1.3396 -1.9459 -1.7519
 3296TIP3   OH231378   4.502   1.540  12.884 -0.7773 -0.0271 -0.2214
 3296TIP3    H131379   4.546   1.480  12.823 -2.5383 -0.7228 -0.8702
 3296TIP3    H231380   4.463   1.606  12.827 -0.1620  0.8792  0.3845
 3297TIP3   OH231381   5.784   6.321   2.546 -0.3838  0.0877 -0.0658
 3297TIP3    H131382   5.712   6.320   2.483 -0.8290 -0.7301  0.4358
 3297TIP3    H231383   5.806   6.228   2.560  0.6575  0.3145 -0.0839
 3298TIP3   OH231384   1.447   0.291  14.005 -0.0830  0.6500  0.1358
 3298TIP3    H131385   1.462   0.343  13.926 -1.3346  1.2173  0.2478
 3298TIP3    H231386   1.425   0.355  14.072 -0.4586  0.0743  0.5724
 3299TIP3   OH231387   2.851   6.175   2.328  0.2389 -0.0270  0.3893
 3299TIP3    H131388   2.786   6.225   2.376  0.2325  0.0544  0.2967
 3299TIP3    H231389   2.847   6.210   2.239 -0.0900 -0.5167  0.2161
 3300TIP3   OH231390   6.273   0.776   3.639 -0.6628  0.2153  0.6440
 3300TIP3    H131391   6.210   0.710   3.611 -0.1015 -0.3256  0.6265
 3300TIP3    H231392   6.358   0.732   3.635 -0.2195  1.0652  0.2175
 3301TIP3   OH231393   5.765   4.674  13.765  0.2127  0.4283 -0.2360
 3301TIP3    H131394   5.741   4.615  13.836 -1.3514  1.1918 -0.1120
 3301TIP3    H231395   5.859   4.659  13.754  1.5994  3.2556  4.7879
 3302TIP3   OH231396   5.559   5.907  15.837  0.3689 -0.6596 -0.2458
 3302TIP3    H131397   5.570   5.897  15.742  0.7151 -1.9004 -0.0988
 3302TIP3    H231398   5.632   5.963  15.864 -1.5380  2.4562 -1.1121
 3303TIP3   OH231399   5.744   5.031   4.949 -0.1403  0.0378  0.0899
 3303TIP3    H131400   5.673   4.975   4.919 -0.8473  0.8807  0.1300
 3303TIP3    H231401   5.773   4.991   5.031 -2.1446  0.9101  1.3059
 3304TIP3   OH231402   0.828   4.683  14.273 -0.0925  0.4049  0.8873
 3304TIP3    H131403   0.772   4.691  14.196  1.1283 -0.7499 -0.1782
 3304TIP3    H231404   0.847   4.589  14.279 -0.0959  0.4813  2.5669
 3305TIP3   OH231405   6.253   1.729   2.080  0.0462 -0.2190  0.0724
 3305TIP3    H131406   6.238   1.653   2.137 -0.0534  0.1910  0.5929
 3305TIP3    H231407   6.302   1.791   2.133 -2.5208  1.4007  0.7582
 3306TIP3   OH231408   3.044   4.582   2.268 -0.9968  0.3940  0.5863
 3306TIP3    H131409   2.950   4.598   2.260 -1.0465 -0.4406 -1.0300
 3306TIP3    H231410   3.076   4.584   2.178  0.1669 -1.3640  0.9083
 3307TIP3   OH231411   0.993   3.765  12.627 -0.2597 -0.5938 -0.2105
 3307TIP3    H131412   1.010   3.859  12.617  0.8688 -0.5626  1.4633
 3307TIP3    H231413   0.899   3.759  12.641 -0.6309  0.0727 -2.0901
 3308TIP3   OH231414   0.127   6.137   1.850 -0.3346  0.3341  0.0836
 3308TIP3    H131415   0.123   6.181   1.935  0.6677  1.3003 -0.3329
 3308TIP3    H231416   0.056   6.176   1.799 -2.5830 -2.0150  1.1959
 3309TIP3   OH231417   3.001   3.169   2.987 -0.3500 -0.0056 -0.6432
 3309TIP3    H131418   2.969   3.249   3.030  0.6596 -0.5130  1.1486
 3309TIP3    H231419   3.085   3.194   2.949 -0.0665 -0.2017 -0.1424
 3310TIP3   OH231420   5.778   5.784  10.942  0.2739  0.0719 -0.9565
 3310TIP3    H131421   5.846   5.718  10.933  0.4595 -0.1870  1.4727
 3310TIP3    H231422   5.785   5.838  10.864  2.3997 -0.7327 -1.3783
 3311TIP3   OH231423   5.136   5.845  15.281 -0.3311  0.5307 -0.2218
 3311TIP3    H131424   5.163   5.935  15.296 -0.8719  0.5134  0.9377
 3311TIP3    H231425   5.048   5.839  15.318 -0.7061 -0.2172 -1.1769
 3312TIP3   OH231426   0.815   4.065   4.163 -0.2822 -0.2175 -0.0741
 3312TIP3    H131427   0.735   4.073   4.215 -0.4274  0.9730 -0.4695
 3312TIP3    H231428   0.867   4.142   4.186 -0.1499  0.0925 -1.3523
 3313TIP3   OH231429   2.832   4.428   1.234  0.5239  0.4020  0.0569
 3313TIP3    H131430   2.915   4.444   1.278  0.5503  1.7167 -0.4230
 3313TIP3    H231431   2.779   4.381   1.299  1.9459 -1.3350  0.0319
 3314TIP3   OH231432   4.811   2.783   1.434  0.1929  0.3638 -0.0037
 3314TIP3    H131433   4.781   2.838   1.361  2.4852  1.0967 -0.4996
 3314TIP3    H231434   4.820   2.843   1.507  1.7581  0.4929 -0.2729
 3315TIP3   OH231435   4.357   6.800   2.389 -0.0475 -0.2553  0.3177
 3315TIP3    H131436   4.359   6.857   2.465  0.5210 -0.2366  0.2904
 3315TIP3    H231437   4.396   6.718   2.420  0.2535 -0.2221  0.0281
 3316TIP3   OH231438   5.825   4.366   3.638  0.0196 -0.5687  0.1767
 3316TIP3    H131439   5.773   4.381   3.718  0.3156 -0.8571  0.4257
 3316TIP3    H231440   5.897   4.429   3.644  0.7160 -1.3873  0.7407
 3317TIP3   OH231441   0.650   1.391   1.060  0.5951 -0.3120  0.0644
 3317TIP3    H131442   0.742   1.377   1.082  0.1521 -0.5054  1.9816
 3317TIP3    H231443   0.611   1.303   1.063 -0.3477  0.1009  2.9757
 3318TIP3   OH231444   2.221   4.316  11.932 -0.3728 -0.3320 -0.7746
 3318TIP3    H131445   2.148   4.332  11.873 -1.1127  0.8761  0.4248
 3318TIP3    H231446   2.245   4.225  11.915 -1.9908 -0.6852 -1.3779
 3319TIP3   OH231447   0.930   4.323  13.957  0.2845 -0.7893 -0.0866
 3319TIP3    H131448   0.900   4.314  13.867 -1.9277  0.1674  0.4858
 3319TIP3    H231449   0.882   4.255  14.005 -0.7780  0.5581  0.8180
 3320TIP3   OH231450   5.316   4.399  11.915  0.7536  0.4643 -0.0911
 3320TIP3    H131451   5.376   4.335  11.954 -0.8825 -0.1384  1.6060
 3320TIP3    H231452   5.361   4.429  11.836  1.8471 -2.3932 -0.6870
 3321TIP3   OH231453   5.636   0.988   5.567  0.3412  1.0234  0.4609
 3321TIP3    H131454   5.657   0.896   5.584  0.5577  1.2030  1.2087
 3321TIP3    H231455   5.540   0.991   5.563  0.3645  0.5450 -0.9255
 3322TIP3   OH231456   3.809   2.766   3.830 -0.5383  0.1770  0.5304
 3322TIP3    H131457   3.805   2.672   3.815  0.1629  0.2091  0.1142
 3322TIP3    H231458   3.733   2.785   3.884  0.3631 -0.9424  2.2868
 3323TIP3   OH231459   4.062   4.115   2.369 -0.2317  0.0925  0.0394
 3323TIP3    H131460   4.090   4.205   2.355  1.7703 -0.4137  0.5330
 3323TIP3    H231461   4.123   4.062   2.317 -1.2384 -1.0106 -0.0730
 3324TIP3   OH231462   0.428   6.466  12.476 -0.0098 -0.8150 -0.1540
 3324TIP3    H131463   0.440   6.372  12.472  0.0940 -0.7873 -0.5138
 3324TIP3    H231464   0.474   6.493  12.556 -0.1642 -1.0846  0.0287
 3325TIP3   OH231465   5.036   0.677  13.455 -0.8051  0.5657  0.1292
 3325TIP3    H131466   5.003   0.762  13.481 -0.6975  0.4698  0.5924
 3325TIP3    H231467   4.959   0.629  13.425 -1.1860  0.1817  1.6358
 3326TIP3   OH231468   2.882   0.000   1.328 -0.0178 -0.0375 -0.5256
 3326TIP3    H131469   2.969  -0.006   1.366 -0.3859  1.3337  0.6313
 3326TIP3    H231470   2.897   0.038   1.241  0.6354 -1.0995 -0.8936
 3327TIP3   OH231471   0.067   0.402   5.849  0.1413  0.0373  0.3263
 3327TIP3    H131472   0.136   0.350   5.808  0.2880 -0.4035  1.1113
 3327TIP3    H231473  -0.014   0.359   5.822  0.2249 -0.1101  0.3066
 3328TIP3   OH231474   5.021   5.711   2.484 -0.6488 -0.0141 -1.2619
 3328TIP3    H131475   4.930   5.736   2.502 -0.7089 -1.7917  1.4176
 3328TIP3    H231476   5.059   5.789   2.444 -2.9798  1.2776 -1.1519
 3329TIP3   OH231477   2.702   5.975   2.715  0.4046 -0.0257 -0.5965
 3329TIP3    H131478   2.734   5.924   2.789  0.0528  2.6086  1.4893
 3329TIP3    H231479   2.781   6.006   2.671  0.7139  1.4242  0.9118
 3330TIP3   OH231480   2.104   2.791   5.576  0.1489  0.0280  0.3356
 3330TIP3    H131481   2.012   2.807   5.553  0.5334  1.1257 -0.5040
 3330TIP3    H231482   2.111   2.821   5.667  0.1598  2.0381 -0.2791
 3331TIP3   OH231483   5.849   5.853   1.477 -0.2103 -0.5988  0.0770
 3331TIP3    H131484   5.883   5.925   1.424 -0.2905  0.1200  0.9607
 3331TIP3    H231485   5.767   5.886   1.512  0.6373 -0.3646  1.9922
 3332TIP3   OH231486   2.123   2.166  12.958  0.2303  0.6780  0.0495
 3332TIP3    H131487   2.063   2.233  12.990  0.8140  0.9883  0.5079
 3332TIP3    H231488   2.120   2.175  12.862 -3.5906 -2.0187 -0.3453
 3333TIP3   OH231489   4.356   3.945  12.178  0.4467 -0.3314  0.3098
 3333TIP3    H131490   4.416   4.019  12.194  0.1602 -0.3805  1.7735
 3333TIP3    H231491   4.359   3.932  12.084 -0.6641  2.5464 -0.2290
 3334TIP3   OH231492   1.639   4.004  14.503 -0.1526  0.6096  0.0814
 3334TIP3    H131493   1.622   3.983  14.412  1.9322 -1.2513  0.0197
 3334TIP3    H231494   1.731   4.031  14.505  0.3753 -1.0252  1.7782
 3335TIP3   OH231495   0.768   0.605  17.142  0.6820 -0.7975 -0.2948
 3335TIP3    H131496   0.717   0.685  17.134 -0.2540 -1.1827  1.2860
 3335TIP3    H231497   0.760   0.563  17.056 -1.3135 -0.6048 -0.2589
 3336TIP3   OH231498   4.731   6.539   1.548 -0.2429 -0.3235  0.1500
 3336TIP3    H131499   4.668   6.557   1.617 -0.4788  0.5990 -0.2904
 3336TIP3    H231500   4.795   6.609   1.555  0.0717 -0.5735 -0.1793
 3337TIP3   OH231501   0.948   3.647   1.839  0.4286 -0.2716  0.0884
 3337TIP3    H131502   1.012   3.615   1.776  1.3485 -2.3731  1.9264
 3337TIP3    H231503   0.883   3.577   1.844 -0.5693  0.6406  0.2004
 3338TIP3   OH231504   0.593   6.518   1.990  0.2650  0.3932  0.0690
 3338TIP3    H131505   0.532   6.458   1.949  0.8089  0.0566 -0.2647
 3338TIP3    H231506   0.658   6.537   1.923  0.1763  1.2585  0.2121
 3339TIP3   OH231507   2.743   2.905  11.151 -0.0771  0.4918  0.4282
 3339TIP3    H131508   2.715   2.855  11.075 -0.4546 -0.8244  1.3984
 3339TIP3    H231509   2.732   2.997  11.125 -1.0978  0.0568 -0.7586
 3340TIP3   OH231510   2.465   3.668  13.632 -0.2963  0.4271 -0.7409
 3340TIP3    H131511   2.413   3.733  13.584 -2.0355  1.0595  1.7753
 3340TIP3    H231512   2.462   3.698  13.723  0.8357 -1.9551  0.1616
 3341TIP3   OH231513   4.471   5.327  12.119  0.3726 -0.0432  0.7882
 3341TIP3    H131514   4.550   5.274  12.123 -0.0370 -0.6718  0.5974
 3341TIP3    H231515   4.399   5.264  12.118 -0.1698  0.5349  1.6979
 3342TIP3   OH231516   3.811   4.795   0.158 -0.0806  0.3696 -0.2686
 3342TIP3    H131517   3.800   4.837   0.243 -1.5090 -1.3540  0.4602
 3342TIP3    H231518   3.904   4.775   0.153  0.0259  0.5445  0.8606
 3343TIP3   OH231519   4.439   1.713   1.358  0.4154  0.1825  0.4504
 3343TIP3    H131520   4.398   1.698   1.443  0.4821 -1.6924  0.2027
 3343TIP3    H231521   4.449   1.625   1.321  1.6495  0.8529 -0.9000
 3344TIP3   OH231522   2.074   0.712   5.431  0.6531  0.1972 -0.6322
 3344TIP3    H131523   2.056   0.705   5.525 -0.5898  1.3811 -0.7492
 3344TIP3    H231524   2.164   0.683   5.422  0.4582 -0.9569  0.7742
 3345TIP3   OH231525   0.669   2.946  10.985  0.0582 -0.7118 -0.1831
 3345TIP3    H131526   0.690   3.037  10.965  0.4984 -0.5762  0.8195
 3345TIP3    H231527   0.592   2.951  11.043  0.2789 -0.9566  0.1337
 3346TIP3   OH231528   0.143   2.995   1.839 -0.6698  0.4099  0.2188
 3346TIP3    H131529   0.063   3.024   1.882 -1.4475  0.8467 -1.4462
 3346TIP3    H231530   0.148   3.048   1.760  0.5037 -0.6215 -0.4324
 3347TIP3   OH231531   1.254   2.400   2.914  0.3743 -0.3817  0.0211
 3347TIP3    H131532   1.184   2.368   2.857  0.2111  1.9826 -1.2674
 3347TIP3    H231533   1.212   2.413   2.999 -0.0620 -1.4440 -0.0152
 3348TIP3   OH231534   0.892   1.651   0.765  0.1862 -0.0402  0.0167
 3348TIP3    H131535   0.943   1.613   0.693  0.7153  0.2460  0.2340
 3348TIP3    H231536   0.801   1.639   0.738  0.3479 -1.1689 -0.0596
 3349TIP3   OH231537   5.011   3.660  12.705  0.4198 -0.6501  0.5044
 3349TIP3    H131538   5.098   3.694  12.681  1.0641 -1.2018  1.9496
 3349TIP3    H231539   5.017   3.566  12.693 -0.2845 -0.6107 -0.2448
 3350TIP3   OH231540   1.311   1.446  16.823 -0.0102  0.1234 -0.7761
 3350TIP3    H131541   1.282   1.363  16.784 -0.2705  0.5979 -1.6286
 3350TIP3    H231542   1.357   1.491  16.752 -0.9157  1.2224 -0.7065
 3351TIP3   OH231543   1.378   3.267  12.250  0.3706 -0.6009  0.3987
 3351TIP3    H131544   1.362   3.278  12.156  0.1122 -0.0857  0.4998
 3351TIP3    H231545   1.373   3.356  12.286 -3.8900 -1.1114  1.6007
 3352TIP3   OH231546   2.484   1.118  13.534 -0.0269 -0.0601 -0.2412
 3352TIP3    H131547   2.540   1.144  13.607 -0.2823  1.0108 -0.4087
 3352TIP3    H231548   2.400   1.097  13.574  0.7909 -2.9746  0.1781
 3353TIP3   OH231549   3.425   5.309   4.851 -0.3712  0.1243 -0.5377
 3353TIP3    H131550   3.472   5.347   4.777  1.4097 -0.7606  0.0764
 3353TIP3    H231551   3.410   5.218   4.827  3.6883 -1.3257  1.5551
 3354TIP3   OH231552   4.755   2.425   0.161 -0.7296 -0.7062 -0.0338
 3354TIP3    H131553   4.722   2.336   0.147  1.3255 -1.4050 -0.8454
 3354TIP3    H231554   4.834   2.413   0.213  1.1379  0.2855 -2.4152
 3355TIP3   OH231555   0.831   1.141  15.896  0.5462 -0.1692  0.3178
 3355TIP3    H131556   0.749   1.179  15.865  1.6611  0.2883 -2.3322
 3355TIP3    H231557   0.812   1.047  15.902 -0.3086 -0.0136  0.2718
 3356TIP3   OH231558   6.309   3.128   5.933 -0.9165 -0.7599  0.9003
 3356TIP3    H131559   6.226   3.118   5.979 -1.2312 -0.6424  0.3622
 3356TIP3    H231560   6.291   3.190   5.862 -0.0257  0.3918  1.6271
 3357TIP3   OH231561   6.608   1.802  17.137 -0.1157 -0.4688 -0.3564
 3357TIP3    H131562   6.619   1.744  17.212  1.9665 -0.2092 -0.3786
 3357TIP3    H231563   6.565   1.880  17.173 -0.8159 -1.0903  0.1638
 3358TIP3   OH231564   1.348   3.882  13.058 -0.0612 -0.0979  0.2420
 3358TIP3    H131565   1.328   3.788  13.063 -0.0287 -0.2092 -1.1499
 3358TIP3    H231566   1.429   3.892  13.107 -0.3139 -0.7178  0.7952
 3359TIP3   OH231567   5.303   5.260   1.396 -0.7332 -0.0914 -0.0841
 3359TIP3    H131568   5.265   5.307   1.470  2.1253  1.4740  0.5348
 3359TIP3    H231569   5.320   5.172   1.430 -1.7586 -0.1784  0.2590
 3360TIP3   OH231570   5.882   5.109   4.419  0.3604 -0.7098  0.4338
 3360TIP3    H131571   5.933   5.151   4.350 -0.0695  1.6017  1.4259
 3360TIP3    H231572   5.806   5.072   4.373  0.0059  0.9073 -0.3524
 3361TIP3   OH231573   0.001   6.282   3.750 -0.2821 -0.3091 -0.7400
 3361TIP3    H131574  -0.026   6.202   3.705  0.8199 -0.1166 -1.8029
 3361TIP3    H231575   0.031   6.252   3.836  0.1378 -1.0527 -1.1330
 3362TIP3   OH231576   1.603   6.100  16.655 -0.3066 -0.4586  0.0295
 3362TIP3    H131577   1.530   6.151  16.691 -0.1778  1.1349 -1.7793
 3362TIP3    H231578   1.581   6.089  16.563  0.4251 -2.4248  0.0577
 3363TIP3   OH231579   6.217   3.955  15.668 -0.0492  0.3064 -0.1966
 3363TIP3    H131580   6.156   3.995  15.606  0.0773  1.7707  0.5640
 3363TIP3    H231581   6.167   3.948  15.749  0.2968 -0.0255 -0.0103
 3364TIP3   OH231582   1.582   3.756  16.258  0.5033  0.8226 -0.7146
 3364TIP3    H131583   1.561   3.840  16.216  0.8406  0.3303 -1.9322
 3364TIP3    H231584   1.669   3.735  16.226 -0.3112 -0.8851 -1.9691
 3365TIP3   OH231585   5.730   0.921   0.214 -0.2644  0.2173  0.0081
 3365TIP3    H131586   5.744   0.908   0.308  4.1098  0.6752 -0.3515
 3365TIP3    H231587   5.736   0.833   0.177  2.4713  0.3372 -0.0780
 3366TIP3   OH231588   0.577   2.472   3.529  0.5018 -0.3867 -0.4755
 3366TIP3    H131589   0.563   2.513   3.443 -0.2414  0.8081  0.1911
 3366TIP3    H231590   0.668   2.492   3.550  0.6078 -0.4496 -0.8563
 3367TIP3   OH231591   4.048   3.267  17.132  0.6006  0.5140  0.2585
 3367TIP3    H131592   4.011   3.318  17.059  1.8278  0.8948 -0.1193
 3367TIP3    H231593   4.133   3.239  17.100  1.3242  0.9933  1.6820
 3368TIP3   OH231594   0.276   6.365  14.595  0.1843  0.3631 -0.8754
 3368TIP3    H131595   0.350   6.409  14.635  1.8570 -0.7564 -2.5764
 3368TIP3    H231596   0.231   6.322  14.668  1.2300  1.0149  0.1868
 3369TIP3   OH231597   3.153   5.826  12.135  0.1209  0.7735 -0.0596
 3369TIP3    H131598   3.087   5.855  12.071 -0.2470  0.3697  0.1268
 3369TIP3    H231599   3.157   5.731  12.122 -1.0462  0.4732  1.5161
 3370TIP3   OH231600   4.521   5.100  16.273  1.2822  0.6632  0.6050
 3370TIP3    H131601   4.478   5.123  16.355  0.4433  0.0529  0.3539
 3370TIP3    H231602   4.614   5.105  16.292  1.0977  1.2370  1.3916
 3371TIP3   OH231603   2.164   2.320  16.453  0.4827 -0.3326  0.9854
 3371TIP3    H131604   2.220   2.382  16.407 -0.3705 -0.1075  0.2246
 3371TIP3    H231605   2.159   2.244  16.394  0.2639 -0.4852  1.1998
 3372TIP3   OH231606   2.633   5.425  12.290 -0.0251 -0.2174  0.2676
 3372TIP3    H131607   2.634   5.475  12.371 -2.1474  1.7004 -0.7876
 3372TIP3    H231608   2.563   5.360  12.302  0.7626 -1.0367  0.5459
 3373TIP3   OH231609   0.441   1.550   4.162  0.4399 -0.1255 -0.7163
 3373TIP3    H131610   0.417   1.534   4.253  3.3051 -0.1451  0.1252
 3373TIP3    H231611   0.469   1.464   4.130  0.1964  0.0414 -1.3878
 3374TIP3   OH231612   2.956   3.248   0.586  0.6913  0.1999 -0.6122
 3374TIP3    H131613   2.945   3.271   0.494 -0.3676 -1.6708 -0.9919
 3374TIP3    H231614   2.873   3.273   0.627  1.1637  1.0400 -0.1361
 3375TIP3   OH231615   0.645   0.471   4.004  0.0530 -0.1832  0.6358
 3375TIP3    H131616   0.697   0.453   3.926  1.1442 -1.7162  1.6589
 3375TIP3    H231617   0.708   0.470   4.076 -1.1948 -0.8145  1.7744
 3376TIP3   OH231618   6.501   1.965   0.313  0.0131  0.2606  0.1093
 3376TIP3    H131619   6.447   1.902   0.264  0.1387  0.5281 -0.3701
 3376TIP3    H231620   6.576   1.982   0.257  0.4421  0.1409  0.6383
 3377TIP3   OH231621   0.276   6.594   0.150  0.3617 -0.4344  0.2027
 3377TIP3    H131622   0.272   6.652   0.074 -0.6055 -0.9328 -0.1493
 3377TIP3    H231623   0.197   6.540   0.143  0.1215 -0.3233  1.7099
 3378TIP3   OH231624   1.468   1.784   5.171  0.1779  0.0884  0.0214
 3378TIP3    H131625   1.477   1.689   5.173  0.0035  0.0650 -0.2684
 3378TIP3    H231626   1.527   1.815   5.239 -2.1247 -0.4329  2.4291
 3379TIP3   OH231627   0.629   2.788  14.056  0.2324  0.1870  0.3497
 3379TIP3    H131628   0.598   2.715  14.002 -1.9848  1.0779  0.3172
 3379TIP3    H231629   0.604   2.866  14.007  1.5436  1.0074  0.9322
 3380TIP3   OH231630   4.683   5.793   3.650  0.0507 -0.0545  0.3479
 3380TIP3    H131631   4.731   5.860   3.602 -0.1842 -0.6730 -0.7705
 3380TIP3    H231632   4.597   5.789   3.607 -0.4937  0.0048  1.3856
 3381TIP3   OH231633   0.761   4.739   4.681 -0.1119 -0.0044  0.5575
 3381TIP3    H131634   0.739   4.693   4.762  0.9981 -0.6397  0.5113
 3381TIP3    H231635   0.759   4.671   4.613 -1.8250  0.6627 -0.1127
 3382TIP3   OH231636   6.598   1.746   4.718  0.0362  0.3754  0.5295
 3382TIP3    H131637   6.542   1.725   4.792 -1.2923 -2.1845 -1.0807
 3382TIP3    H231638   6.687   1.736   4.752 -0.5236  0.0898  1.9877
 3383TIP3   OH231639   3.446   1.684  14.881  0.0731  0.3050 -0.5544
 3383TIP3    H131640   3.482   1.622  14.818 -0.2175  1.3014 -1.7296
 3383TIP3    H231641   3.355   1.656  14.893  0.6905 -1.1673  1.0949
 3384TIP3   OH231642   3.730   2.051   2.640  0.1318  0.2142 -0.3282
 3384TIP3    H131643   3.735   2.145   2.625 -1.4076  0.2922 -0.5358
 3384TIP3    H231644   3.670   2.019   2.572 -0.1470 -0.7551  0.3459
 3385TIP3   OH231645   5.438   4.424  16.156  1.0775  0.6442  0.2023
 3385TIP3    H131646   5.528   4.391  16.146  1.3433  1.6178 -0.8399
 3385TIP3    H231647   5.400   4.417  16.068 -0.3587 -1.0431  0.9000
 3386TIP3   OH231648   5.338   1.088  13.175 -0.3750 -0.4260 -0.2747
 3386TIP3    H131649   5.405   1.020  13.171 -0.4155 -0.4480 -0.5406
 3386TIP3    H231650   5.385   1.169  13.156 -0.5912 -0.5476 -1.3885
 3387TIP3   OH231651   2.215   3.352   3.125  0.3446 -0.0381  0.2279
 3387TIP3    H131652   2.285   3.305   3.081  0.6172  0.4666  0.1212
 3387TIP3    H231653   2.199   3.429   3.070 -0.0161  0.0562  0.4619
 3388TIP3   OH231654   0.572   4.928   1.853  0.0695  0.2525 -0.2874
 3388TIP3    H131655   0.614   4.964   1.776 -0.1901 -0.3065 -0.6968
 3388TIP3    H231656   0.627   4.957   1.926  0.1413  1.0437 -0.6463
 3389TIP3   OH231657   5.910   6.575  17.021  0.1395  0.3587  0.0953
 3389TIP3    H131658   5.933   6.512  17.089 -0.7746 -2.3960 -1.9390
 3389TIP3    H231659   5.955   6.656  17.047  0.4297 -0.7264  3.4883
 3390TIP3   OH231660   1.615   3.815  12.813  0.5723  0.1055  0.6477
 3390TIP3    H131661   1.522   3.837  12.814  0.2634 -1.0534 -0.2167
 3390TIP3    H231662   1.623   3.744  12.875  0.6689 -0.5173 -0.0620
 3391TIP3   OH231663   1.109   1.883  13.043 -0.3682  0.7407 -0.1047
 3391TIP3    H131664   1.108   1.800  12.996 -0.2547  0.1396  0.9345
 3391TIP3    H231665   1.027   1.926  13.018 -1.3905 -0.5572  0.8560
 3392TIP3   OH231666   5.631   1.150  14.824  0.2845 -0.1618 -0.5599
 3392TIP3    H131667   5.670   1.092  14.890  1.3670 -1.1141 -1.9808
 3392TIP3    H231668   5.545   1.111  14.807 -1.1811  1.5767  2.1039
 3393TIP3   OH231669   1.814   0.692  12.657 -0.5335  0.6096  0.0731
 3393TIP3    H131670   1.764   0.737  12.725 -0.5431 -1.2368  1.3582
 3393TIP3    H231671   1.825   0.757  12.589 -0.6331  2.5108  1.7817
 3394TIP3   OH231672   5.925   3.693   3.925  0.4176 -0.1955  0.0014
 3394TIP3    H131673   6.011   3.683   3.966  0.5059  1.7915  0.3614
 3394TIP3    H231674   5.900   3.783   3.942 -0.2610  0.2790 -2.9786
 3395TIP3   OH231675   1.575   3.937  14.245 -0.0230  0.0386 -0.0021
 3395TIP3    H131676   1.596   3.878  14.173 -1.6291 -0.4878 -0.0889
 3395TIP3    H231677   1.557   4.021  14.203  1.1398  0.3122  0.0137
 3396TIP3   OH231678   6.499   4.878   1.799 -0.2789 -0.1228  0.4200
 3396TIP3    H131679   6.502   4.936   1.723  1.7652 -0.9566 -0.2275
 3396TIP3    H231680   6.438   4.808   1.774 -0.0124 -0.1190 -0.2646
 3397TIP3   OH231681   0.414   2.616  16.165  0.3927 -0.2387 -0.3868
 3397TIP3    H131682   0.462   2.674  16.224  1.6534  0.5543 -2.0754
 3397TIP3    H231683   0.461   2.533  16.171 -0.7126 -0.7923  1.1723
 3398TIP3   OH231684   1.827   2.490  11.074  0.2607  0.1177 -0.3352
 3398TIP3    H131685   1.867   2.563  11.121  1.0511  0.0344 -0.8589
 3398TIP3    H231686   1.770   2.531  11.009 -0.8463  0.2336  0.6688
 3399TIP3   OH231687   1.856   3.133  16.832 -0.5571  0.1727 -0.2411
 3399TIP3    H131688   1.828   3.216  16.870 -0.7582  0.3483 -0.7756
 3399TIP3    H231689   1.942   3.117  16.871 -0.8894  0.2004  0.5254
 3400TIP3   OH231690   5.197   2.135   3.665 -0.2286  0.2126  0.3559
 3400TIP3    H131691   5.155   2.180   3.592 -0.0684 -1.4748 -0.8443
 3400TIP3    H231692   5.269   2.086   3.625  0.1239 -0.4205  1.7060
 3401TIP3   OH231693   1.987   4.497  16.073 -0.1947  0.1545  0.2826
 3401TIP3    H131694   1.963   4.582  16.109  0.6503  0.1387  0.9210
 3401TIP3    H231695   2.069   4.514  16.026 -0.7500 -0.0340 -0.8003
 3402TIP3   OH231696   6.153   0.892   4.172  0.4456  0.3306 -0.5968
 3402TIP3    H131697   6.156   0.837   4.250 -1.0100  2.2151  0.9120
 3402TIP3    H231698   6.128   0.833   4.102  1.1006 -1.3080  0.4966
 3403TIP3   OH231699   2.464   6.727  10.499  0.0554 -0.4597 -0.2277
 3403TIP3    H131700   2.547   6.687  10.526  0.4257  0.6959  0.4118
 3403TIP3    H231701   2.397   6.667  10.533  0.5942 -2.2926 -2.1524
 3404TIP3   OH231702   1.599   3.410   1.577 -0.1476 -0.8547 -0.6424
 3404TIP3    H131703   1.632   3.490   1.538  1.6308 -0.9350  0.5700
 3404TIP3    H231704   1.521   3.388   1.525 -0.9706  1.8620 -0.7235
 3405TIP3   OH231705   6.728   1.035  15.188 -0.3071  0.2553 -0.2069
 3405TIP3    H131706   6.677   1.106  15.226 -0.4828  0.2388 -0.4106
 3405TIP3    H231707   6.707   0.959  15.242  1.0495  0.6741  0.9668
 3406TIP3   OH231708   1.613   6.317  15.100 -0.3729 -0.1822 -0.0738
 3406TIP3    H131709   1.552   6.390  15.102 -0.4848 -0.2566  2.6140
 3406TIP3    H231710   1.680   6.344  15.038 -2.1246  0.7021 -1.6820
 3407TIP3   OH231711   0.534   2.070   3.088  0.1066 -0.1878  0.2092
 3407TIP3    H131712   0.475   1.995   3.076 -1.2832  0.7442  0.9396
 3407TIP3    H231713   0.535   2.113   3.003 -0.6903  0.0693  0.3177
 3408TIP3   OH231714   0.232   2.448   2.333 -0.9746 -0.0686 -0.0323
 3408TIP3    H131715   0.235   2.542   2.315 -2.7369 -0.3367 -2.1374
 3408TIP3    H231716   0.144   2.421   2.306 -0.7276 -2.2376  1.0785
 3409TIP3   OH231717   2.214   2.451   5.182 -0.3292 -0.2225  0.4383
 3409TIP3    H131718   2.279   2.521   5.185 -0.6955  0.1034  0.9637
 3409TIP3    H231719   2.186   2.439   5.273 -0.2593 -1.0683  0.3550
 3410TIP3   OH231720   6.065   0.305   5.646  0.4762  0.3491 -0.1249
 3410TIP3    H131721   6.120   0.271   5.716  0.9048  2.3448  0.5898
 3410TIP3    H231722   6.065   0.237   5.579  2.5654 -0.3397  0.5139
 3411TIP3   OH231723   2.990   3.756  12.350 -0.0197 -0.1982 -0.8853
 3411TIP3    H131724   3.077   3.721  12.366  0.6414  1.8191  0.3904
 3411TIP3    H231725   3.005   3.845  12.319 -1.6206  0.4765  0.1440
 3412TIP3   OH231726   5.806   1.802  13.262  0.5907  0.0432  0.5349
 3412TIP3    H131727   5.826   1.778  13.352 -0.9482 -0.8302  0.6774
 3412TIP3    H231728   5.879   1.766  13.211  3.0154  2.9869  1.6147
 3413TIP3   OH231729   3.150   2.584  11.943 -0.1003 -0.2843 -0.0042
 3413TIP3    H131730   3.211   2.597  11.871 -1.3664  3.3209 -0.6022
 3413TIP3    H231731   3.088   2.518  11.910  0.1368  0.2894 -1.6692
 3414TIP3   OH231732   1.607   1.315   0.853  0.6212  0.5968 -0.1643
 3414TIP3    H131733   1.605   1.299   0.948 -0.3967 -1.6077 -0.5099
 3414TIP3    H231734   1.561   1.398   0.842 -0.7503  0.0638  1.1541
 3415TIP3   OH231735   0.633   3.622   0.191 -0.3526  0.5024 -1.0501
 3415TIP3    H131736   0.626   3.717   0.196  0.1857  0.5054  0.1816
 3415TIP3    H231737   0.699   3.606   0.123 -0.8956  0.9784 -1.6919
 3416TIP3   OH231738   4.082   5.227   3.245 -0.6908  0.0024 -0.5933
 3416TIP3    H131739   4.156   5.167   3.249 -0.6670  0.0339 -0.5629
 3416TIP3    H231740   4.041   5.208   3.161 -0.2990  0.3990 -0.8799
 3417TIP3   OH231741   0.677   6.797   1.163  0.4967 -0.2273  0.1103
 3417TIP3    H131742   0.740   6.869   1.166 -0.9072  1.1142 -0.7590
 3417TIP3    H231743   0.619   6.820   1.091 -1.0958 -1.3126  0.9886
 3418TIP3   OH231744   5.746   5.171   1.779 -0.3052 -0.9488  0.3705
 3418TIP3    H131745   5.770   5.092   1.730 -0.7024 -0.7633 -0.1247
 3418TIP3    H231746   5.652   5.162   1.793 -0.2552 -0.8294  0.8069
 3419TIP3   OH231747   4.474   0.588  16.274 -0.7212 -0.1606  0.1153
 3419TIP3    H131748   4.559   0.600  16.232 -0.7774  1.9809  0.5272
 3419TIP3    H231749   4.430   0.523  16.218  1.3885 -1.8950  0.3103
 3420TIP3   OH231750   2.457   2.073   3.769  0.4084  0.7243 -0.1076
 3420TIP3    H131751   2.516   2.149   3.776 -1.3242  1.9851  2.2570
 3420TIP3    H231752   2.370   2.109   3.786 -0.6067 -1.6523  0.0431
 3421TIP3   OH231753   1.824   6.203  14.764 -0.5122  0.5481  0.5675
 3421TIP3    H131754   1.809   6.266  14.834 -1.9930  1.1454 -0.2534
 3421TIP3    H231755   1.802   6.118  14.803 -2.3014  0.9833  0.5666
 3422TIP3   OH231756   5.425   3.366   5.483 -0.3633  0.4111  0.0141
 3422TIP3    H131757   5.486   3.405   5.421 -1.0914  0.7474 -0.4969
 3422TIP3    H231758   5.371   3.307   5.430 -0.7340  0.4013  0.3954
 3423TIP3   OH231759   1.229   3.747  11.808 -1.1346 -0.0534  0.1633
 3423TIP3    H131760   1.321   3.737  11.834 -0.9228 -0.7715 -0.7963
 3423TIP3    H231761   1.220   3.840  11.787 -0.3970 -0.1276 -0.5384
 3424TIP3   OH231762   3.591   5.007  12.809  0.2378 -0.8255  0.2519
 3424TIP3    H131763   3.649   5.021  12.884 -0.7342 -0.4781  0.9589
 3424TIP3    H231764   3.503   5.009  12.846 -0.3924  1.5179 -1.1997
 3425TIP3   OH231765   0.614   6.601  11.563 -0.1865  0.3161  0.8591
 3425TIP3    H131766   0.700   6.582  11.601 -1.1735 -1.1979  2.5070
 3425TIP3    H231767   0.632   6.627  11.473  2.0096  0.4467  1.2841
 3426TIP3   OH231768   1.604   3.848  13.959  0.4519  0.1001  0.7686
 3426TIP3    H131769   1.602   3.940  13.933  0.4482 -0.4661 -1.4459
 3426TIP3    H231770   1.697   3.825  13.959  0.3256 -0.8058 -2.4876
 3427TIP3   OH231771   4.103   0.319   2.361  0.4277 -0.0946  0.0222
 3427TIP3    H131772   4.187   0.337   2.405 -0.0950  0.7699  0.7123
 3427TIP3    H231773   4.104   0.377   2.285  0.5482 -0.2463 -0.0926
 3428TIP3   OH231774   6.083   3.911   3.396 -0.4782 -0.6161 -0.3073
 3428TIP3    H131775   6.047   3.933   3.482 -1.9569  0.7982 -1.2343
 3428TIP3    H231776   6.028   3.840   3.364  1.0634 -2.2604  0.5184
 3429TIP3   OH231777   1.068   1.255   0.110  0.2971 -0.0632  0.5571
 3429TIP3    H131778   0.986   1.207   0.122 -1.0781  2.6867  3.4132
 3429TIP3    H231779   1.129   1.214   0.172  1.4793 -2.4703 -1.9460
 3430TIP3   OH231780   3.054   0.551  14.946 -0.4474 -0.2761 -0.0537
 3430TIP3    H131781   3.132   0.505  14.914  0.4929  0.5870  0.9034
 3430TIP3    H231782   3.010   0.582  14.867 -0.5683 -1.9223 -0.6709
 3431TIP3   OH231783   6.270   1.079   1.486 -0.3183 -0.6725  0.2192
 3431TIP3    H131784   6.363   1.081   1.506 -0.5496  2.1092  1.4391
 3431TIP3    H231785   6.266   1.053   1.394  1.6694 -0.6726  0.0919
 3432TIP3   OH231786   3.955   0.607   3.006 -0.6569  0.0677 -0.0623
 3432TIP3    H131787   3.991   0.525   3.038 -1.4166 -0.2553  0.0004
 3432TIP3    H231788   3.983   0.612   2.915  1.0199  0.7056  0.4452
 3433TIP3   OH231789   1.910   4.284  12.056 -0.0250  0.1232  0.5163
 3433TIP3    H131790   1.982   4.281  12.118 -0.1975  1.0266  0.7778
 3433TIP3    H231791   1.919   4.204  12.005  0.1330 -0.6163  1.6763
 3434TIP3   OH231792   4.993   1.797  11.863 -0.9828 -0.0309 -0.1449
 3434TIP3    H131793   5.033   1.846  11.935 -0.5999  0.4598 -0.6880
 3434TIP3    H231794   4.983   1.861  11.793 -1.7212 -0.4134 -0.3928
 3435TIP3   OH231795   1.117   4.795   0.183 -0.2670  0.3125 -0.2723
 3435TIP3    H131796   1.039   4.813   0.235  0.8527  0.3213  1.4813
 3435TIP3    H231797   1.083   4.777   0.095 -1.9438  6.3692 -1.3280
 3436TIP3   OH231798   1.018   0.872  10.864 -0.3989 -0.3524  0.0250
 3436TIP3    H131799   0.926   0.889  10.885 -0.3924  1.5034 -1.2505
 3436TIP3    H231800   1.016   0.838  10.774  0.0373 -2.4364  0.7428
 3437TIP3   OH231801   4.476   1.454   6.365  0.1803  0.0185 -0.3051
 3437TIP3    H131802   4.488   1.541   6.326 -2.6574 -0.2224 -2.0549
 3437TIP3    H231803   4.383   1.453   6.391  0.8938 -1.4429  2.5689
 3438TIP3   OH231804   6.547   4.365   3.484 -0.5774  0.3953 -0.2720
 3438TIP3    H131805   6.510   4.296   3.428  1.5816  1.3558 -3.1033
 3438TIP3    H231806   6.571   4.435   3.423  2.3488  1.3611  1.8035
 3439TIP3   OH231807   0.473   4.880  15.522  0.4538  0.3259 -0.0138
 3439TIP3    H131808   0.398   4.903  15.467  1.2803  2.1204 -0.4689
 3439TIP3    H231809   0.434   4.842  15.601 -0.8185 -0.7587 -1.1288
 3440TIP3   OH231810   6.723   4.188   2.024  0.1757  0.6146  0.2963
 3440TIP3    H131811   6.801   4.229   2.062  0.3185  0.8325 -0.2226
 3440TIP3    H231812   6.670   4.261   1.994  1.2096  0.4387 -2.1777
 3441TIP3   OH231813   6.817   2.818  12.885 -0.4079 -0.6773 -0.1982
 3441TIP3    H131814   6.902   2.849  12.918  0.3675 -0.9554 -1.8401
 3441TIP3    H231815   6.777   2.775  12.961 -0.0593  1.3556  1.2131
 3442TIP3   OH231816   5.385   0.706  15.535 -0.4362  0.0582 -0.1478
 3442TIP3    H131817   5.334   0.774  15.491 -0.5563 -0.0091 -0.1158
 3442TIP3    H231818   5.471   0.745  15.550  0.2394 -0.5312 -2.1240
 3443TIP3   OH231819   6.346   0.701   6.023 -0.2535  0.0615  0.4140
 3443TIP3    H131820   6.268   0.754   6.005  1.1354  1.5607 -1.7236
 3443TIP3    H231821   6.391   0.748   6.094 -1.0942 -0.6320  1.4305
 3444TIP3   OH231822   0.553   0.623   0.322 -0.2987 -0.1206 -0.4513
 3444TIP3    H131823   0.501   0.550   0.290  0.0441 -0.0291 -1.2486
 3444TIP3    H231824   0.552   0.687   0.251 -0.2170  0.4557  0.0533
 3445TIP3   OH231825   4.855   5.950   3.984 -0.4553 -0.2126 -0.9350
 3445TIP3    H131826   4.900   5.972   3.902 -1.4427  0.7379 -1.2462
 3445TIP3    H231827   4.854   5.854   3.985 -0.5245 -0.2451 -2.1029
 3446TIP3   OH231828   6.361   6.825   3.583 -0.3718 -0.0334 -0.0716
 3446TIP3    H131829   6.286   6.882   3.562  0.2195  0.2405 -1.5390
 3446TIP3    H231830   6.434   6.885   3.598 -0.0336 -0.3647 -0.3771
 3447TIP3   OH231831   4.336   0.707   1.336 -0.1085  0.0924 -0.5411
 3447TIP3    H131832   4.250   0.688   1.299 -0.6325  0.5099  0.4378
 3447TIP3    H231833   4.319   0.732   1.427  1.1237 -0.5651 -0.1026
 3448TIP3   OH231834   4.408   4.405   4.396 -0.3465 -0.8860 -0.1064
 3448TIP3    H131835   4.325   4.395   4.350 -0.6449 -0.5878  0.3535
 3448TIP3    H231836   4.474   4.369   4.336 -0.7957 -1.0456 -0.5081
 3449TIP3   OH231837   1.059   2.828   5.172 -0.4361 -1.3607 -0.3141
 3449TIP3    H131838   0.967   2.850   5.155 -0.1188  0.0926 -0.2262
 3449TIP3    H231839   1.107   2.908   5.153  0.7370 -1.8744  0.3952
 3450TIP3   OH231840   0.311   0.543   5.902 -0.8721  0.0231  0.2725
 3450TIP3    H131841   0.220   0.539   5.872 -0.2855 -1.8715 -1.4985
 3450TIP3    H231842   0.318   0.474   5.968 -0.6829  0.0930  0.3267
 3451TIP3   OH231843   2.813   3.554   4.368  0.0279  0.0722 -0.0329
 3451TIP3    H131844   2.887   3.507   4.405 -0.5929 -0.7917  0.1438
 3451TIP3    H231845   2.748   3.557   4.438 -1.0386 -1.3226 -0.9054
 3452TIP3   OH231846   5.827   5.966   2.916  0.2569 -0.0650 -0.3181
 3452TIP3    H131847   5.908   5.999   2.877 -0.4763  0.0128 -1.8779
 3452TIP3    H231848   5.834   5.871   2.910  0.3255 -0.0659 -0.2299
 3453TIP3   OH231849   4.777   3.655  11.625 -0.4482 -0.3497  0.2323
 3453TIP3    H131850   4.810   3.639  11.714  0.5964 -4.0936 -0.6531
 3453TIP3    H231851   4.695   3.606  11.620 -2.0237  2.0955 -0.1672
 3454TIP3   OH231852   1.898   1.514   3.117 -0.0589  0.2518  0.2782
 3454TIP3    H131853   1.852   1.596   3.135  0.8829  0.7114  0.6316
 3454TIP3    H231854   1.837   1.446   3.146 -0.1803  0.8760  1.5425
 3455TIP3   OH231855   3.860   0.103  15.105 -0.0662  0.8804  0.3192
 3455TIP3    H131856   3.807   0.125  15.028 -0.9504  0.2101  0.7159
 3455TIP3    H231857   3.830   0.163  15.173 -2.3668 -1.2597  1.3541
 3456TIP3   OH231858   1.633   2.707  13.887 -0.6660  0.3341 -0.2707
 3456TIP3    H131859   1.577   2.767  13.839 -1.5291 -0.3272 -0.1187
 3456TIP3    H231860   1.587   2.623  13.883 -0.4491  0.1163  1.1650
 3457TIP3   OH231861   0.529   0.844   5.555  0.5365 -0.3088 -0.0536
 3457TIP3    H131862   0.497   0.774   5.613 -0.5012  0.6256  0.5505
 3457TIP3    H231863   0.531   0.803   5.468 -2.1625 -0.5506 -0.1081
 3458TIP3   OH231864   3.117   0.874   3.790 -0.8098  0.2303  0.3782
 3458TIP3    H131865   3.167   0.914   3.862 -1.3268  0.0277  0.8548
 3458TIP3    H231866   3.103   0.946   3.728  0.9479  0.0716 -0.2728
 3459TIP3   OH231867   1.202   0.600   4.677  0.0669 -0.2161  0.0377
 3459TIP3    H131868   1.189   0.633   4.765  0.6080  0.2094 -0.0400
 3459TIP3    H231869   1.242   0.672   4.629 -0.6398 -0.2860 -0.6804
 3460TIP3   OH231870   4.283   5.811  16.886  0.0807  0.4093  0.1285
 3460TIP3    H131871   4.309   5.764  16.807 -0.5928  1.0543 -0.4948
 3460TIP3    H231872   4.223   5.751  16.931  2.0556 -0.8052  1.2378
 3461TIP3   OH231873   3.419   5.976   0.883 -0.6604 -0.1059  0.2846
 3461TIP3    H131874   3.456   6.062   0.905  0.8033 -0.2993 -1.2252
 3461TIP3    H231875   3.329   5.995   0.857 -0.6716  0.8309  0.9425
 3462TIP3   OH231876   3.217   1.502   1.711  0.0523 -0.8242 -0.1830
 3462TIP3    H131877   3.309   1.498   1.737 -0.0616 -0.7965  0.2245
 3462TIP3    H231878   3.186   1.412   1.718 -0.2675 -0.6406  0.8382
 3463TIP3   OH231879   6.477   1.693   4.002  0.5594  0.3317  0.5134
 3463TIP3    H131880   6.465   1.622   4.066 -1.7364  0.9002  0.8254
 3463TIP3    H231881   6.396   1.692   3.951  1.2105  1.6614 -0.5903
 3464TIP3   OH231882   3.371   1.364  11.021  0.0995  0.1075  0.5635
 3464TIP3    H131883   3.402   1.439  10.970 -0.8876  1.0250  1.2626
 3464TIP3    H231884   3.366   1.293  10.958 -2.4311  1.5407 -1.0428
 3465TIP3   OH231885   5.590   5.824  13.473  0.1658 -0.5045  0.0018
 3465TIP3    H131886   5.583   5.918  13.488  1.2798 -0.3404 -0.4349
 3465TIP3    H231887   5.598   5.815  13.378  2.4738 -0.8385  0.1721
 3466TIP3   OH231888   2.436   0.270  16.175 -0.1568  0.3792  0.2798
 3466TIP3    H131889   2.444   0.335  16.245 -1.5433 -0.4529  1.2484
 3466TIP3    H231890   2.345   0.242  16.178 -0.2990  0.4059 -1.9674
 3467TIP3   OH231891   6.505   0.835   6.211 -0.0366 -0.1864  0.2674
 3467TIP3    H131892   6.469   0.882   6.286 -0.5868  3.0331 -1.8114
 3467TIP3    H231893   6.593   0.871   6.200 -0.1680 -0.1726 -0.9187
 3468TIP3   OH231894   3.071   0.489   0.866 -0.8353  0.3359  0.0818
 3468TIP3    H131895   3.066   0.447   0.780  2.4138 -1.3896  0.5923
 3468TIP3    H231896   3.039   0.423   0.927 -0.4107  0.4771  0.4590
 3469TIP3   OH231897   5.778   5.583   4.141  0.3362  0.6111  0.3344
 3469TIP3    H131898   5.796   5.511   4.201 -0.7829 -1.3618 -1.5221
 3469TIP3    H231899   5.684   5.577   4.124  0.4198  1.8251 -0.7046
 3470TIP3   OH231900   1.535   6.090   4.563  0.5787  0.1988 -0.5748
 3470TIP3    H131901   1.564   6.022   4.623 -1.7086  0.4896  0.9876
 3470TIP3    H231902   1.465   6.049   4.512  0.5335  0.8052 -1.0182
 3471TIP3   OH231903   1.882   3.895  13.454  0.6989  0.2136 -0.2135
 3471TIP3    H131904   1.927   3.970  13.415  0.2056  0.0563 -1.1091
 3471TIP3    H231905   1.917   3.891  13.543  0.0227  2.1238  0.2040
 3472TIP3   OH231906   5.674   1.050  12.061 -0.1418 -0.3264 -0.0317
 3472TIP3    H131907   5.624   0.991  12.118  0.8874  0.4166  1.7219
 3472TIP3    H231908   5.648   1.138  12.089 -0.1138  0.0648 -1.1934
 3473TIP3   OH231909   2.168   3.048  14.933 -0.4398  0.3453  0.0540
 3473TIP3    H131910   2.218   2.977  14.973 -0.6800  0.0545 -0.1542
 3473TIP3    H231911   2.155   3.111  15.004 -1.0031 -0.2405  0.4827
 3474TIP3   OH231912   5.525   6.643   3.310  0.2112 -0.3804  0.4772
 3474TIP3    H131913   5.512   6.713   3.246 -0.2499 -1.3987 -0.5821
 3474TIP3    H231914   5.459   6.578   3.287 -0.5947 -0.3896  2.5756
 3475TIP3   OH231915   1.088   3.665   2.800 -0.6404 -0.4244 -0.1379
 3475TIP3    H131916   1.122   3.579   2.776 -1.6517 -0.6264 -0.9126
 3475TIP3    H231917   1.114   3.676   2.892  4.5128  0.9755 -1.4841
 3476TIP3   OH231918   3.943   6.535   1.033  0.3118  0.3680 -0.0872
 3476TIP3    H131919   3.919   6.448   1.067 -0.5464  0.1263 -1.2234
 3476TIP3    H231920   4.036   6.528   1.011  0.4720  0.0273  0.6930
 3477TIP3   OH231921   6.601   2.870  14.178  0.0451  0.0301 -0.3319
 3477TIP3    H131922   6.614   2.953  14.223  0.0495  0.5728 -1.2994
 3477TIP3    H231923   6.582   2.807  14.248 -4.1752  1.5868  0.2215
 3478TIP3   OH231924   3.172   0.925   0.643  1.0459  0.2018 -0.3149
 3478TIP3    H131925   3.106   0.869   0.684  0.4527  1.3185  0.2811
 3478TIP3    H231926   3.122   0.981   0.583  0.8890  3.2451  2.4002
 3479TIP3   OH231927   2.560   2.145   1.862 -0.0890 -0.3085  0.4590
 3479TIP3    H131928   2.655   2.148   1.850  0.1098 -1.8423  1.3327
 3479TIP3    H231929   2.538   2.228   1.903  0.4604  1.1946 -2.0904
 3480TIP3   OH231930   3.724   0.219  12.674 -0.0223 -0.4403 -0.2127
 3480TIP3    H131931   3.737   0.248  12.765 -1.1658 -1.4015  0.2813
 3480TIP3    H231932   3.809   0.183  12.648  0.5124  0.4375  0.2273
 3481TIP3   OH231933   1.024   4.206   5.798 -0.5059 -0.1493 -0.0524
 3481TIP3    H131934   1.058   4.295   5.791 -1.3313  0.1676 -0.1242
 3481TIP3    H231935   0.932   4.217   5.822 -0.0850 -1.0212  2.2174
 3482TIP3   OH231936   2.809   0.491  11.499  0.1241 -0.4658  0.4281
 3482TIP3    H131937   2.768   0.422  11.552  0.8918  0.3066  2.0897
 3482TIP3    H231938   2.741   0.558  11.489  0.0231 -0.5515  0.5394
 3483TIP3   OH231939   6.728   2.005  14.314  0.2675  0.1426  0.4407
 3483TIP3    H131940   6.731   1.911  14.329  0.0318  0.0874  0.1613
 3483TIP3    H231941   6.678   2.015  14.232  0.8877  0.4670  0.0903
 3484TIP3   OH231942   2.871   0.648  16.363  0.5180 -0.5110  0.1959
 3484TIP3    H131943   2.827   0.566  16.344  1.6851 -1.0086 -0.4796
 3484TIP3    H231944   2.801   0.707  16.391 -0.4723 -1.4360 -0.2627
 3485TIP3   OH231945   5.830   2.214   1.917  0.2588  0.4038 -0.1812
 3485TIP3    H131946   5.788   2.295   1.947  0.9924  0.6169  0.3175
 3485TIP3    H231947   5.876   2.181   1.995  0.6615 -0.0372 -0.5991
 3486TIP3   OH231948   4.455   6.304  14.950  0.7440 -0.3809  0.1717
 3486TIP3    H131949   4.543   6.312  14.986  1.6616  0.8919 -2.1281
 3486TIP3    H231950   4.453   6.368  14.879 -1.1165 -2.2784 -1.6056
 3487TIP3   OH231951   0.894   6.280  10.237 -0.6299 -0.2175 -0.0638
 3487TIP3    H131952   0.953   6.284  10.313 -1.5293 -1.4441  0.7500
 3487TIP3    H231953   0.942   6.323  10.167 -0.3450  2.3126  1.5477
 3488TIP3   OH231954   5.049   5.176   2.941  0.3988  0.0519  0.1834
 3488TIP3    H131955   5.005   5.141   3.018 -2.4292 -0.0746 -1.3601
 3488TIP3    H231956   5.040   5.106   2.875 -0.2516  1.4173 -1.2343
 3489TIP3   OH231957   4.539   1.878  11.092 -0.0386  0.2695 -0.2054
 3489TIP3    H131958   4.611   1.877  11.030 -0.5696  1.5761 -0.8808
 3489TIP3    H231959   4.561   1.949  11.153 -0.4223  0.2249 -0.0102
 3490TIP3   OH231960   3.706   5.966  13.368  0.1092 -0.0854  0.1542
 3490TIP3    H131961   3.657   6.014  13.434  0.9380  0.5924  0.2967
 3490TIP3    H231962   3.782   5.931  13.415  0.6177  0.2604 -0.3940
 3491TIP3   OH231963   4.329   6.094  11.600  0.1929 -0.3020  0.0016
 3491TIP3    H131964   4.360   6.132  11.518  0.0285  0.7089  0.3850
 3491TIP3    H231965   4.404   6.103  11.659 -0.0429 -0.0333  0.2619
 3492TIP3   OH231966   4.212   6.023   1.178  0.1789 -0.4306 -0.1087
 3492TIP3    H131967   4.303   6.015   1.150  0.1876  0.7330 -0.4841
 3492TIP3    H231968   4.200   6.117   1.194 -1.0278 -0.5190 -0.3638
 3493TIP3   OH231969   5.526   3.558   0.702  0.7040  0.2951 -0.2523
 3493TIP3    H131970   5.526   3.545   0.797 -0.5369 -1.5130 -0.4591
 3493TIP3    H231971   5.617   3.578   0.681  0.9033  1.3442  1.3581
 3494TIP3   OH231972   3.985   5.598   5.937 -0.0768 -0.0666 -0.0306
 3494TIP3    H131973   3.905   5.573   5.983 -0.3631 -0.1849 -0.5846
 3494TIP3    H231974   4.049   5.531   5.962 -0.0168  0.2685  0.7570
 3495TIP3   OH231975   3.064   3.427  12.156  0.6228  0.0733 -0.0497
 3495TIP3    H131976   3.004   3.403  12.227  1.8553 -1.6697  0.4842
 3495TIP3    H231977   3.066   3.522  12.157  0.9443  0.1045  2.5925
 3496TIP3   OH231978   4.881   4.119   3.156 -0.0909 -0.1528  0.2804
 3496TIP3    H131979   4.830   4.059   3.210 -0.2432  0.2198  0.5561
 3496TIP3    H231980   4.864   4.091   3.066 -1.4139  0.4494  0.3186
 3497TIP3   OH231981   0.459   5.924   1.671  0.7547  0.0853  0.3862
 3497TIP3    H131982   0.519   5.926   1.596 -1.0775  0.1627 -1.1472
 3497TIP3    H231983   0.509   5.962   1.743  3.1595 -1.5360 -0.3127
 3498TIP3   OH231984   2.946   3.238   4.227  0.2259  0.0024  0.5534
 3498TIP3    H131985   3.008   3.186   4.176 -0.5801 -0.0666 -0.3919
 3498TIP3    H231986   2.941   3.322   4.179  2.3899  1.4730  2.6679
 3499TIP3   OH231987   4.441   1.738  12.712  0.6511  0.0965  0.5231
 3499TIP3    H131988   4.392   1.820  12.718 -0.0063 -0.3863  2.8434
 3499TIP3    H231989   4.431   1.710  12.621  0.2097  2.1515 -0.1116
 3500TIP3   OH231990   0.094   3.036  13.721 -0.1178  0.7548  0.2610
 3500TIP3    H131991   0.136   3.048  13.806  0.5040 -0.7474  0.1917
 3500TIP3    H231992   0.000   3.049  13.738  0.0364  0.8155  1.0931
 3501TIP3   OH231993   5.804   3.218   2.572 -0.1700 -0.1390 -0.4672
 3501TIP3    H131994   5.765   3.300   2.600 -2.6286 -0.8421 -1.5757
 3501TIP3    H231995   5.743   3.151   2.602  2.8885 -1.9253  2.5375
 3502TIP3   OH231996   3.941   2.755   0.937 -0.3885 -0.1328  0.0688
 3502TIP3    H131997   3.903   2.701   1.006  0.2357  0.0932  0.6044
 3502TIP3    H231998   3.869   2.811   0.908 -0.2871  0.9006  1.6735
 3503TIP3   OH231999   1.083   3.237  12.197  0.0169 -0.0922  0.0542
 3503TIP3    H132000   1.166   3.237  12.150  0.6426  0.1703  1.1026
 3503TIP3    H232001   1.094   3.305  12.264  0.1914 -2.1893  2.2749
 3504TIP3   OH232002   3.212   1.520  13.125 -0.1478  0.1063 -0.7958
 3504TIP3    H132003   3.265   1.454  13.169 -1.0506  0.1266  0.3827
 3504TIP3    H232004   3.262   1.543  13.046  1.3832 -0.1580  0.0580
 3505TIP3   OH232005   3.369   1.696  14.068  0.0130  0.7698 -0.0608
 3505TIP3    H132006   3.346   1.786  14.042  0.2293  0.8088 -0.1279
 3505TIP3    H232007   3.319   1.640  14.009 -0.8698  0.8235  0.6125
 3506TIP3   OH232008   5.074   3.883  11.737  0.0281  0.2469  0.2018
 3506TIP3    H132009   5.042   3.927  11.658 -0.6006  0.0855  0.3629
 3506TIP3    H232010   5.097   3.795  11.708  0.4817  0.4085  0.0563
 3507TIP3   OH232011   0.698   4.074  11.247  0.1006  0.1744  0.2801
 3507TIP3    H132012   0.701   4.081  11.152  3.7066  1.5408  0.3347
 3507TIP3    H232013   0.698   3.979  11.264  1.3237 -0.1191 -1.1349
 3508TIP3   OH232014   5.409   3.612   0.449 -0.2285 -0.5224 -1.0616
 3508TIP3    H132015   5.469   3.608   0.524 -0.0619 -1.7574 -1.2467
 3508TIP3    H232016   5.466   3.624   0.373 -0.4560  1.8101 -0.9428
 3509TIP3   OH232017   2.183   3.184  12.193  0.6060 -0.3160  0.2687
 3509TIP3    H132018   2.144   3.149  12.113  0.8742  1.5601 -0.7488
 3509TIP3    H232019   2.108   3.203  12.250  0.4651 -2.6199  0.9543
 3510TIP3   OH232020   1.213   5.552   3.540 -1.0390 -0.7345  0.1753
 3510TIP3    H132021   1.216   5.640   3.503  0.8338 -1.4059 -1.4457
 3510TIP3    H232022   1.132   5.550   3.592 -1.2647  1.8168  0.0227
 3511TIP3   OH232023   2.262   2.487  15.372  0.6375 -0.0647  0.6352
 3511TIP3    H132024   2.322   2.417  15.345  0.5929  0.5269 -1.2031
 3511TIP3    H232025   2.319   2.557  15.404  0.7150 -0.7142  1.9364
 3512TIP3   OH232026   5.772   6.414  11.883 -0.3401 -0.2829  0.4622
 3512TIP3    H132027   5.677   6.411  11.886 -0.3923  0.8457  0.5225
 3512TIP3    H232028   5.797   6.464  11.961  0.2869 -0.4208  0.3553
 3513TIP3   OH232029   4.717   4.591  17.165 -0.4451  0.2017 -0.0915
 3513TIP3    H132030   4.662   4.642  17.224 -1.0495 -1.9307  1.3348
 3513TIP3    H232031   4.784   4.552  17.222  1.3248  1.0899 -1.4700
 3514TIP3   OH232032   5.102   0.759  15.817  0.5676 -0.0913 -0.3563
 3514TIP3    H132033   5.126   0.764  15.910 -2.8636 -0.6332  0.6711
 3514TIP3    H232034   5.081   0.849  15.793 -1.3649 -0.3244  0.3049
 3515TIP3   OH232035   3.174   1.349  16.228 -0.1202 -0.3784  0.5442
 3515TIP3    H132036   3.191   1.255  16.224 -1.6743 -0.7402  1.5731
 3515TIP3    H232037   3.134   1.363  16.314  2.8396  1.7372  1.7660
 3516TIP3   OH232038   5.350   6.667   2.392  0.7440 -0.1846 -0.3455
 3516TIP3    H132039   5.302   6.618   2.459 -0.2747 -0.4971 -1.2766
 3516TIP3    H232040   5.345   6.758   2.422 -1.0915 -0.1017 -0.7593
 3517TIP3   OH232041   0.579   2.664   3.296 -0.1069 -0.3484 -0.0507
 3517TIP3    H132042   0.555   2.663   3.204  2.0733 -1.4804 -0.6824
 3517TIP3    H232043   0.559   2.752   3.326 -2.7539 -0.5416 -1.0171
 3518TIP3   OH232044   1.122   2.453   3.132  0.3175  0.1983 -0.3707
 3518TIP3    H132045   1.116   2.397   3.209  1.5185  1.4229  0.6700
 3518TIP3    H232046   1.038   2.498   3.128 -0.2329 -0.8225 -0.5599
 3519TIP3   OH232047   1.184   1.357   0.481 -0.1783 -0.1277 -0.0084
 3519TIP3    H132048   1.227   1.401   0.407 -0.8397 -0.0815 -0.3682
 3519TIP3    H232049   1.137   1.427   0.526 -0.2725 -0.2651  0.1068
 3520TIP3   OH232050   6.635   1.276  11.746  0.1482  0.4663  0.2960
 3520TIP3    H132051   6.709   1.309  11.695 -1.0829  1.2925 -1.0243
 3520TIP3    H232052   6.633   1.332  11.824 -0.1177  1.6084 -0.5016
 3521TIP3   OH232053   1.959   3.079   0.526 -0.3036 -0.0574 -0.0282
 3521TIP3    H132054   1.920   3.116   0.606 -0.5150  0.2399 -0.2692
 3521TIP3    H232055   1.994   3.154   0.479  0.0136 -0.2577 -0.1175
 3522TIP3   OH232056   0.784   3.452   4.799  0.1079 -0.2486  0.1852
 3522TIP3    H132057   0.754   3.531   4.844  2.8929  1.3440 -0.4714
 3522TIP3    H232058   0.730   3.446   4.721 -0.2925  0.9113  0.3546
 3523TIP3   OH232059   3.268   3.826  15.673 -0.0520 -0.1117  0.0547
 3523TIP3    H132060   3.183   3.868  15.681  0.4093  0.6579  1.1963
 3523TIP3    H232061   3.255   3.738  15.707 -0.0755  0.4826  1.7042
 3524TIP3   OH232062   2.249   0.138   2.904  0.4430 -0.1004 -0.4504
 3524TIP3    H132063   2.234   0.120   2.997 -0.1096 -0.6307 -0.6312
 3524TIP3    H232064   2.194   0.215   2.886  0.3953 -0.1168 -0.3790
 3525TIP3   OH232065   2.469   6.495   4.321  0.2736 -0.3880 -0.0168
 3525TIP3    H132066   2.545   6.552   4.318  0.5187 -0.7304 -0.4753
 3525TIP3    H232067   2.401   6.542   4.273  0.3610 -0.3193 -0.0714
 3526TIP3   OH232068   5.305   0.374   4.639  0.1153 -0.3657 -0.2057
 3526TIP3    H132069   5.358   0.296   4.655  0.8910  0.1678 -0.0857
 3526TIP3    H232070   5.358   0.446   4.674 -0.4069  0.2599 -0.6801
 3527TIP3   OH232071   4.966   0.779  12.063 -0.2882 -0.1496  0.1907
 3527TIP3    H132072   5.010   0.695  12.075 -0.7315 -0.4621 -0.3198
 3527TIP3    H232073   4.873   0.758  12.068 -0.4028  0.2998 -0.0081
 3528TIP3   OH232074   3.801   1.275  15.974 -0.3484  0.1202 -0.2308
 3528TIP3    H132075   3.782   1.272  15.880  1.2388  0.0402 -0.5756
 3528TIP3    H232076   3.755   1.353  16.005  1.9803  2.2675 -1.8114
 3529TIP3   OH232077   0.262   4.733   4.336  0.0587 -0.2649 -0.4492
 3529TIP3    H132078   0.309   4.750   4.254 -1.4603 -0.9890 -1.5033
 3529TIP3    H232079   0.185   4.790   4.331 -0.3735 -0.7924  0.1812
 3530TIP3   OH232080   2.717   5.719   5.652  0.4519 -0.0930  0.2683
 3530TIP3    H132081   2.749   5.629   5.647  0.2944 -0.1170 -0.6193
 3530TIP3    H232082   2.647   5.722   5.586  0.0368  0.5086  0.7339
 3531TIP3   OH232083   5.985   3.013   2.858 -0.2169 -0.4323  0.5850
 3531TIP3    H132084   6.079   3.023   2.874 -0.5276 -0.6853  3.0596
 3531TIP3    H232085   5.979   2.943   2.794  1.2776 -0.9698  0.9768
 3532TIP3   OH232086   2.248   4.632   0.726  0.2401 -0.1702 -0.0164
 3532TIP3    H132087   2.158   4.639   0.693  0.4086 -0.2404 -0.4996
 3532TIP3    H232088   2.258   4.541   0.752  0.4431 -0.3795 -0.7845
 3533TIP3   OH232089   3.254   4.193   2.995 -0.4209 -0.0464 -0.2337
 3533TIP3    H132090   3.219   4.111   3.031 -1.2128  0.4143  0.0639
 3533TIP3    H232091   3.342   4.199   3.031 -0.8358 -0.1009  0.8239
 3534TIP3   OH232092   2.581   6.639  11.379 -0.1382  0.0471 -0.6490
 3534TIP3    H132093   2.581   6.675  11.467  1.4960 -1.8845  0.1955
 3534TIP3    H232094   2.654   6.578  11.377  1.1457  1.4442 -3.9563
 3535TIP3   OH232095   3.594   4.075   0.213 -0.4367  0.3870  0.3730
 3535TIP3    H132096   3.660   4.144   0.204 -1.6149  1.4870 -0.0856
 3535TIP3    H232097   3.516   4.110   0.171 -0.7243 -1.7407 -1.0300
 3536TIP3   OH232098   3.400   3.683   0.837 -0.1905 -0.3397  0.1123
 3536TIP3    H132099   3.415   3.638   0.920 -0.8079 -0.6914  0.0391
 3536TIP3    H232100   3.318   3.730   0.849  0.1827  0.3582  0.0098
 3537TIP3   OH232101   2.572   5.965   5.491 -0.0109  0.8673 -0.3312
 3537TIP3    H132102   2.494   5.970   5.435 -0.1719 -0.6368 -0.2911
 3537TIP3    H232103   2.543   5.999   5.575 -1.0573 -0.8824  0.0800
 3538TIP3   OH232104   3.134   4.994   1.335 -0.1400  0.0850 -0.3932
 3538TIP3    H132105   3.230   4.996   1.334  0.1070  0.5543  4.0779
 3538TIP3    H232106   3.108   5.085   1.343 -0.9701 -0.0572 -1.3460
 3539TIP3   OH232107   3.805   4.515   5.002  0.9299 -0.4243  0.1118
 3539TIP3    H132108   3.898   4.498   5.019  1.0959  0.1238 -0.2296
 3539TIP3    H232109   3.775   4.439   4.953  0.8681 -1.2308  1.3564
 3540TIP3   OH232110   0.944   3.055  15.629  0.0245  0.3143  0.5406
 3540TIP3    H132111   0.893   3.067  15.549 -2.2402 -1.5078  1.5791
 3540TIP3    H232112   0.924   3.133  15.682  2.0978  1.8826 -0.8417
 3541TIP3   OH232113   6.333   5.524   6.549 -0.0758  0.0882 -0.1214
 3541TIP3    H132114   6.282   5.586   6.603 -0.2853  0.4827 -0.7611
 3541TIP3    H232115   6.274   5.500   6.478  0.5966  0.4876 -0.8326
 3542TIP3   OH232116   0.428   6.701  13.220  0.2247 -0.4617  0.2274
 3542TIP3    H132117   0.515   6.670  13.192 -1.0559 -2.6999 -1.6649
 3542TIP3    H232118   0.409   6.774  13.161  1.2193  0.7695  1.3779
 3543TIP3   OH232119   5.108   3.676  14.167  0.1782  0.5813  0.5445
 3543TIP3    H132120   5.157   3.718  14.096  1.8061 -0.2707  1.1144
 3543TIP3    H232121   5.037   3.738  14.187  1.2838  2.0883  0.0019
 3544TIP3   OH232122   4.409   4.954   5.665  0.3621  0.5045  0.4534
 3544TIP3    H132123   4.441   4.869   5.691  0.5718 -0.0528 -1.4555
 3544TIP3    H232124   4.483   4.996   5.621  0.0219  1.3335  0.6498
 3545TIP3   OH232125   3.701   3.216  10.962  0.1356 -0.2256  0.0724
 3545TIP3    H132126   3.797   3.216  10.961  0.1526  1.1668  0.0614
 3545TIP3    H232127   3.676   3.247  10.875 -0.3019  0.2284  0.3529
 3546TIP3   OH232128   5.953   6.321  16.500  0.5401  0.2247 -0.4091
 3546TIP3    H132129   5.893   6.395  16.513 -0.0288 -0.5220  1.6148
 3546TIP3    H232130   6.040   6.361  16.503  0.2411  0.8599  0.5557
 3547TIP3   OH232131   4.348   1.363   0.373  0.0751  0.0856  0.0342
 3547TIP3    H132132   4.295   1.346   0.294  0.9300 -0.1293 -0.5038
 3547TIP3    H232133   4.432   1.395   0.339  0.4479 -0.0090  0.8615
 3548TIP3   OH232134   6.542   4.089   5.529  0.4027  0.1006 -0.4623
 3548TIP3    H132135   6.630   4.108   5.561  0.5147 -2.3208  0.9086
 3548TIP3    H232136   6.494   4.172   5.540  2.1970  1.1614 -0.2141
 3549TIP3   OH232137   1.873   2.442  16.166  0.0486 -0.0423  0.5078
 3549TIP3    H132138   1.812   2.381  16.207 -1.8004  0.7967 -0.8512
 3549TIP3    H232139   1.850   2.527  16.203 -0.4249  0.4477 -0.8560
 3550TIP3   OH232140   3.187   5.539   1.612  0.2420  0.4709 -0.4019
 3550TIP3    H132141   3.147   5.452   1.609  1.0560  0.1100 -1.6914
 3550TIP3    H232142   3.130   5.589   1.670 -0.8817 -0.6051 -0.5163
 3551TIP3   OH232143   3.800   0.022  16.049 -0.6603  0.0645 -0.5204
 3551TIP3    H132144   3.836   0.053  15.966  0.3332 -0.2231 -0.2053
 3551TIP3    H232145   3.815  -0.072  16.048  0.7816  0.2368  0.6324
 3552TIP3   OH232146   5.022   3.023   3.991  0.2805 -0.0198  0.0111
 3552TIP3    H132147   5.072   3.063   3.919 -2.4171  1.5299 -1.1760
 3552TIP3    H232148   5.023   2.930   3.972  3.2846 -0.2007  0.5216
 3553TIP3   OH232149   0.227   2.952   4.301  0.4644 -0.0757  0.5300
 3553TIP3    H132150   0.230   3.002   4.219  0.2518  0.3693  0.7906
 3553TIP3    H232151   0.139   2.912   4.301  0.7627 -0.7571  0.1491
 3554TIP3   OH232152   5.577   1.021   0.024  0.4326  0.5010  0.1395
 3554TIP3    H132153   5.629   1.097  -0.001  0.9941  0.5051  1.2287
 3554TIP3    H232154   5.620   0.988   0.103 -0.4687 -0.2728  0.3303
 3555TIP3   OH232155   4.372   6.755  11.394  0.7814 -0.6219 -0.0158
 3555TIP3    H132156   4.420   6.758  11.476 -2.2126  1.2747  1.8588
 3555TIP3    H232157   4.386   6.841  11.354 -0.5319 -0.2489  0.2877
 3556TIP3   OH232158   0.380   2.102   1.897 -0.0388  0.1757 -0.7845
 3556TIP3    H132159   0.464   2.115   1.851 -0.4855  0.0412 -1.6551
 3556TIP3    H232160   0.357   2.189   1.929  1.0190  0.0075  0.5144
 3557TIP3   OH232161   5.432   3.104  12.233  0.0794 -0.7146 -0.0524
 3557TIP3    H132162   5.453   3.168  12.300 -0.8415  0.2935 -0.6861
 3557TIP3    H232163   5.442   3.152  12.150 -0.0671 -1.5555 -0.5726
 3558TIP3   OH232164   4.335   6.113  14.694 -0.4717 -0.5761  0.0141
 3558TIP3    H132165   4.426   6.142  14.700 -0.9173  0.5705  2.1904
 3558TIP3    H232166   4.286   6.194  14.677 -1.2012 -0.9896  0.1330
 3559TIP3   OH232167   0.590   6.177  13.599  0.2030 -0.0432  0.2570
 3559TIP3    H132168   0.655   6.207  13.663 -0.5375 -1.6583  1.8660
 3559TIP3    H232169   0.591   6.082  13.606 -1.6762 -0.1515 -0.3297
 3560TIP3   OH232170   4.765   5.271  11.681 -0.0516  0.5544  0.0717
 3560TIP3    H132171   4.841   5.216  11.664 -0.3971  0.0858  0.0146
 3560TIP3    H232172   4.715   5.268  11.599 -1.5613 -1.4449  0.9719
 3561TIP3   OH232173   5.272   6.678   0.459  0.5580 -0.4194  0.3991
 3561TIP3    H132174   5.176   6.681   0.451  0.4540 -1.1863  1.2156
 3561TIP3    H232175   5.298   6.604   0.404  0.6122 -0.6431  0.7232
 3562TIP3   OH232176   5.625   3.794   2.797  0.0005  0.1937 -0.3751
 3562TIP3    H132177   5.660   3.750   2.720  1.6996  1.4188 -0.3631
 3562TIP3    H232178   5.531   3.795   2.784  0.1002 -1.4266 -1.4324
 3563TIP3   OH232179   0.372   3.879   1.124 -0.3559  0.3058  0.4700
 3563TIP3    H132180   0.335   3.932   1.054  1.6426  0.6159 -0.4205
 3563TIP3    H232181   0.424   3.940   1.177  0.1289 -0.3442  0.7720
 3564TIP3   OH232182   1.263   6.697  15.784 -0.5713  0.5217 -0.2662
 3564TIP3    H132183   1.342   6.752  15.788  0.8081 -1.2870  4.5538
 3564TIP3    H232184   1.202   6.738  15.845 -2.0743 -0.0013 -1.3466
 3565TIP3   OH232185   3.689   1.813  16.077  0.5863  0.7582 -0.0206
 3565TIP3    H132186   3.635   1.830  16.155 -0.1850 -0.5417 -0.2367
 3565TIP3    H232187   3.651   1.867  16.009  1.1825  1.8044  0.4423
 3566TIP3   OH232188   2.410   4.444  15.760 -0.0880  0.2770 -0.3901
 3566TIP3    H132189   2.501   4.443  15.729  0.9278  1.0502  2.2845
 3566TIP3    H232190   2.387   4.352  15.771  1.4876  0.0617  1.6821
 3567TIP3   OH232191   5.058   0.763   4.219  0.2426 -0.1712  0.3918
 3567TIP3    H132192   5.062   0.858   4.215 -0.3257 -0.1517  0.1369
 3567TIP3    H232193   5.116   0.739   4.290  0.1568  0.3889  0.6546
 3568TIP3   OH232194   0.882   6.240  12.294  0.1300  0.2893 -1.4841
 3568TIP3    H132195   0.828   6.191  12.356 -0.7413  0.5936 -1.9790
 3568TIP3    H232196   0.864   6.332  12.314  1.0912  0.4139 -1.1323
 3569TIP3   OH232197   0.636   6.434   0.077  0.0957 -0.5001 -0.0958
 3569TIP3    H132198   0.668   6.451  -0.011  2.3963 -1.4928  0.4692
 3569TIP3    H232199   0.708   6.388   0.120 -1.0251 -0.2133  2.2451
 3570TIP3   OH232200   1.889   6.010   5.921  0.1732  0.0426  0.0207
 3570TIP3    H132201   1.863   6.092   5.879  1.4028  1.4508  1.8465
 3570TIP3    H232202   1.859   6.020   6.012  0.5871 -1.4333  0.3349
 3571TIP3   OH232203   0.518   2.425   0.204 -0.3769  0.0282 -0.0392
 3571TIP3    H132204   0.532   2.352   0.263 -0.2465 -0.0858 -0.2113
 3571TIP3    H232205   0.536   2.503   0.257  1.5780 -0.1204 -0.4322
 3572TIP3   OH232206   6.289   0.312   5.405  0.7464 -0.5332  0.0229
 3572TIP3    H132207   6.281   0.345   5.315 -0.0686  1.1224  0.6593
 3572TIP3    H232208   6.346   0.375   5.448 -1.1864  0.3484  1.3942
 3573TIP3   OH232209   6.074   4.350   6.235 -0.1935 -0.1280  0.7782
 3573TIP3    H132210   6.164   4.368   6.263  0.0483 -0.8328  0.4806
 3573TIP3    H232211   6.066   4.393   6.150 -0.2463  0.2211  0.9593
 3574TIP3   OH232212   0.142   5.151  11.010  0.1046  0.3289  0.0710
 3574TIP3    H132213   0.179   5.076  11.058  0.5814 -0.2256 -1.1291
 3574TIP3    H232214   0.137   5.221  11.076 -1.3089 -1.0240  1.4842
 3575TIP3   OH232215   6.078   4.088   5.392 -0.3761 -0.2690 -0.3784
 3575TIP3    H132216   6.142   4.027   5.427 -2.0693 -3.1976 -1.9582
 3575TIP3    H232217   6.007   4.089   5.457 -0.6027 -0.4463 -0.6204
 3576TIP3   OH232218   4.249   3.601  12.124  0.2088 -0.3573  0.5231
 3576TIP3    H132219   4.333   3.628  12.088  0.6470  1.1229  2.4675
 3576TIP3    H232220   4.228   3.520  12.078  0.8099  1.1696 -2.7794
 3577TIP3   OH232221   0.406   6.537   4.803 -0.0257 -0.6543  0.2842
 3577TIP3    H132222   0.337   6.580   4.753  1.8182 -0.0852 -1.9656
 3577TIP3    H232223   0.408   6.583   4.887  0.1579  1.9708 -1.0806
 3578TIP3   OH232224   3.030   1.398  11.629 -0.1452  0.0001 -0.3737
 3578TIP3    H132225   3.054   1.418  11.719  1.2292 -2.0282 -0.2120
 3578TIP3    H232226   2.934   1.390  11.630 -0.4861  3.0710  0.1519
 3579TIP3   OH232227   6.130   4.124   1.758  0.5875  0.2228  0.3383
 3579TIP3    H132228   6.081   4.045   1.783  0.8261 -0.1418 -0.3417
 3579TIP3    H232229   6.212   4.117   1.806  0.9196 -0.3283 -0.2826
 3580TIP3   OH232230   4.155   2.742  12.956  0.3004  0.0089 -0.6123
 3580TIP3    H132231   4.108   2.659  12.951 -0.5031  0.3797  0.5329
 3580TIP3    H232232   4.197   2.751  12.870 -1.4298 -0.4879 -1.5391
 3581TIP3   OH232233   5.224   1.042  14.074 -0.8028  0.3114 -0.0242
 3581TIP3    H132234   5.194   1.017  14.161 -0.2680 -0.9040 -0.1725
 3581TIP3    H232235   5.225   1.138  14.075 -1.9772  0.3286  0.8924
 3582TIP3   OH232236   4.622   1.831   5.959  0.7776 -0.3005  0.5749
 3582TIP3    H132237   4.707   1.835   5.916 -0.3790  1.6488 -1.7384
 3582TIP3    H232238   4.630   1.890   6.034  1.6991 -0.8905  0.9652
 3583TIP3   OH232239   3.280   4.026   1.353 -0.7884  0.4159 -0.2767
 3583TIP3    H132240   3.370   3.996   1.364 -1.0130  0.2735  1.4108
 3583TIP3    H232241   3.234   3.991   1.429 -1.9022  1.8706 -0.2427
 3584TIP3   OH232242   2.903   2.558   5.584 -0.1176  0.1737  0.6209
 3584TIP3    H132243   2.990   2.529   5.555 -1.2900 -2.5945 -0.5078
 3584TIP3    H232244   2.903   2.543   5.679  0.4405 -0.3504  0.5421
 3585TIP3   OH232245   6.533   3.049  14.379 -0.0921 -0.4294  0.1798
 3585TIP3    H132246   6.495   2.995  14.448  0.3471 -1.9893 -0.7570
 3585TIP3    H232247   6.466   3.114  14.359 -1.2679 -1.5786  0.2864
 3586TIP3   OH232248   3.938   2.186  11.729 -0.2908 -0.3746  0.3478
 3586TIP3    H132249   4.005   2.153  11.669 -0.5510 -0.0495 -0.1267
 3586TIP3    H232250   3.861   2.131  11.711 -1.2452  1.4625 -1.5969
 3587TIP3   OH232251   3.616   3.584   2.853 -0.4088  0.0804 -0.0143
 3587TIP3    H132252   3.630   3.494   2.879 -2.5943  0.1137  1.5428
 3587TIP3    H232253   3.674   3.597   2.778  2.4009 -1.5815  1.7043
 3588TIP3   OH232254   0.715   0.544  11.339 -0.3026  1.2407  0.4627
 3588TIP3    H132255   0.793   0.506  11.299 -0.2840  1.1607  0.5752
 3588TIP3    H232256   0.680   0.603  11.272 -0.1303  1.2977  0.4217
 3589TIP3   OH232257   6.783   6.728   0.656  0.3681 -0.7451  0.4797
 3589TIP3    H132258   6.816   6.814   0.632 -2.3602  0.7219  1.4867
 3589TIP3    H232259   6.773   6.681   0.573 -1.9462  1.4992 -0.6567
 3590TIP3   OH232260   0.854   4.177   0.152  0.4383 -0.1692 -0.9380
 3590TIP3    H132261   0.888   4.095   0.116 -1.2014 -1.3066  0.0073
 3590TIP3    H232262   0.794   4.209   0.085  0.3365 -0.2444 -0.8820
 3591TIP3   OH232263   3.998   0.683  12.277  0.2526 -0.1600 -0.0414
 3591TIP3    H132264   3.985   0.732  12.195  1.5709  0.5316  0.1476
 3591TIP3    H232265   3.924   0.710  12.332  1.1065  1.9525  0.1878
 3592TIP3   OH232266   1.314   6.746  11.229 -0.2001 -0.3258  0.2828
 3592TIP3    H132267   1.331   6.833  11.193  0.2126 -0.3616  0.3833
 3592TIP3    H232268   1.388   6.730  11.289 -0.7288 -0.3822  0.9289
 3593TIP3   OH232269   0.071   1.934   6.236  0.2902  0.1734  0.8411
 3593TIP3    H132270   0.145   1.926   6.176  1.4675  2.2552  1.8908
 3593TIP3    H232271   0.053   1.845   6.265  1.1212 -0.5990 -0.8783
 3594TIP3   OH232272   5.991   1.948   0.267  0.2925  0.3081  0.3355
 3594TIP3    H132273   6.040   1.962   0.349 -0.3189  2.8391  0.3321
 3594TIP3    H232274   5.902   1.975   0.288 -0.0652  0.1392 -0.9321
 3595TIP3   OH232275   2.930   2.634  14.414 -0.6887 -0.3603  0.5500
 3595TIP3    H132276   2.840   2.643  14.445 -0.8616 -2.9201  1.0089
 3595TIP3    H232277   2.984   2.659  14.489 -1.0424 -0.0388  0.6960
 3596TIP3   OH232278   6.077   3.701   2.421 -0.2119 -0.1451  0.0821
 3596TIP3    H132279   6.054   3.608   2.421  0.6727 -0.3849  0.4335
 3596TIP3    H232280   6.052   3.732   2.335 -0.4387 -0.7387 -0.0725
 3597TIP3   OH232281   1.698   4.437   4.015 -0.5027  0.7252  0.0159
 3597TIP3    H132282   1.727   4.401   3.931 -0.2190  0.6891  0.1284
 3597TIP3    H232283   1.658   4.363   4.060 -0.7879  0.7795 -0.1477
 3598TIP3   OH232284   2.082   3.966  12.296 -0.4599 -0.4544  0.8338
 3598TIP3    H132285   2.154   3.945  12.237 -0.6198  0.6624  0.2120
 3598TIP3    H232286   2.054   3.881  12.331  0.2790 -1.0354  0.0591
 3599TIP3   OH232287   5.855   0.341  15.282 -0.4835  0.5609 -0.3883
 3599TIP3    H132288   5.772   0.304  15.314 -0.0385  1.1247  1.5125
 3599TIP3    H232289   5.853   0.432  15.309  2.2413 -0.1730  2.9825
 3600TIP3   OH232290   3.949   0.350  13.233  0.0599 -0.0208 -0.2613
 3600TIP3    H132291   3.882   0.298  13.189 -0.0480  0.5624 -0.8056
 3600TIP3    H232292   3.998   0.287  13.286  0.4343 -0.8073 -1.5176
 3601TIP3   OH232293   3.673   6.689  15.277 -0.3849  0.0329 -0.0682
 3601TIP3    H132294   3.696   6.628  15.347 -0.1498 -0.1522 -0.3021
 3601TIP3    H232295   3.740   6.757  15.282 -0.1467 -0.1773 -0.3498
 3602TIP3   OH232296   0.910   2.244  13.093  0.0878  0.0298 -0.0031
 3602TIP3    H132297   0.962   2.311  13.138 -0.1262  1.1134 -1.2911
 3602TIP3    H232298   0.891   2.282  13.007  0.6470 -2.0345 -1.1033
 3603TIP3   OH232299   2.881   1.093   0.275  0.1100  0.0118  0.0969
 3603TIP3    H132300   2.873   1.179   0.234 -2.2369 -1.1525 -2.1485
 3603TIP3    H232301   2.911   1.035   0.205 -1.4571 -1.5561  0.6361
 3604TIP3   OH232302   3.440   6.776  11.770  0.0579 -0.0996 -0.2888
 3604TIP3    H132303   3.365   6.807  11.821  1.5985 -1.3355  3.0232
 3604TIP3    H232304   3.415   6.689  11.740  0.8555 -1.5927  2.9321
 3605TIP3   OH232305   0.205   5.789   2.473 -0.1392  0.2139 -0.4675
 3605TIP3    H132306   0.157   5.843   2.536 -0.6186  0.0638 -0.6937
 3605TIP3    H232307   0.262   5.734   2.527 -0.5268  0.1032 -0.1610
 3606TIP3   OH232308   3.265   5.923   3.951 -0.3425 -0.2809 -0.0142
 3606TIP3    H132309   3.360   5.916   3.944 -0.0554 -0.0366  2.6684
 3606TIP3    H232310   3.242   5.998   3.896  0.7502 -1.3350 -2.0253
 3607TIP3   OH232311   6.635   0.400  16.435  0.8276  0.3155 -0.2998
 3607TIP3    H132312   6.685   0.363  16.508  0.1090 -0.1625 -0.0411
 3607TIP3    H232313   6.683   0.371  16.357 -0.2265 -2.0184 -0.1634
 3608TIP3   OH232314   0.827   3.895   5.496 -0.3491  0.7735 -0.2266
 3608TIP3    H132315   0.920   3.875   5.500 -0.6947 -0.7486  1.9415
 3608TIP3    H232316   0.824   3.988   5.473  1.7228  0.9563  0.0249
 3609TIP3   OH232317   0.449   1.569  16.750  0.0101 -0.1317  0.3988
 3609TIP3    H132318   0.533   1.546  16.787  0.9206 -0.4528 -1.7176
 3609TIP3    H232319   0.439   1.512  16.673 -0.1697  2.6415 -1.8280
 3610TIP3   OH232320   1.955   0.604   1.060 -0.0660 -0.7798 -0.4699
 3610TIP3    H132321   1.892   0.607   0.989  0.6597 -0.1724 -1.1129
 3610TIP3    H232322   2.001   0.521   1.048 -0.5854 -1.1134 -0.1413
 3611TIP3   OH232323   2.154   4.802   5.448 -0.6587  0.8730 -0.1484
 3611TIP3    H132324   2.133   4.787   5.356 -0.8702  0.0269  0.0300
 3611TIP3    H232325   2.073   4.835   5.486 -0.9482  0.0282 -0.0060
 3612TIP3   OH232326   3.243   5.391  11.802  0.3347 -0.0890  0.0833
 3612TIP3    H132327   3.152   5.378  11.832  0.5142  0.7835  1.0994
 3612TIP3    H232328   3.294   5.327  11.851  0.4994  0.6884  0.9616
 3613TIP3   OH232329   2.304   3.752   5.553  0.1603  1.0435  0.0221
 3613TIP3    H132330   2.212   3.725   5.558  0.4914  0.0624  1.7758
 3613TIP3    H232331   2.313   3.818   5.621  0.6174  1.6269 -0.5982
 3614TIP3   OH232332   4.268   1.185  12.236 -0.1587 -0.0030  0.3186
 3614TIP3    H132333   4.276   1.232  12.319  1.1135 -0.6737  0.5902
 3614TIP3    H232334   4.306   1.099  12.253 -0.0315 -0.2047 -0.9149
 3615TIP3   OH232335   5.045   2.461  12.636  0.2813 -0.0108 -0.5722
 3615TIP3    H132336   4.989   2.392  12.600 -1.9310  1.1191  0.4714
 3615TIP3    H232337   5.103   2.415  12.697 -0.8427 -1.0423 -0.2268
 3616TIP3   OH232338   1.319   4.776  13.909 -0.5386 -0.8427  0.3370
 3616TIP3    H132339   1.358   4.689  13.912 -0.0135 -0.6689 -0.7736
 3616TIP3    H232340   1.350   4.813  13.826 -1.5435  0.0292  0.3307
 3617TIP3   OH232341   2.120   6.567   2.499 -0.2262  0.1233  0.7024
 3617TIP3    H132342   2.028   6.590   2.512 -0.4218  0.3029 -0.7687
 3617TIP3    H232343   2.117   6.476   2.469 -0.1925  0.8460 -1.7699
 3618TIP3   OH232344   5.428   6.123   5.772  0.1929  0.8174 -0.1584
 3618TIP3    H132345   5.376   6.194   5.811  1.4886  0.9752  1.4054
 3618TIP3    H232346   5.498   6.108   5.836  0.1718 -1.6253 -0.6265
 3619TIP3   OH232347   3.228   6.323  14.238  0.2095 -0.0215 -0.7812
 3619TIP3    H132348   3.174   6.315  14.316 -0.7669  0.3928 -1.3888
 3619TIP3    H232349   3.318   6.310  14.268 -0.2070 -0.4619  0.2976
 3620TIP3   OH232350   4.736   3.802  10.747 -0.4735  0.1313  0.0273
 3620TIP3    H132351   4.754   3.896  10.747  0.5915 -0.0682  0.0414
 3620TIP3    H232352   4.782   3.768  10.823 -2.4081 -0.1372  1.1393
 3621TIP3   OH232353   0.660   1.140  11.805  0.0343  0.7956 -0.3151
 3621TIP3    H132354   0.690   1.216  11.855 -1.7284  0.5051  1.3349
 3621TIP3    H232355   0.716   1.068  11.835  0.5917  1.1187 -0.5931
 3622TIP3   OH232356   6.570   5.600   0.697  0.1117 -0.0925  0.4408
 3622TIP3    H132357   6.563   5.529   0.633 -0.1173 -0.3913  0.7973
 3622TIP3    H232358   6.479   5.618   0.723  0.1721  0.2908  0.3977
 3623TIP3   OH232359   2.949   2.935   3.825 -0.0150 -0.9847  0.2014
 3623TIP3    H132360   2.960   2.939   3.920  0.6913  0.7383  0.0923
 3623TIP3    H232361   2.866   2.980   3.809  0.6326  0.1590 -0.0762
 3624TIP3   OH232362   2.920   6.004   4.377 -0.0168 -0.0312  1.0122
 3624TIP3    H132363   2.934   6.084   4.326  1.7968 -0.9512 -0.0367
 3624TIP3    H232364   2.900   5.937   4.311 -2.9669 -0.2411  1.9677
 3625TIP3   OH232365   0.132   2.986   2.281 -0.0183 -0.1638 -0.2536
 3625TIP3    H132366   0.102   3.045   2.350  0.2647 -0.5397  0.1918
 3625TIP3    H232367   0.215   3.023   2.251  0.2634 -0.4453  0.1695
 3626TIP3   OH232368   1.928   4.091   0.982 -0.1877 -0.3726 -0.9777
 3626TIP3    H132369   1.901   4.029   0.914  0.4334 -0.7945 -0.8504
 3626TIP3    H232370   1.882   4.172   0.961 -2.7350 -1.4457  0.0698
 3627TIP3   OH232371   4.730   1.293  16.665  0.5318  0.1821  0.0451
 3627TIP3    H132372   4.664   1.335  16.720 -0.6094 -0.5750 -0.7310
 3627TIP3    H232373   4.681   1.241  16.602  1.8389  0.5169 -1.3052
 3628TIP3   OH232374   1.268   6.234  12.645  0.7269 -0.2445 -0.2062
 3628TIP3    H132375   1.273   6.265  12.736  0.2590 -0.1274 -0.2189
 3628TIP3    H232376   1.279   6.139  12.653 -0.4231 -0.3673  0.0914
 3629TIP3   OH232377   6.410   0.914  11.378  0.7078 -0.3025 -0.6159
 3629TIP3    H132378   6.434   0.932  11.469  1.4586 -1.4237 -0.5705
 3629TIP3    H232379   6.418   0.819  11.370 -1.4530 -0.4758 -1.2653
 3630TIP3   OH232380   1.976   6.594   4.871  0.5114 -0.5034  0.0690
 3630TIP3    H132381   1.930   6.557   4.796  0.7858  1.4468 -1.1311
 3630TIP3    H232382   1.907   6.620   4.931  0.3079 -2.6063  0.8261
 3631TIP3   OH232383   2.320   1.933   1.608 -0.2687 -0.2769 -0.3457
 3631TIP3    H132384   2.227   1.911   1.598 -0.9217  1.7228  0.6690
 3631TIP3    H232385   2.331   2.014   1.559  0.8102 -0.2085 -0.0157
 3632TIP3   OH232386   5.231   3.169  15.534 -0.2987  0.0501 -0.2147
 3632TIP3    H132387   5.314   3.150  15.577  2.0841  2.3389 -3.3368
 3632TIP3    H232388   5.247   3.150  15.442 -3.6085 -0.2492 -0.8586
 3633TIP3   OH232389   3.787   1.239   1.059 -0.0468 -0.9175  0.0325
 3633TIP3    H132390   3.845   1.206   0.991 -0.2142 -1.6798  0.2396
 3633TIP3    H232391   3.701   1.242   1.017  0.0748 -0.1371 -0.1682
 3634TIP3   OH232392   5.913   3.724   3.310 -0.2202 -0.2863 -0.1376
 3634TIP3    H132393   5.847   3.726   3.380 -0.4807 -0.9359 -0.3568
 3634TIP3    H232394   5.910   3.635   3.277  1.9209 -0.8089  0.9133
 3635TIP3   OH232395   0.377   1.230   5.074 -0.0477 -0.6931 -0.3565
 3635TIP3    H132396   0.327   1.285   5.015  0.1502  1.3627  1.2879
 3635TIP3    H232397   0.418   1.291   5.136  3.8240 -2.2634 -1.0452
 3636TIP3   OH232398   5.638   1.007  12.862 -0.0597 -0.4324 -0.4601
 3636TIP3    H132399   5.652   1.074  12.795 -1.1707 -1.1228 -1.4351
 3636TIP3    H232400   5.560   1.037  12.909 -0.1932 -0.7300 -0.4920
 3637TIP3   OH232401   0.133   6.391  12.435 -0.0009 -0.1068 -0.2212
 3637TIP3    H132402   0.084   6.426  12.509 -0.5606 -2.2763  0.5034
 3637TIP3    H232403   0.225   6.399  12.461 -0.1955 -1.0384  0.8495
 3638TIP3   OH232404   5.750   0.993  16.411  0.1410 -0.3374  0.1209
 3638TIP3    H132405   5.731   0.978  16.504  1.2406 -0.6276  0.3178
 3638TIP3    H232406   5.683   0.943  16.364 -0.6100  0.0552  0.7467
 3639TIP3   OH232407   0.882   2.654  10.676  0.3445  0.1823 -0.2164
 3639TIP3    H132408   0.959   2.661  10.619 -0.0463  2.5117 -0.5441
 3639TIP3    H232409   0.808   2.674  10.620 -0.3482 -0.3393  0.4837
 3640TIP3   OH232410   0.183   2.483   0.925  0.1322 -0.0008  0.1926
 3640TIP3    H132411   0.118   2.532   0.975  2.6222  2.0059  1.7144
 3640TIP3    H232412   0.186   2.528   0.840  0.5228  0.8437  0.6418
 3641TIP3   OH232413   0.112   6.395   2.562  0.2540  0.0631  0.1198
 3641TIP3    H132414   0.073   6.376   2.648 -0.2639 -0.7432 -0.2921
 3641TIP3    H232415   0.059   6.467   2.528 -0.1868 -0.2926  0.0412
 3642TIP3   OH232416   5.405   0.833   3.411 -0.5992  0.3460 -0.0218
 3642TIP3    H132417   5.414   0.764   3.476 -3.6719  0.0196  0.2081
 3642TIP3    H232418   5.431   0.913   3.457 -0.0015 -0.2571  0.6966
 3643TIP3   OH232419   3.571   5.792  15.571 -0.2031 -0.0402  0.2711
 3643TIP3    H132420   3.604   5.731  15.637 -0.6084 -1.2394 -0.5890
 3643TIP3    H232421   3.497   5.836  15.613  0.4212  0.2686  1.0829
 3644TIP3   OH232422   3.780   3.342  16.164  0.2324  0.2482 -0.3392
 3644TIP3    H132423   3.762   3.413  16.103  1.0680  0.4070 -0.4101
 3644TIP3    H232424   3.866   3.362  16.200  0.3997 -0.6328 -0.2218
 3645TIP3   OH232425   2.843   5.131  13.561 -0.0612  0.1141 -0.0381
 3645TIP3    H132426   2.791   5.154  13.485  0.5323  0.7062 -0.2786
 3645TIP3    H232427   2.858   5.037  13.553 -0.6235  0.0419 -0.2557
 3646TIP3   OH232428   5.231   2.620   5.306  0.6661  0.2814  0.0960
 3646TIP3    H132429   5.213   2.593   5.397 -0.7917 -1.6575 -0.6853
 3646TIP3    H232430   5.169   2.691   5.290  0.1468 -0.1072  0.3123
 3647TIP3   OH232431   5.816   5.195   4.667  0.4427  0.4188  0.1885
 3647TIP3    H132432   5.759   5.124   4.694  0.4734  1.1092  2.2657
 3647TIP3    H232433   5.868   5.159   4.595 -2.0393 -0.4547 -1.2762
 3648TIP3   OH232434   2.675   1.499  16.539  0.3611  0.3200  0.4781
 3648TIP3    H132435   2.718   1.469  16.459  1.0958 -0.5072  1.1691
 3648TIP3    H232436   2.741   1.488  16.607 -0.1424  1.3340  1.1508
 3649TIP3   OH232437   0.647   5.344  15.676 -0.0287 -0.0651 -0.3229
 3649TIP3    H132438   0.709   5.395  15.625 -0.8376  1.1498 -0.1237
 3649TIP3    H232439   0.688   5.335  15.762  0.3645 -0.2273 -0.5282
 3650TIP3   OH232440   2.206   2.617   0.957 -0.7054 -0.1460 -0.3352
 3650TIP3    H132441   2.173   2.627   0.868 -1.3625 -0.8677 -0.1841
 3650TIP3    H232442   2.219   2.707   0.988  2.2182  0.2023 -2.0939
 3651TIP3   OH232443   2.582   2.073   2.143 -0.5279 -0.0536  0.0374
 3651TIP3    H132444   2.498   2.087   2.186 -0.3902  1.0697 -0.0337
 3651TIP3    H232445   2.586   2.140   2.075 -1.1822 -2.3878 -2.4867
 3652TIP3   OH232446   0.920   3.994  15.345  0.1225  0.0026 -0.2789
 3652TIP3    H132447   0.835   3.999  15.302 -0.5767  0.1728  1.0793
 3652TIP3    H232448   0.904   4.026  15.434  2.0006  1.9032 -0.5364
 3653TIP3   OH232449   0.387   4.309  15.569  0.1259 -0.3391 -0.4228
 3653TIP3    H132450   0.387   4.405  15.575  0.2658 -0.3526 -0.1610
 3653TIP3    H232451   0.397   4.280  15.660 -0.8246 -0.6147 -0.4014
 3654TIP3   OH232452   5.169   2.244   4.394  0.1482  0.0491  0.2857
 3654TIP3    H132453   5.139   2.334   4.400 -0.0257 -0.0612  1.3294
 3654TIP3    H232454   5.131   2.211   4.312 -0.9646  0.5049  0.5915
 3655TIP3   OH232455   3.937   6.066  16.637  0.1506  0.4072 -0.1466
 3655TIP3    H132456   3.889   6.146  16.659 -1.2428 -0.6452  0.8143
 3655TIP3    H232457   4.003   6.058  16.706 -0.5402  0.0770  0.4904
 3656TIP3   OH232458   4.868   0.216   6.069  0.0136 -0.0556  0.0705
 3656TIP3    H132459   4.880   0.121   6.078  2.0342  0.2989  1.8271
 3656TIP3    H232460   4.777   0.231   6.095 -0.7603 -1.6069 -1.5090
 3657TIP3   OH232461   1.178   1.391   3.866  0.2815 -0.3358 -0.4659
 3657TIP3    H132462   1.223   1.419   3.946  1.0300 -0.1919 -0.9275
 3657TIP3    H232463   1.094   1.357   3.897  1.3842 -2.2778  0.6339
 3658TIP3   OH232464   0.913   4.737   1.726  0.0196  0.3394 -0.2040
 3658TIP3    H132465   0.884   4.648   1.742  3.9816 -1.6207 -2.3093
 3658TIP3    H232466   0.893   4.753   1.633 -0.3064  1.5560  0.0465
 3659TIP3   OH232467   3.849   0.749  16.038 -0.9052 -0.0010 -0.1708
 3659TIP3    H132468   3.849   0.842  16.018  0.3092 -0.2224 -1.3563
 3659TIP3    H232469   3.782   0.712  15.980 -0.7765  0.0289 -0.3418
 3660TIP3   OH232470   2.091   5.676   3.281 -0.1840  0.0158  0.5713
 3660TIP3    H132471   2.184   5.686   3.301 -0.1021  2.0542 -0.4947
 3660TIP3    H232472   2.087   5.680   3.185 -1.4386  0.8825  0.6401
 3661TIP3   OH232473   4.560   3.487   5.217 -0.9144  0.2303 -0.2703
 3661TIP3    H132474   4.533   3.515   5.129 -0.5579  1.9241  0.1311
 3661TIP3    H232475   4.644   3.443   5.203 -0.2625  1.5366 -0.6751
 3662TIP3   OH232476   3.817   6.464   3.975  0.6662 -0.3700  0.2202
 3662TIP3    H132477   3.822   6.558   3.992  0.3900 -0.2379 -0.3691
 3662TIP3    H232478   3.897   6.443   3.927 -0.2469  0.0247 -1.5965
 3663TIP3   OH232479   2.884   3.099   1.079  0.4765 -0.5208  0.8496
 3663TIP3    H132480   2.877   3.160   1.005 -0.7004 -2.2588 -0.5453
 3663TIP3    H232481   2.939   3.145   1.143 -1.0632  2.3622  0.2656
 3664TIP3   OH232482   3.018   4.344  12.586  0.4285  0.6967 -0.7403
 3664TIP3    H132483   3.059   4.416  12.537  0.4294  1.4432  0.3211
 3664TIP3    H232484   3.079   4.271  12.576  0.1703  0.6381 -2.2852
 3665TIP3   OH232485   1.480   0.000  11.939  0.4306 -0.4033  0.9785
 3665TIP3    H132486   1.481   0.084  11.986  0.9759 -1.3437  2.7416
 3665TIP3    H232487   1.421   0.015  11.865  1.4571  1.8870  0.5351
 3666TIP3   OH232488   1.262   3.212   1.009 -0.3397 -0.7609 -0.1417
 3666TIP3    H132489   1.344   3.172   0.978  0.9080  1.2158  0.4411
 3666TIP3    H232490   1.225   3.255   0.932 -0.2220 -0.6619 -0.1428
 3667TIP3   OH232491   5.754   5.324  10.872 -0.4815  0.2785 -0.2257
 3667TIP3    H132492   5.701   5.381  10.815 -1.3355  0.6752  0.9230
 3667TIP3    H232493   5.838   5.317  10.827 -1.2864  0.1405 -1.8043
 3668TIP3   OH232494   2.467   4.980   2.790  0.2390  0.4169 -0.0043
 3668TIP3    H132495   2.390   4.931   2.759 -1.8887  1.6871  2.8126
 3668TIP3    H232496   2.511   4.920   2.850  0.1866  0.4291  0.0468
 3669TIP3   OH232497   4.888   0.368  16.305 -0.3837 -0.2631 -0.1199
 3669TIP3    H132498   4.808   0.343  16.260 -1.0715  1.7216 -0.0959
 3669TIP3    H232499   4.926   0.436  16.249 -0.6062  1.3643  1.6147
 3670TIP3   OH232500   3.560   3.489  15.480 -0.3498  0.3001  0.4792
 3670TIP3    H132501   3.516   3.544  15.546 -1.4800  2.0723 -1.5848
 3670TIP3    H232502   3.541   3.399  15.506 -3.3638  0.9756  0.9633
 3671TIP3   OH232503   4.189   1.400   6.436  0.5524  0.1883 -0.0955
 3671TIP3    H132504   4.142   1.323   6.468 -1.6687  0.1540 -3.0645
 3671TIP3    H232505   4.165   1.470   6.497 -2.0061 -0.2684 -0.4638
 3672TIP3   OH232506   2.051   2.658  14.033 -0.1830 -0.1445  0.1165
 3672TIP3    H132507   2.019   2.633  13.946  1.3447 -0.4161 -0.4039
 3672TIP3    H232508   1.973   2.659  14.088 -1.1264 -0.3608 -1.1705
 3673TIP3   OH232509   1.288   3.714   1.519  0.7883 -0.2416 -0.6250
 3673TIP3    H132510   1.379   3.718   1.491  0.7168 -2.2909 -1.3334
 3673TIP3    H232511   1.254   3.802   1.504  1.9622 -0.1050 -2.8614
 3674TIP3   OH232512   4.722   2.821   5.557 -0.7256  0.0295  0.2597
 3674TIP3    H132513   4.711   2.791   5.467 -0.9336  1.1662 -0.1153
 3674TIP3    H232514   4.714   2.742   5.610  2.3225 -1.1890 -0.8643
 3675TIP3   OH232515   5.914   3.474   3.188  0.0444  0.2474  0.2799
 3675TIP3    H132516   5.983   3.460   3.123 -1.7970  0.1139 -1.7905
 3675TIP3    H232517   5.921   3.399   3.246 -0.8717 -2.0723 -2.3618
 3676TIP3   OH232518   4.761   0.136  14.457  0.1345 -0.4763 -0.4478
 3676TIP3    H132519   4.668   0.121  14.473  0.5608 -1.8590  0.9118
 3676TIP3    H232520   4.797   0.050  14.434  1.6442 -0.6463  2.2144
 3677TIP3   OH232521   2.474   2.962   5.735 -0.0699  0.6476  0.0107
 3677TIP3    H132522   2.398   2.910   5.761 -0.1252  0.6544 -0.1371
 3677TIP3    H232523   2.536   2.899   5.698 -0.0288  0.6508  0.0730
 3678TIP3   OH232524   5.015   2.421   3.148  0.3849  0.6189 -0.3989
 3678TIP3    H132525   4.990   2.356   3.214  3.1895 -2.0596 -1.7644
 3678TIP3    H232526   4.966   2.397   3.070  0.8291  0.5934 -0.6771
 3679TIP3   OH232527   0.574   2.225  13.715 -0.3678  0.4792  0.2457
 3679TIP3    H132528   0.553   2.287  13.785  1.6486  0.5415  0.8735
 3679TIP3    H232529   0.552   2.272  13.634  0.3810  1.7477  0.7450
 3680TIP3   OH232530   5.178   0.226   5.333 -0.1180 -1.0090  0.5580
 3680TIP3    H132531   5.125   0.183   5.400 -0.0363 -0.8347  0.7363
 3680TIP3    H232532   5.166   0.173   5.255 -2.2133  0.1632 -0.0020
 3681TIP3   OH232533   3.519   0.664  16.159  0.4582  0.1521  0.1480
 3681TIP3    H132534   3.585   0.594  16.154  0.3378  0.0246  0.3443
 3681TIP3    H232535   3.535   0.705  16.244  2.0495  1.8642 -0.8753
 3682TIP3   OH232536   1.235   4.217   5.456 -0.0689  0.5166  0.6118
 3682TIP3    H132537   1.243   4.252   5.545 -0.8246  0.4411  0.7081
 3682TIP3    H232538   1.306   4.260   5.408 -0.8354  2.0393  0.7780
 3683TIP3   OH232539   4.733   5.242  12.352 -0.3511  0.1024 -0.2028
 3683TIP3    H132540   4.690   5.156  12.354  0.7325 -0.4469  0.3042
 3683TIP3    H232541   4.814   5.227  12.304 -0.7126  1.1358 -1.1734
 3684TIP3   OH232542   0.375   4.952  12.418 -0.2201 -0.1593  0.1663
 3684TIP3    H132543   0.428   5.030  12.400 -2.2830  1.1556 -0.6217
 3684TIP3    H232544   0.315   4.980  12.488  0.7161 -1.9082  1.7399
 3685TIP3   OH232545   1.386   6.515  14.391 -0.5340 -0.4182 -0.4792
 3685TIP3    H132546   1.412   6.428  14.421 -1.6295 -0.6976 -0.3047
 3685TIP3    H232547   1.299   6.528  14.427  0.4877  1.7237  1.4395
 3686TIP3   OH232548   3.743   2.029  11.627 -0.2645 -0.1874  0.0880
 3686TIP3    H132549   3.676   1.980  11.675  0.7859 -2.4346 -0.5781
 3686TIP3    H232550   3.752   1.981  11.545  1.9128  0.2241  0.0338
 3687TIP3   OH232551   5.251   0.909  16.052 -0.0154  0.3398  0.7500
 3687TIP3    H132552   5.211   0.902  16.139  0.1522  0.5075  0.8389
 3687TIP3    H232553   5.343   0.927  16.069 -0.4552  3.1704  0.5292
 3688TIP3   OH232554   3.116   3.626  16.710 -0.5243 -0.3240  0.4823
 3688TIP3    H132555   3.075   3.590  16.788  0.4030  2.5325  2.4675
 3688TIP3    H232556   3.207   3.640  16.735 -0.4697  1.7957 -0.6745
 3689TIP3   OH232557   0.789   1.103   1.748 -0.1497 -0.3016 -0.3106
 3689TIP3    H132558   0.775   1.182   1.799 -1.5924 -0.4522 -0.4247
 3689TIP3    H232559   0.874   1.116   1.706 -0.2747  1.0937 -0.1798
 3690TIP3   OH232560   4.976   2.507   0.519 -0.5859 -0.4376  0.4681
 3690TIP3    H132561   4.995   2.546   0.433 -0.0748 -0.6334  0.4884
 3690TIP3    H232562   4.942   2.420   0.498  2.0540 -1.5663  0.4931
 3691TIP3   OH232563   4.186   0.584   6.605 -0.2753  0.0596  0.2475
 3691TIP3    H132564   4.118   0.530   6.566  0.4580 -0.5613 -0.2090
 3691TIP3    H232565   4.251   0.522   6.638  0.2334  0.6414  0.3761
 3692TIP3   OH232566   1.734   0.612  13.977 -0.5805 -0.0513  0.3623
 3692TIP3    H132567   1.807   0.674  13.970 -2.1803  1.7146 -2.3041
 3692TIP3    H232568   1.769   0.530  13.941 -0.5538  1.5531 -3.8228
 3693TIP3   OH232569   0.707   5.962  11.428  0.2830  0.2251  0.2040
 3693TIP3    H132570   0.683   6.028  11.493  2.7724 -0.0741  1.5273
 3693TIP3    H232571   0.712   5.880  11.478  2.7289  0.0760 -0.1909
 3694TIP3   OH232572   5.849   1.183  16.823  0.4746 -0.4781  0.2709
 3694TIP3    H132573   5.861   1.089  16.834 -0.2830 -0.5535  0.5106
 3694TIP3    H232574   5.757   1.199  16.845  0.7849  0.4360  1.0135
 3695TIP3   OH232575   6.490   5.386  15.802 -0.2978 -0.3202 -0.3197
 3695TIP3    H132576   6.449   5.324  15.863  2.0255 -1.8781 -0.2118
 3695TIP3    H232577   6.453   5.363  15.717 -2.2853  0.7368  0.2081
 3696TIP3   OH232578   3.311   6.715   1.661 -0.1474 -0.0308 -0.3307
 3696TIP3    H132579   3.302   6.624   1.689  0.0744 -0.1763 -0.7267
 3696TIP3    H232580   3.228   6.735   1.617  0.6237 -0.7509 -2.2206
 3697TIP3   OH232581   3.961   4.571   5.863  0.3741  0.1924 -0.0344
 3697TIP3    H132582   3.949   4.478   5.881  0.2112  0.3660  0.7909
 3697TIP3    H232583   4.055   4.581   5.849  0.5161  0.0413  0.7520
 3698TIP3   OH232584   5.296   4.594  15.196 -0.2498 -0.9830 -0.5884
 3698TIP3    H132585   5.351   4.536  15.142  0.3307  1.0000 -2.2771
 3698TIP3    H232586   5.332   4.681  15.181 -1.6461 -0.0404  1.1542
 3699TIP3   OH232587   0.815   0.136   2.994  0.1037 -0.3880 -0.0663
 3699TIP3    H132588   0.753   0.190   2.944  1.3321  0.2695 -0.9351
 3699TIP3    H232589   0.878   0.199   3.029  0.3365 -1.0515  0.7396
 3700TIP3   OH232590   0.765   0.607  11.044 -0.1763  0.4797 -0.0620
 3700TIP3    H132591   0.756   0.699  11.069 -1.8597  0.5756 -0.8765
 3700TIP3    H232592   0.841   0.606  10.986 -1.2015  1.7283 -1.5131
 3701TIP3   OH232593   1.570   3.396  11.138  0.7644  0.5404 -0.1437
 3701TIP3    H132594   1.637   3.343  11.094 -0.6871 -2.9727  1.4591
 3701TIP3    H232595   1.499   3.403  11.073  1.1261  0.8566 -0.5065
 3702TIP3   OH232596   4.666   2.818  15.014  0.4158 -0.9462  0.2903
 3702TIP3    H132597   4.605   2.792  15.083  0.9448  1.2723  1.7276
 3702TIP3    H232598   4.643   2.764  14.939 -1.4716 -2.1025  1.6184
 3703TIP3   OH232599   5.969   0.568  14.953  0.5693  0.1881  0.1826
 3703TIP3    H132600   5.893   0.601  14.905 -0.3819 -0.7494  1.0106
 3703TIP3    H232601   5.961   0.473  14.948  2.4484  0.0353 -0.8886
 3704TIP3   OH232602   5.055   6.106   2.802 -0.3275 -0.1315 -0.0792
 3704TIP3    H132603   5.101   6.032   2.842  0.0358  0.0290 -0.2040
 3704TIP3    H232604   4.989   6.130   2.868 -0.8974 -0.9910 -0.3155
 3705TIP3   OH232605   5.739   4.046   0.419  0.1675 -0.1811 -0.0754
 3705TIP3    H132606   5.688   4.018   0.344  0.5471 -0.2713 -0.3039
 3705TIP3    H232607   5.779   3.965   0.452 -0.2809 -0.1988  0.4424
 3706TIP3   OH232608   0.674   1.075   0.708 -0.1047  0.5504 -0.0261
 3706TIP3    H132609   0.625   1.038   0.782  1.4596  1.1357  1.3890
 3706TIP3    H232610   0.665   1.010   0.639 -4.5369  1.5386 -0.6695
 3707TIP3   OH232611   4.346   1.430  14.866 -0.5817 -0.4479  0.0889
 3707TIP3    H132612   4.395   1.348  14.873  1.0561  0.4701 -0.1887
 3707TIP3    H232613   4.397   1.483  14.805 -1.8317  0.6441 -0.0486
 3708TIP3   OH232614   1.756   5.333  16.661  0.5307  0.5900 -0.2984
 3708TIP3    H132615   1.794   5.245  16.657 -1.1648 -0.1974 -0.1021
 3708TIP3    H232616   1.680   5.323  16.718  0.0189  2.0860 -0.6803
 3709TIP3   OH232617   0.440   0.859  16.310 -0.0202  0.2768 -0.5458
 3709TIP3    H132618   0.502   0.900  16.250 -1.1393  1.6609 -0.7944
 3709TIP3    H232619   0.377   0.815  16.254 -1.0151  1.4947 -0.4155
 3710TIP3   OH232620   3.335   3.048  12.570  0.2215  0.3472  0.6101
 3710TIP3    H132621   3.350   3.141  12.555 -0.8655  0.6730  1.4331
 3710TIP3    H232622   3.406   3.020  12.628  1.0724  0.4240 -0.3530
 3711TIP3   OH232623   4.478   3.685  11.869  0.0306  0.1047  0.2548
 3711TIP3    H132624   4.524   3.608  11.835  0.2315 -0.1165  0.9921
 3711TIP3    H232625   4.547   3.752  11.877 -0.2665  0.5923 -1.0134
 3712TIP3   OH232626   6.368   0.739  14.290 -0.0066  0.0938  0.4463
 3712TIP3    H132627   6.292   0.721  14.345 -0.8261 -1.0939 -1.0252
 3712TIP3    H232628   6.413   0.810  14.336 -1.7498  0.5489  1.5712
 3713TIP3   OH232629   3.092   4.393   0.713  0.8274 -0.3881 -0.5987
 3713TIP3    H132630   3.153   4.327   0.679  0.4642 -0.0934 -1.8676
 3713TIP3    H232631   3.133   4.476   0.692  0.4062 -0.1961 -0.6684
 3714TIP3   OH232632   1.910   6.039  13.578 -0.2003  0.2920 -0.6070
 3714TIP3    H132633   1.919   5.984  13.501  0.6579  1.1135 -1.1241
 3714TIP3    H232634   1.816   6.055  13.586 -0.4358 -1.0669 -0.5590
 3715TIP3   OH232635   5.796   2.215   6.404 -0.5730  0.1901 -0.3721
 3715TIP3    H132636   5.777   2.201   6.497 -0.0038 -0.4999 -0.3524
 3715TIP3    H232637   5.764   2.136   6.361  0.7524 -0.2960 -0.5316
 3716TIP3   OH232638   6.508   0.152   4.694 -0.1312  0.1917  0.6210
 3716TIP3    H132639   6.555   0.158   4.611 -1.1934  0.5076  0.0234
 3716TIP3    H232640   6.419   0.127   4.669  0.0057 -1.7270  1.8211
 3717TIP3   OH232641   1.261   3.761   1.182  0.5661  0.0256  0.0592
 3717TIP3    H132642   1.351   3.788   1.200  0.5905  0.1164 -0.1912
 3717TIP3    H232643   1.269   3.674   1.144  0.5772  0.1877 -0.3179
 3718TIP3   OH232644   5.001   3.174   1.941  0.1886  0.8267  0.7190
 3718TIP3    H132645   4.918   3.188   1.987 -0.8913  3.3803 -1.7366
 3718TIP3    H232646   5.043   3.259   1.941  0.9471  0.5041 -1.4643
 3719TIP3   OH232647   6.044   0.843  15.457  0.3773 -0.4404  0.1261
 3719TIP3    H132648   6.011   0.753  15.454 -1.7412  0.2548  0.7497
 3719TIP3    H232649   5.997   0.883  15.530  1.6319  1.0590  0.1648
 3720TIP3   OH232650   0.484   3.269  13.751  0.4994  0.4713  0.1139
 3720TIP3    H132651   0.453   3.230  13.669 -0.7864 -1.6792  1.5188
 3720TIP3    H232652   0.407   3.311  13.789  0.6908  0.0875  0.9535
 3721TIP3   OH232653   1.552   1.712  11.815 -0.2756 -0.0751  0.4760
 3721TIP3    H132654   1.599   1.629  11.816 -1.4279 -0.8830 -1.9938
 3721TIP3    H232655   1.584   1.757  11.737 -2.4111 -0.0010 -0.4468
 3722TIP3   OH232656   1.937   2.741  11.935  0.0122  0.4185  0.3992
 3722TIP3    H132657   1.995   2.696  11.874 -0.7195  0.7643 -0.5756
 3722TIP3    H232658   1.865   2.773  11.881  0.0775  2.0249  1.1795
 3723TIP3   OH232659   1.571   0.005   1.356 -0.6285 -0.1809 -0.2665
 3723TIP3    H132660   1.563   0.000   1.452 -0.3043  2.1544 -0.0633
 3723TIP3    H232661   1.625  -0.070   1.332 -0.8407 -0.8934  1.3645
 3724TIP3   OH232662   3.486   4.580  11.564  0.2253  0.6709  0.1974
 3724TIP3    H132663   3.482   4.653  11.502  0.2862  1.1855  0.7967
 3724TIP3    H232664   3.574   4.545  11.553 -0.1261  0.0549 -0.7948
 3725TIP3   OH232665   2.754   3.166  11.016 -0.2227 -0.2574  0.4445
 3725TIP3    H132666   2.822   3.115  10.970 -0.9947 -1.3911  0.5014
 3725TIP3    H232667   2.710   3.214  10.946  0.2607  0.0415  0.3364
 3726TIP3   OH232668   0.024   2.795   4.886  0.0118 -0.5857 -0.3590
 3726TIP3    H132669   0.015   2.875   4.834 -0.7330 -1.4234 -1.5711
 3726TIP3    H232670  -0.066   2.762   4.895  0.3586 -1.5138 -0.2389
 3727TIP3   OH232671   0.550   0.563   5.055 -0.3173 -0.6055  0.0505
 3727TIP3    H132672   0.473   0.590   5.105 -0.1915 -0.2919  0.0773
 3727TIP3    H232673   0.527   0.579   4.964 -0.6026 -1.3168 -0.0100
 3728TIP3   OH232674   0.854   2.240   6.007  0.0325  0.1535  0.5596
 3728TIP3    H132675   0.864   2.266   6.099 -0.1433  0.6683  0.4337
 3728TIP3    H232676   0.763   2.209   6.001 -0.2713  1.0694  0.3299
 3729TIP3   OH232677   3.894   3.946  16.023 -0.6625  0.0667  0.3571
 3729TIP3    H132678   3.962   4.009  15.998 -0.2164 -0.8185 -0.8210
 3729TIP3    H232679   3.814   3.978  15.981 -0.1424 -0.8326 -1.4377
 3730TIP3   OH232680   5.936   6.823   1.073 -0.1723  0.3304  0.3974
 3730TIP3    H132681   5.953   6.916   1.085 -0.8631  0.6173 -0.6637
 3730TIP3    H232682   6.017   6.788   1.037 -0.9956  1.3050 -2.7828
 3731TIP3   OH232683   2.045   0.673  13.442 -0.0018  0.0754 -0.5000
 3731TIP3    H132684   2.140   0.665  13.427 -0.4925 -0.5274 -4.3034
 3731TIP3    H232685   2.007   0.604  13.389 -2.6537  0.8377  0.2840
 3732TIP3   OH232686   2.602   5.610  15.056  0.2292  0.1772  0.1722
 3732TIP3    H132687   2.572   5.523  15.082 -1.9064  0.3934 -1.3368
 3732TIP3    H232688   2.689   5.595  15.019  0.0005 -1.2819  0.1670
 3733TIP3   OH232689   0.350   3.346   4.266 -0.5575 -0.6934 -0.2806
 3733TIP3    H132690   0.347   3.442   4.274 -2.3159 -0.5540 -1.8849
 3733TIP3    H232691   0.406   3.318   4.338  0.9494  1.6060 -0.4559
 3734TIP3   OH232692   5.252   4.744   0.039  0.3494 -0.1357  0.0609
 3734TIP3    H132693   5.215   4.737  -0.049  0.5681  1.4864 -0.1816
 3734TIP3    H232694   5.193   4.804   0.086  0.4891 -0.6180  0.8849
 3735TIP3   OH232695   3.914   4.970   3.706  0.3367  0.1892  0.3461
 3735TIP3    H132696   4.005   4.946   3.692  0.9779  1.8810  1.3103
 3735TIP3    H232697   3.893   4.936   3.793 -0.6878 -2.0967 -0.7139
 3736TIP3   OH232698   2.125   5.211  15.060  0.0600  0.8317 -0.1107
 3736TIP3    H132699   2.158   5.263  14.987  1.0035 -2.8385 -2.5629
 3736TIP3    H232700   2.196   5.151  15.082 -0.4760  1.2746  3.4226
 3737TIP3   OH232701   3.025   2.063  14.301  0.1988  0.3548  0.3118
 3737TIP3    H132702   3.046   1.970  14.306 -1.1211  0.0322  0.2700
 3737TIP3    H232703   2.992   2.076  14.212 -1.2968  0.4705  0.8665
 3738TIP3   OH232704   6.777   0.828   6.670 -0.0627 -0.4875 -0.4779
 3738TIP3    H132705   6.825   0.892   6.722 -1.8245  0.2799  0.2660
 3738TIP3    H232706   6.717   0.880   6.617 -2.3715 -1.4919  0.9883
 3739TIP3   OH232707   3.686   6.345   0.719 -0.5012  0.1213 -0.4260
 3739TIP3    H132708   3.698   6.439   0.708 -2.1255  0.2366 -1.5722
 3739TIP3    H232709   3.771   6.313   0.749  0.4325  1.7652 -1.2111
 3740TIP3   OH232710   3.281   4.649  13.044  0.5250 -0.6197  0.1779
 3740TIP3    H132711   3.369   4.641  13.081  0.6561  0.8265  0.2393
 3740TIP3    H232712   3.237   4.711  13.103 -0.4120 -1.0390 -0.0775
 3741TIP3   OH232713   4.891   4.297  13.757  0.1762  0.5561  0.4912
 3741TIP3    H132714   4.817   4.357  13.765 -0.2827 -0.0806  1.0464
 3741TIP3    H232715   4.881   4.258  13.670 -1.8293 -1.6911  1.6072
 3742TIP3   OH232716   4.797   2.711  14.740 -0.0533 -0.1723 -0.1646
 3742TIP3    H132717   4.711   2.683  14.771  1.3188 -1.4094  2.9157
 3742TIP3    H232718   4.849   2.631  14.734  1.1671  0.6285 -1.0957
 3743TIP3   OH232719   5.016   6.691   0.359  0.4689 -0.1181 -0.6392
 3743TIP3    H132720   5.031   6.672   0.266 -0.4964 -0.3089 -0.7620
 3743TIP3    H232721   4.961   6.769   0.360 -1.8600 -1.6775 -0.3340
 3744TIP3   OH232722   5.408   4.325   5.689 -0.2175  0.3824  0.1731
 3744TIP3    H132723   5.366   4.401   5.649  0.6890  1.7197  1.5954
 3744TIP3    H232724   5.391   4.335   5.783  1.1348 -0.3783  0.5325
 3745TIP3   OH232725   4.511   2.904  11.202 -0.3429  0.1079  0.7229
 3745TIP3    H132726   4.472   2.822  11.172  0.1906 -0.1132  0.6245
 3745TIP3    H232727   4.597   2.879  11.237 -0.1611  0.6272  0.6623
 3746TIP3   OH232728   5.182   2.731  15.396 -0.4102 -0.3753 -0.1772
 3746TIP3    H132729   5.171   2.702  15.486 -1.3409  1.9105  0.5062
 3746TIP3    H232730   5.164   2.825  15.398 -1.3179 -0.3985 -2.9043
 3747TIP3   OH232731   3.675   0.979   1.407 -0.0826  0.6836  0.0677
 3747TIP3    H132732   3.700   0.965   1.499 -0.2541  0.5007  0.0862
 3747TIP3    H232733   3.580   0.972   1.407 -0.2086  2.1104  0.1237
 3748TIP3   OH232734   4.528   1.731  11.524  0.3513  0.3761  0.3312
 3748TIP3    H132735   4.508   1.743  11.431 -0.5064 -0.3248  0.4126
 3748TIP3    H232736   4.472   1.795  11.569 -0.9394 -0.7961  0.4825
 3749TIP3   OH232737   6.037   4.611  11.688  0.6578 -0.8582  0.0776
 3749TIP3    H132738   5.992   4.622  11.772  0.5575  0.7693 -0.1505
 3749TIP3    H232739   6.117   4.663  11.697  0.3841 -0.2116 -1.0020
 3750TIP3   OH232740   0.386   5.895  11.788 -0.2972 -0.4506 -0.2054
 3750TIP3    H132741   0.413   5.820  11.734  1.8086  0.6623 -0.8012
 3750TIP3    H232742   0.378   5.859  11.876  2.1100 -1.1584 -0.2082
 3751TIP3   OH232743   2.139   0.076  16.952 -0.0905  0.3236  0.3926
 3751TIP3    H132744   2.056   0.122  16.969  0.3859  1.4696 -0.2587
 3751TIP3    H232745   2.189   0.087  17.033 -0.4862 -0.2110  0.7188
 3752TIP3   OH232746   1.622   0.227   0.635  0.9251  0.0952  0.2929
 3752TIP3    H132747   1.683   0.171   0.684  2.3364  1.3946  0.1039
 3752TIP3    H232748   1.580   0.281   0.701 -0.6602 -1.3185  0.5080
 3753TIP3   OH232749   3.283   0.868  11.041  0.3041  0.0619 -0.0505
 3753TIP3    H132750   3.369   0.840  11.070  0.1824 -0.5788 -0.2957
 3753TIP3    H232751   3.261   0.809  10.969 -0.5197 -0.0564  0.2813
 3754TIP3   OH232752   5.824   5.613   1.584  0.2824  0.1882  0.1400
 3754TIP3    H132753   5.795   5.633   1.673  1.4007  0.2502  0.5156
 3754TIP3    H232754   5.836   5.699   1.543  1.0991  0.2009  0.3922
 3755TIP3   OH232755   1.161   2.224  13.257 -0.0360 -0.3125 -0.2966
 3755TIP3    H132756   1.202   2.164  13.196  1.2545  0.7249 -0.4874
 3755TIP3    H232757   1.160   2.177  13.341  1.5438 -0.3937 -0.2933
 3756TIP3   OH232758   0.100   0.425   3.936 -0.4644 -0.1869 -0.2211
 3756TIP3    H132759   0.193   0.409   3.956 -0.8249 -0.4583  1.3606
 3756TIP3    H232760   0.064   0.338   3.918 -0.8609 -0.3549  1.2872
 3757TIP3   OH232761   5.848   2.153   5.948  0.4905  0.3992 -0.5501
 3757TIP3    H132762   5.855   2.189   6.036 -1.0946 -0.1864 -0.1506
 3757TIP3    H232763   5.918   2.196   5.898  0.2065  2.1692  0.5031
 3758TIP3   OH232764   3.728   1.109   4.190 -0.1910 -0.0046  0.4002
 3758TIP3    H132765   3.780   1.189   4.195  1.5179 -0.8286 -2.3577
 3758TIP3    H232766   3.755   1.058   4.266  1.5936  0.4426  0.0984
 3759TIP3   OH232767   5.243   4.229  17.106 -0.1746 -0.2154  0.3031
 3759TIP3    H132768   5.251   4.294  17.175  2.2993 -0.2093  0.1058
 3759TIP3    H232769   5.331   4.223  17.069 -0.5541 -2.9516 -0.3527
 3760TIP3   OH232770   4.887   4.899   3.075 -0.0455  0.5480 -0.1977
 3760TIP3    H132771   4.938   4.930   3.150  1.0516 -1.5883  0.0113
 3760TIP3    H232772   4.798   4.891   3.109  0.4735 -0.5855  0.9919
 3761TIP3   OH232773   6.378   5.124  11.900 -0.1554 -0.9065  0.4268
 3761TIP3    H132774   6.387   5.082  11.814  0.6745 -2.8062  1.3898
 3761TIP3    H232775   6.306   5.187  11.888  1.1595  0.2578 -2.1273
 3762TIP3   OH232776   4.314   2.281   1.917  0.1758 -0.3394 -0.9181
 3762TIP3    H132777   4.349   2.329   1.992 -2.8949 -1.2012  1.2490
 3762TIP3    H232778   4.277   2.349   1.861  0.4029  0.1679 -0.4685
 3763TIP3   OH232779   5.511   5.669  16.510  0.8369  0.2518 -0.1767
 3763TIP3    H132780   5.504   5.607  16.438  1.3836  0.6500 -0.5747
 3763TIP3    H232781   5.601   5.700  16.507  1.0118 -0.0837  0.9762
 3764TIP3   OH232782   3.555   2.695  16.468  0.4969  0.5192 -0.1206
 3764TIP3    H132783   3.461   2.687  16.485  0.2582 -0.0201 -1.5662
 3764TIP3    H232784   3.569   2.788  16.451  0.1911  0.5801 -0.0410
 3765TIP3   OH232785   6.688   6.764   2.208  0.1576  0.4179 -0.1574
 3765TIP3    H132786   6.747   6.827   2.167  0.3400  1.4572  1.6110
 3765TIP3    H232787   6.711   6.680   2.167  2.0557  0.9867 -0.3671
 3766TIP3   OH232788   6.812   5.706  14.445  0.4196  0.3343  0.1899
 3766TIP3    H132789   6.837   5.798  14.447  0.3586  0.3926 -0.8766
 3766TIP3    H232790   6.751   5.695  14.517 -0.8213  1.5127 -0.6418
 3767TIP3   OH232791   5.967   1.631  13.612 -0.4715 -0.0947 -0.1618
 3767TIP3    H132792   5.918   1.549  13.619 -0.6857  0.0368 -0.1075
 3767TIP3    H232793   6.059   1.604  13.610 -0.5367 -0.3299 -0.0197
 3768TIP3   OH232794   4.923   4.749  10.583 -0.0679  0.1581 -0.0951
 3768TIP3    H132795   4.868   4.673  10.564 -0.4411  1.1211 -3.6701
 3768TIP3    H232796   4.868   4.805  10.639 -0.5321 -1.2947  0.9473
 3769TIP3   OH232797   6.771   6.319  13.041 -0.0238  0.4338 -0.6719
 3769TIP3    H132798   6.842   6.356  12.988  3.8943 -2.3163  2.0081
 3769TIP3    H232799   6.751   6.387  13.106  1.2052  0.8394 -0.6833
 3770TIP3   OH232800   0.223   4.045   5.402 -0.1166  0.0311 -0.2259
 3770TIP3    H132801   0.292   4.001   5.353  0.4047 -1.8616  2.0068
 3770TIP3    H232802   0.165   3.974   5.430 -0.7669  1.0945  1.2572
 3771TIP3   OH232803   0.806   3.528  17.275 -0.2554  0.6093  0.5771
 3771TIP3    H132804   0.835   3.437  17.285  0.5378  0.8147  0.2727
 3771TIP3    H232805   0.887   3.577  17.259 -0.7474  1.2720  0.0571
 3772TIP3   OH232806   0.256   4.631  16.287 -0.1274 -0.4179  0.1571
 3772TIP3    H132807   0.295   4.629  16.199 -0.3444  0.0993  0.0434
 3772TIP3    H232808   0.212   4.716  16.291 -3.1301 -1.8344 -0.5184
 3773TIP3   OH232809   2.004   2.989  15.220  0.0015  0.1395  0.0158
 3773TIP3    H132810   2.034   3.008  15.309  0.9414  0.8192 -0.4253
 3773TIP3    H232811   1.917   3.028  15.215 -0.0005  0.2177  0.5960
 3774TIP3   OH232812   0.799   4.737  12.990  0.7587  0.2737 -0.2351
 3774TIP3    H132813   0.809   4.649  13.027  1.1722 -0.0158 -1.0222
 3774TIP3    H232814   0.870   4.746  12.928 -0.2065  0.5550 -1.3409
 3775TIP3   OH232815   4.432   1.107   1.226  0.1001 -0.2621 -0.0234
 3775TIP3    H132816   4.482   1.030   1.255  0.0363 -0.3975 -0.2766
 3775TIP3    H232817   4.423   1.096   1.132  0.2878  0.1738 -0.0945
 3776TIP3   OH232818   1.949   2.982  16.601 -0.2536  0.0444 -0.0565
 3776TIP3    H132819   1.967   3.008  16.510  0.8924  0.0004  0.1374
 3776TIP3    H232820   1.933   3.064  16.647  0.9213  0.2273  0.0521
 3777TIP3   OH232821   0.111   2.773  14.886  0.5189 -0.1064 -0.4173
 3777TIP3    H132822   0.142   2.770  14.795  0.8465 -1.1602 -0.2808
 3777TIP3    H232823   0.148   2.695  14.927  1.7398  1.1893  1.0805
 3778TIP3   OH232824   5.193   1.311   6.123 -0.6756 -0.0613 -0.8150
 3778TIP3    H132825   5.140   1.261   6.186 -1.2059  0.1489 -1.0915
 3778TIP3    H232826   5.130   1.340   6.057  0.1969 -2.1559 -2.6815
 3779TIP3   OH232827   3.024   4.184   6.152  0.0079  0.0052 -0.0457
 3779TIP3    H132828   3.082   4.248   6.194  0.0160 -1.5993  2.6087
 3779TIP3    H232829   2.970   4.149   6.223 -0.8056 -2.1096 -1.5720
 3780TIP3   OH232830   1.528   1.338   1.734 -0.0375 -0.3700  0.3061
 3780TIP3    H132831   1.474   1.386   1.670  1.3282 -0.9886 -1.3986
 3780TIP3    H232832   1.496   1.248   1.729 -0.8149 -0.1722  1.5166
 3781TIP3   OH232833   6.061   4.085  12.809 -0.0050 -0.0253 -0.6376
 3781TIP3    H132834   6.121   4.011  12.821  0.0851 -0.0519 -1.2390
 3781TIP3    H232835   6.100   4.137  12.739  0.0684  0.7415 -0.0442
 3782TIP3   OH232836   3.718   0.125  14.882 -0.3319  0.1702  0.9965
 3782TIP3    H132837   3.728   0.211  14.841 -0.0632  1.3571  3.4020
 3782TIP3    H232838   3.625   0.104  14.872 -0.2784  0.4285 -0.1606
 3783TIP3   OH232839   5.897   5.961   3.749  0.2500 -0.4828 -0.2714
 3783TIP3    H132840   5.867   5.871   3.764 -0.8876 -0.4137 -1.8886
 3783TIP3    H232841   5.881   6.006   3.832  0.9213 -1.7785  0.5941
 3784TIP3   OH232842   1.345   4.110   5.133  0.0162  0.5637 -0.1258
 3784TIP3    H132843   1.439   4.118   5.116  0.3270 -2.0997 -0.0734
 3784TIP3    H232844   1.305   4.172   5.073  1.7459  0.7228 -1.2008
 3785TIP3   OH232845   6.229   6.335   4.404  0.7580  0.2235 -0.8124
 3785TIP3    H132846   6.151   6.281   4.418 -0.4128  1.9869 -0.1481
 3785TIP3    H232847   6.217   6.373   4.317  2.0337 -1.2484 -1.6703
 3786TIP3   OH232848   5.282   6.668   4.718 -0.4050 -0.2434 -0.1051
 3786TIP3    H132849   5.360   6.723   4.724 -0.1301 -0.7083  0.6739
 3786TIP3    H232850   5.315   6.579   4.714 -0.8501 -0.3668 -1.5347
 3787TIP3   OH232851   0.883   1.227  15.594  0.4083  0.4278  0.5537
 3787TIP3    H132852   0.852   1.189  15.512  3.1354 -0.8487  0.0005
 3787TIP3    H232853   0.806   1.269  15.632 -1.2165  0.0039 -2.0468
 3788TIP3   OH232854   1.490   2.837   0.751 -0.5513  0.3989  0.5673
 3788TIP3    H132855   1.474   2.924   0.715 -0.3978  0.5390  0.8312
 3788TIP3    H232856   1.412   2.818   0.804 -0.9354  0.0443 -0.1128
 3789TIP3   OH232857   2.667   3.335  12.280  1.0230  0.1021  0.2681
 3789TIP3    H132858   2.659   3.386  12.361  0.1109 -1.6071  1.2956
 3789TIP3    H232859   2.592   3.363  12.227  1.1910  0.6594  0.3097
 3790TIP3   OH232860   6.021   2.524   5.520 -0.5396 -0.5419  0.4477
 3790TIP3    H132861   5.963   2.595   5.491 -0.7408 -0.8389  0.1129
 3790TIP3    H232862   6.070   2.561   5.593 -0.4255  0.0418  0.0793
 3791TIP3   OH232863   0.715   4.366   2.714 -1.0622  0.6557  0.1819
 3791TIP3    H132864   0.674   4.324   2.639  0.2145  1.7116 -1.1665
 3791TIP3    H232865   0.646   4.420   2.752 -1.9984 -0.6558  0.4091
 3792TIP3   OH232866   3.607   2.901   4.273 -0.0818 -0.2230 -0.4220
 3792TIP3    H132867   3.671   2.854   4.220 -1.3781  0.5991 -2.8683
 3792TIP3    H232868   3.658   2.966   4.321  1.1890 -1.2389 -0.3689
 3793TIP3   OH232869   2.160   0.002  14.656 -0.0453  0.8993 -0.4517
 3793TIP3    H132870   2.136   0.088  14.623 -2.7043  0.0418 -0.9768
 3793TIP3    H232871   2.162  -0.054  14.579  1.2567  0.3689 -0.0653
 3794TIP3   OH232872   5.241   6.503   3.930  0.0823  0.1880  0.0773
 3794TIP3    H132873   5.280   6.513   4.016 -0.0330  0.4542  0.1018
 3794TIP3    H232874   5.312   6.522   3.868 -0.1290  1.1869  0.1240
 3795TIP3   OH232875   3.377   4.220  11.896  0.0207 -0.2500 -0.1785
 3795TIP3    H132876   3.320   4.283  11.853 -2.6645 -1.2505  1.6518
 3795TIP3    H232877   3.457   4.268  11.916 -1.4268  2.1974  0.0307
 3796TIP3   OH232878   4.884   0.301  13.507 -0.5794 -0.0483  0.1758
 3796TIP3    H132879   4.921   0.390  13.499 -0.4289 -0.1692 -0.5574
 3796TIP3    H232880   4.795   0.315  13.540 -1.4287  0.5657 -2.1986
 3797TIP3   OH232881   5.292   2.282   0.909  0.2347 -0.4342  0.1139
 3797TIP3    H132882   5.280   2.365   0.955  2.9942  0.0342  0.1320
 3797TIP3    H232883   5.262   2.300   0.819  0.9661  0.6544  0.0747
 3798TIP3   OH232884   0.191   5.169  13.689 -0.5904  0.5125  0.3742
 3798TIP3    H132885   0.158   5.251  13.650  0.6864  0.8023 -0.1414
 3798TIP3    H232886   0.213   5.193  13.779  1.7263  1.3364 -0.3315
 3799TIP3   OH232887   0.078   2.525  13.044  0.4151  0.0298 -0.0990
 3799TIP3    H132888   0.137   2.493  13.112  2.1394  1.6659 -0.7633
 3799TIP3    H232889   0.015   2.580  13.090 -1.2221 -2.3432  0.7284
 3800TIP3   OH232890   1.906   1.343  10.955 -0.2755  0.3683  0.4682
 3800TIP3    H132891   1.849   1.329  11.030 -1.5439  1.1915 -0.2954
 3800TIP3    H232892   1.855   1.399  10.896 -0.3252 -2.1496 -2.0868
 3801TIP3   OH232893   6.208   2.720   4.425 -0.0648 -0.4488 -0.2262
 3801TIP3    H132894   6.189   2.812   4.447  1.9901 -0.1919  0.6918
 3801TIP3    H232895   6.232   2.722   4.332  1.2951  0.2110  0.1089
 3802TIP3   OH232896   4.225   5.007  12.319 -0.0973 -0.4457  0.1142
 3802TIP3    H132897   4.295   5.060  12.357 -1.9143  1.5713  0.8651
 3802TIP3    H232898   4.204   5.050  12.236 -0.9711 -0.5300  0.2783
 3803TIP3   OH232899   1.301   6.680  13.197  0.4946 -0.2575 -0.4218
 3803TIP3    H132900   1.210   6.681  13.168  1.3350 -0.1073 -3.5153
 3803TIP3    H232901   1.332   6.592  13.175  1.5471  0.3017 -1.3291
 3804TIP3   OH232902   5.911   4.056   0.866 -0.0239  0.1029 -0.1706
 3804TIP3    H132903   5.848   4.012   0.923 -0.0645 -2.2672 -1.9125
 3804TIP3    H232904   5.857   4.116   0.813 -0.4795 -0.1974 -0.0545
 3805TIP3   OH232905   0.156   5.199  14.776 -0.1965 -0.2798 -0.1220
 3805TIP3    H132906   0.213   5.125  14.796  0.8465  0.5101 -0.0977
 3805TIP3    H232907   0.197   5.242  14.700 -0.8143  0.2362 -0.1746
 3806TIP3   OH232908   2.811   2.104   3.121 -0.1277 -0.3326 -0.4715
 3806TIP3    H132909   2.871   2.178   3.131  0.8507 -0.7740 -2.5964
 3806TIP3    H232910   2.846   2.037   3.179 -1.1104  0.8286  1.6051
 3807TIP3   OH232911   4.510   1.531   2.907  0.2407  0.9098 -0.0794
 3807TIP3    H132912   4.428   1.568   2.874 -0.0923  0.5002  0.2839
 3807TIP3    H232913   4.556   1.606   2.945 -0.5491  0.9286  0.8872
 3808TIP3   OH232914   3.996   5.707   5.092 -0.3682  0.1412 -0.2075
 3808TIP3    H132915   4.021   5.787   5.046  1.5696  0.2340  0.9213
 3808TIP3    H232916   4.005   5.638   5.027  0.6268  0.4951 -0.4554
 3809TIP3   OH232917   0.385   0.886  14.066  0.1420  0.0804  0.1624
 3809TIP3    H132918   0.359   0.939  14.141  0.5652  0.9903 -0.3174
 3809TIP3    H232919   0.310   0.830  14.049 -1.0582  1.7987 -0.4488
 3810TIP3   OH232920   3.435   6.578  15.007  0.3285  0.4354  0.0532
 3810TIP3    H132921   3.518   6.626  15.010 -0.1433  1.3674 -1.0634
 3810TIP3    H232922   3.459   6.488  15.026  2.3832 -0.2766 -4.4918
 3811TIP3   OH232923   3.669   0.730  10.420 -0.4587 -0.1255  0.3268
 3811TIP3    H132924   3.594   0.714  10.478 -1.0141  2.3669  0.4232
 3811TIP3    H232925   3.698   0.643  10.394 -2.7943 -1.2162  1.0516
 3812TIP3   OH232926   3.800   0.796   1.663  0.2599 -0.3005  0.3658
 3812TIP3    H132927   3.796   0.724   1.599  3.1907 -0.7273  0.5663
 3812TIP3    H232928   3.781   0.754   1.747  0.6785 -0.5796  0.3214
 3813TIP3   OH232929   6.429   1.487  17.107 -0.1427  0.2757  0.2451
 3813TIP3    H132930   6.435   1.574  17.145  0.4677 -0.0755  0.9911
 3813TIP3    H232931   6.378   1.498  17.028 -0.7234  1.1808  0.7383
 3814TIP3   OH232932   2.943   0.701  17.213 -0.4234 -0.2357  0.4846
 3814TIP3    H132933   2.996   0.640  17.265  2.0541  1.0828 -0.3183
 3814TIP3    H232934   2.946   0.663  17.125  2.7113  1.7667 -0.4493
 3815TIP3   OH232935   6.272   4.281   0.048 -0.0749  0.2384 -0.1654
 3815TIP3    H132936   6.351   4.289   0.102  0.6046  0.4336 -1.1711
 3815TIP3    H232937   6.219   4.358   0.071  0.5286  0.6931 -0.2819
 3816TIP3   OH232938   0.343   5.285  15.362  0.3925  0.4043 -0.3061
 3816TIP3    H132939   0.399   5.231  15.416  0.8965  0.4883 -0.7381
 3816TIP3    H232940   0.403   5.336  15.308  0.0214 -2.2348 -3.5745
 3817TIP3   OH232941   2.905   2.221  15.199 -0.9096 -0.3686  0.5869
 3817TIP3    H132942   2.925   2.307  15.238 -0.7737 -0.9460  1.8436
 3817TIP3    H232943   2.914   2.160  15.272 -3.4304 -1.1609  0.3321
 3818TIP3   OH232944   4.482   3.227  14.377 -0.1938 -0.1609 -0.1747
 3818TIP3    H132945   4.536   3.201  14.302 -0.7965 -0.5472 -0.4781
 3818TIP3    H232946   4.517   3.312  14.404 -2.0402  1.6467 -2.9543
 3819TIP3   OH232947   6.729   5.086   1.361  0.1060  0.2636  0.7635
 3819TIP3    H132948   6.741   5.066   1.454  0.7895  0.3158  0.6934
 3819TIP3    H232949   6.817   5.109   1.330  0.2552 -1.5381 -0.3162
 3820TIP3   OH232950   4.133   1.547  12.666  0.3265  0.3622  0.2772
 3820TIP3    H132951   4.080   1.623  12.644  0.9943  0.7198 -0.1122
 3820TIP3    H232952   4.095   1.476  12.614  0.9397  0.8693 -0.9021
 3821TIP3   OH232953   1.007   0.429  11.265  0.3992 -0.5461  0.2049
 3821TIP3    H132954   1.005   0.361  11.197 -1.3011  1.0928 -1.5212
 3821TIP3    H232955   1.043   0.506  11.221 -2.4499  1.0941  0.5131
 3822TIP3   OH232956   1.988   1.235   4.398  0.1786 -0.3656 -0.6899
 3822TIP3    H132957   2.004   1.308   4.339  1.3156  0.8299  0.9811
 3822TIP3    H232958   2.074   1.215   4.436 -0.3777 -1.5350  0.0484
 3823TIP3   OH232959   3.617   0.227   2.547  0.3986 -0.1462  0.4197
 3823TIP3    H132960   3.670   0.287   2.599  1.2195 -1.7356  1.5095
 3823TIP3    H232961   3.527   0.244   2.574  0.5594  0.9665  0.2783
 3824TIP3   OH232962   1.958   2.453   4.227  0.4736 -0.2822 -0.2384
 3824TIP3    H132963   1.955   2.498   4.311  0.4598  0.9412 -0.8573
 3824TIP3    H232964   2.051   2.451   4.204  0.4297 -0.1045 -0.4420
 3825TIP3   OH232965   4.622   5.350   3.623 -0.1741  0.4375  0.3648
 3825TIP3    H132966   4.617   5.256   3.639 -0.8050  0.5229  0.6908
 3825TIP3    H232967   4.604   5.390   3.708 -1.0686  0.8593 -0.0044
 3826TIP3   OH232968   1.309   2.586  11.605 -0.4391 -0.8726  0.3190
 3826TIP3    H132969   1.355   2.658  11.647 -2.1947  1.6431 -1.7741
 3826TIP3    H232970   1.328   2.595  11.512 -3.0313 -1.2601 -0.3306
 3827TIP3   OH232971   1.557   3.991  10.829  0.1860  0.5565 -0.5329
 3827TIP3    H132972   1.581   3.932  10.758  0.4998  0.6033 -0.4689
 3827TIP3    H232973   1.462   4.001  10.821  0.1267  0.0240 -0.5217
 3828TIP3   OH232974   0.151   5.233   1.620  0.0930 -0.2537 -0.4329
 3828TIP3    H132975   0.177   5.248   1.530  0.5534 -0.0837 -0.2719
 3828TIP3    H232976   0.233   5.218   1.667  0.0362  1.5425  0.3149
 3829TIP3   OH232977   0.102   4.476   2.303  0.0784  0.6560  0.1193
 3829TIP3    H132978   0.016   4.496   2.265 -0.2324  2.6906  1.7045
 3829TIP3    H232979   0.093   4.498   2.396  1.7693 -0.9467  0.7144
 3830TIP3   OH232980   1.980   3.386  14.250  0.4534 -0.3643  0.0350
 3830TIP3    H132981   2.055   3.366  14.194  0.2940  0.4799 -0.5116
 3830TIP3    H232982   2.004   3.352  14.336  1.5466  0.0659 -0.0846
 3831TIP3   OH232983   0.269   2.090   5.071  0.4583  0.7965 -0.1208
 3831TIP3    H132984   0.222   2.081   4.988  0.9949 -0.3189 -0.3139
 3831TIP3    H232985   0.247   2.011   5.120  0.6057  1.1756  0.5709
 3832TIP3   OH232986   6.006   2.758   2.721 -0.7561 -0.2980  0.0247
 3832TIP3    H132987   5.912   2.741   2.715 -0.6041 -0.7410 -1.3172
 3832TIP3    H232988   6.042   2.728   2.638  0.5886 -0.1720  0.5277
 3833TIP3   OH232989   4.769   1.762   0.540  0.3083 -0.1926 -0.1509
 3833TIP3    H132990   4.774   1.829   0.472  0.3359  0.1650  0.2021
 3833TIP3    H232991   4.683   1.723   0.529  1.1031 -1.6070 -1.7658
 3834TIP3   OH232992   4.500   3.804   4.697 -0.3633 -0.1880  0.3432
 3834TIP3    H132993   4.478   3.896   4.714 -0.3907 -0.0211 -0.5517
 3834TIP3    H232994   4.572   3.785   4.758 -0.8103  0.2187  1.0087
 3835TIP3   OH232995   4.518   5.106  14.207 -0.1559 -0.3222  0.0300
 3835TIP3    H132996   4.566   5.179  14.246 -0.9364  1.0586 -1.4877
 3835TIP3    H232997   4.560   5.092  14.122 -1.9059  0.4396 -1.0254
 3836TIP3   OH232998   2.048   0.004  13.467  0.0085 -0.0505 -0.4214
 3836TIP3    H132999   2.053   0.075  13.402 -1.1832  2.7871  2.3090
 3836TIP3    H233000   2.133   0.008  13.512 -0.0234 -0.4721 -0.3201
 3837TIP3   OH233001   3.580   2.450  15.410  0.0398 -0.1673  0.1974
 3837TIP3    H133002   3.571   2.480  15.320 -0.9585 -1.9028 -0.3299
 3837TIP3    H233003   3.619   2.363  15.402  0.2273 -0.2211  1.4645
 3838TIP3   OH233004   6.781   2.311  13.794  1.0701 -0.1754 -0.4437
 3838TIP3    H133005   6.740   2.390  13.759  2.0524  0.9616  0.8521
 3838TIP3    H233006   6.709   2.264  13.837  0.4932  0.0217 -1.1629
 3839TIP3   OH233007   5.738   1.559  14.397 -0.2367 -0.7165 -0.4867
 3839TIP3    H133008   5.814   1.599  14.439  0.1033 -1.2589 -0.5610
 3839TIP3    H233009   5.742   1.589  14.306 -0.0478 -0.8329 -0.5165
 3840TIP3   OH233010   2.511   0.159   0.255 -0.3116  0.0860  1.1565
 3840TIP3    H133011   2.511   0.247   0.293  0.4012  0.2268  0.8358
 3840TIP3    H233012   2.430   0.156   0.202 -0.4307  0.4801  1.3153
 3841TIP3   OH233013   4.256   2.640   0.439  0.6078  0.1959 -0.1643
 3841TIP3    H133014   4.316   2.707   0.407  2.2831 -2.1041 -2.2664
 3841TIP3    H233015   4.254   2.574   0.369 -0.8990 -1.9669  1.7469
 3842TIP3   OH233016   3.829   2.467   3.057 -0.6978 -0.1561  0.2317
 3842TIP3    H133017   3.838   2.544   3.114  2.5390 -0.2619  0.0768
 3842TIP3    H233018   3.816   2.504   2.970 -1.2864  0.1350  0.4368
 3843TIP3   OH233019   1.440   2.914  15.752 -0.2078  0.2035  1.2725
 3843TIP3    H133020   1.529   2.923  15.716 -0.2124 -0.4861  1.0689
 3843TIP3    H233021   1.454   2.871  15.837 -0.2486  1.2577  1.8250
 3844TIP3   OH233022   2.625   3.721  15.769 -0.6619  0.3585  1.0060
 3844TIP3    H133023   2.692   3.694  15.706 -1.5078  0.1542  0.1480
 3844TIP3    H233024   2.615   3.815  15.755 -0.0749  0.5128  1.6185
 3845TIP3   OH233025   1.093   2.936   0.901  0.0018 -0.1773 -0.3070
 3845TIP3    H133026   1.103   3.004   0.835  1.6738 -2.1982 -2.3187
 3845TIP3    H233027   1.018   2.884   0.871  0.2037 -0.5841 -0.1206
 3846TIP3   OH233028   2.229   0.899  13.978 -0.0172  0.2830  0.2988
 3846TIP3    H133029   2.303   0.906  14.038 -0.9157 -0.8081  1.6004
 3846TIP3    H233030   2.263   0.851  13.903  0.2323 -1.6679  1.5929
 3847TIP3   OH233031   3.058   4.361   4.081 -0.5450 -0.0295 -0.3775
 3847TIP3    H133032   3.112   4.411   4.142 -0.8079 -0.2587  0.0422
 3847TIP3    H233033   3.118   4.297   4.043  0.1774  1.4961 -2.0105
 3848TIP3   OH233034   2.310   4.300   3.012 -0.1545  0.7608 -0.8259
 3848TIP3    H133035   2.225   4.316   2.971 -0.2556 -0.3921 -1.0889
 3848TIP3    H233036   2.289   4.247   3.089  0.4397 -0.6698 -1.6180
 3849TIP3   OH233037   1.297   4.175   6.177 -0.2430  0.2693  0.4334
 3849TIP3    H133038   1.334   4.184   6.089 -1.1605  0.9217  0.0953
 3849TIP3    H233039   1.323   4.087   6.204 -0.4874 -0.1961 -0.7564
 3850TIP3   OH233040   5.792   5.875   5.607  0.4907 -0.2637  0.2561
 3850TIP3    H133041   5.837   5.948   5.650 -0.2542 -0.3560  1.2203
 3850TIP3    H233042   5.795   5.804   5.671 -1.0891 -0.2405  0.3988
 3851TIP3   OH233043   3.454   0.419   3.859  0.1922 -0.3940 -0.5989
 3851TIP3    H133044   3.542   0.455   3.845 -0.2258  1.0077  0.1767
 3851TIP3    H233045   3.468   0.326   3.872  1.8442  0.0893  1.7010
 3852TIP3   OH233046   0.236   3.844  12.199 -0.0819  0.3415 -0.1185
 3852TIP3    H133047   0.189   3.917  12.239  0.3707  0.5080  0.1110
 3852TIP3    H233048   0.282   3.882  12.125 -0.3793  0.1598 -0.4013
 3853TIP3   OH233049   2.200   4.211   4.243 -0.3985 -0.4864  0.0431
 3853TIP3    H133050   2.260   4.155   4.192 -2.0794 -1.5554 -0.8561
 3853TIP3    H233051   2.174   4.280   4.182 -0.1378 -0.0478  0.4197
 3854TIP3   OH233052   5.299   5.579   1.444  0.0066 -0.1288  0.9210
 3854TIP3    H133053   5.393   5.582   1.430 -0.0823  2.4132  0.3529
 3854TIP3    H233054   5.277   5.665   1.480 -2.2927  0.0019 -0.5725
 3855TIP3   OH233055   0.383   3.342  16.286 -0.5452 -0.3593 -0.4355
 3855TIP3    H133056   0.402   3.409  16.221 -2.0552  1.2756  0.7165
 3855TIP3    H233057   0.289   3.325  16.278 -0.3061 -1.9646 -0.3150
 3856TIP3   OH233058   0.147   6.645   5.034  0.1470 -0.2640  0.3467
 3856TIP3    H133059   0.098   6.564   5.021  1.1041 -0.6670 -0.9626
 3856TIP3    H233060   0.227   6.617   5.080  0.5404 -0.0828 -0.2267
 3857TIP3   OH233061   3.900   3.622  14.722  0.4992 -0.2369 -0.5368
 3857TIP3    H133062   3.896   3.687  14.793  1.3185 -0.0285 -0.6663
 3857TIP3    H233063   3.828   3.646  14.664 -0.6957 -0.8886  0.6050
 3858TIP3   OH233064   2.716   2.977  12.964 -0.0534 -0.1028 -0.0600
 3858TIP3    H133065   2.644   3.041  12.968  1.0200  1.3561 -2.0862
 3858TIP3    H233066   2.781   3.010  13.026 -0.2531 -0.2347  0.2192
 3859TIP3   OH233067   4.073   1.059  15.060  0.4704  0.1753 -0.0432
 3859TIP3    H133068   4.051   0.976  15.019  1.6165  0.4759 -1.3537
 3859TIP3    H233069   3.997   1.115  15.044  0.4874 -0.0372 -0.8891
 3860TIP3   OH233070   1.561   2.803  12.341  0.1582 -0.3682  0.1253
 3860TIP3    H133071   1.469   2.777  12.332 -0.0253  0.0124  0.8644
 3860TIP3    H233072   1.609   2.736  12.291 -0.5811  0.0238 -1.1616
 3861TIP3   OH233073   6.295   0.673  11.681 -0.5923  0.1518  0.1704
 3861TIP3    H133074   6.254   0.759  11.670 -1.7409 -0.1884  1.4434
 3861TIP3    H233075   6.290   0.656  11.775  1.7413 -0.3122  0.2750
 3862TIP3   OH233076   3.692   2.755  16.896  0.3814 -0.5093  0.2259
 3862TIP3    H133077   3.628   2.708  16.950 -0.0863 -0.9020 -0.6281
 3862TIP3    H233078   3.669   2.730  16.806 -0.3771  1.9411 -0.3492
 3863TIP3   OH233079   3.920   2.508  12.803  0.3006  0.5254  0.4115
 3863TIP3    H133080   3.889   2.598  12.793  0.1108  0.4261  0.1229
 3863TIP3    H233081   3.916   2.492  12.898 -1.6989  0.1030  0.2953
 3864TIP3   OH233082   2.407   1.078   3.753 -0.1104 -0.1082 -0.4726
 3864TIP3    H133083   2.442   1.152   3.801  1.0165 -1.2692  0.5922
 3864TIP3    H233084   2.312   1.085   3.764  0.0653  0.2441  1.0696
 3865TIP3   OH233085   4.238   3.135  14.296  0.0707  0.1654 -0.2859
 3865TIP3    H133086   4.319   3.176  14.325 -0.5494  2.7371 -1.8727
 3865TIP3    H233087   4.207   3.086  14.372  3.7779 -2.1635 -0.0532
 3866TIP3   OH233088   6.083   2.986  11.158 -0.5731 -0.4440 -0.0939
 3866TIP3    H133089   6.070   3.021  11.070  0.6540  0.5390  0.0872
 3866TIP3    H233090   6.059   2.893  11.151  0.9947 -0.7696 -1.8776
 3867TIP3   OH233091   3.608   0.374  16.507 -0.8064 -0.2116 -0.2470
 3867TIP3    H133092   3.603   0.294  16.455 -1.1862 -0.1300 -0.3338
 3867TIP3    H233093   3.525   0.378  16.553 -0.2353 -0.6148  0.8695
 3868TIP3   OH233094   4.692   0.772   1.986  0.0816 -0.1460 -0.1737
 3868TIP3    H133095   4.760   0.704   1.985 -0.6310 -0.8777  0.4129
 3868TIP3    H233096   4.615   0.730   1.949 -0.3687  0.3463  0.1870
 3869TIP3   OH233097   4.251   5.098  12.935  0.4496  0.2695  0.3246
 3869TIP3    H133098   4.156   5.108  12.929  0.5364  0.2556 -1.8531
 3869TIP3    H233099   4.264   5.013  12.977 -0.4976 -0.0056  0.0661
 3870TIP3   OH233100   5.670   0.750   0.970  0.6613 -0.0874  0.2117
 3870TIP3    H133101   5.672   0.842   0.998  0.5626 -0.6077  2.0509
 3870TIP3    H233102   5.584   0.719   0.996  0.5260 -0.6070 -0.8049
 3871TIP3   OH233103   0.476   2.823   2.202  0.4165  0.4753 -0.8553
 3871TIP3    H133104   0.517   2.780   2.128 -2.8676 -1.8421 -1.5574
 3871TIP3    H233105   0.531   2.800   2.277  1.6895 -0.3978 -2.0189
 3872TIP3   OH233106   3.908   5.702  13.164  0.5436 -0.6327  0.0780
 3872TIP3    H133107   3.815   5.724  13.176  1.1834  2.0281  0.8975
 3872TIP3    H233108   3.934   5.661  13.246  0.0522 -1.6016 -0.2415
 3873TIP3   OH233109   6.447   1.815   2.740  0.2497 -0.0940 -0.0920
 3873TIP3    H133110   6.373   1.797   2.682 -0.1681 -1.4531  0.8034
 3873TIP3    H233111   6.415   1.881   2.801  0.6624  1.2775 -1.3158
 3874TIP3   OH233112   3.971   3.645   5.697  0.0619 -0.4516  0.3976
 3874TIP3    H133113   3.962   3.638   5.792 -1.3956 -2.0669  0.1774
 3874TIP3    H233114   3.973   3.555   5.666 -1.0788  0.0349 -1.2263
 3875TIP3   OH233115   4.073   3.017   2.631 -0.0622 -0.1351 -0.3740
 3875TIP3    H133116   4.080   2.929   2.594  0.0376  0.0998 -0.9232
 3875TIP3    H233117   4.090   3.005   2.724 -0.8472 -0.8228 -0.3035
 3876TIP3   OH233118   5.616   2.083   0.760 -0.2010  0.5964 -0.9340
 3876TIP3    H133119   5.692   2.063   0.706  1.7560  2.2749  1.0413
 3876TIP3    H233120   5.612   2.179   0.763 -0.1407  0.6069  1.9025
 3877TIP3   OH233121   3.296   2.903  11.609 -0.4766  0.1585  0.2901
 3877TIP3    H133122   3.242   2.957  11.666  0.0732  0.9759  0.0567
 3877TIP3    H233123   3.386   2.926  11.633 -0.1548 -1.9488  1.4279
 3878TIP3   OH233124   6.744   4.800   4.809 -0.0409  0.0406 -0.1295
 3878TIP3    H133125   6.788   4.879   4.777 -1.1002  0.6811 -0.0658
 3878TIP3    H233126   6.732   4.746   4.731 -0.1724  0.3795 -0.3464
 3879TIP3   OH233127   1.799   3.856  14.700 -0.2859  0.2311  0.2678
 3879TIP3    H133128   1.807   3.801  14.778  1.9149  1.5241  1.0202
 3879TIP3    H233129   1.709   3.891  14.705 -1.9326 -3.4382 -0.4615
 3880TIP3   OH233130   4.560   6.796  11.592 -0.1754  0.1102 -0.2904
 3880TIP3    H133131   4.644   6.839  11.609  1.5949 -2.4808 -1.7410
 3880TIP3    H233132   4.554   6.730  11.661 -0.9249  0.1474 -0.3197
 3881TIP3   OH233133   1.418   0.226  14.836 -0.7983 -0.7482  0.1506
 3881TIP3    H133134   1.340   0.176  14.860 -1.3184  0.0309  0.1294
 3881TIP3    H233135   1.445   0.191  14.752 -2.9016  0.9274 -1.3274
 3882TIP3   OH233136   2.453   6.301   1.443  0.2082 -0.1942 -0.2824
 3882TIP3    H133137   2.383   6.245   1.477  0.9115 -1.1174 -0.3055
 3882TIP3    H233138   2.454   6.376   1.502  1.3732 -1.7307  1.7723
 3883TIP3   OH233139   1.239   5.054   2.067  0.0450  0.2672  0.5776
 3883TIP3    H133140   1.167   5.006   2.025 -0.0405  0.0781  0.9417
 3883TIP3    H233141   1.303   4.986   2.089 -0.4894  0.1905  1.9476
 3884TIP3   OH233142   6.334   4.722  14.185 -0.4449  0.3378 -0.4735
 3884TIP3    H133143   6.294   4.673  14.113 -2.9756 -1.9562  2.2430
 3884TIP3    H233144   6.315   4.814  14.166 -0.8758 -0.1656 -2.7427
 3885TIP3   OH233145   2.634   3.891   5.180  0.1239  0.0916 -0.2470
 3885TIP3    H133146   2.656   3.862   5.269 -0.5490  1.6179  0.4653
 3885TIP3    H233147   2.547   3.855   5.164  0.2749 -0.2443 -0.3151
 3886TIP3   OH233148   3.800   5.023  16.383  0.4965  0.4137 -0.3665
 3886TIP3    H133149   3.830   5.102  16.428 -1.0850  0.3796  0.8381
 3886TIP3    H233150   3.728   4.991  16.437  1.3940 -2.1389 -0.5533
 3887TIP3   OH233151   6.003   0.071   5.472 -0.4210 -0.1198 -0.3602
 3887TIP3    H133152   5.924   0.032   5.509 -0.1343 -0.2261  0.1509
 3887TIP3    H233153   5.983   0.083   5.380 -0.7817 -0.7869 -0.3718
 3888TIP3   OH233154   5.578   6.486   0.653 -0.0641  0.2997  0.6833
 3888TIP3    H133155   5.582   6.393   0.675  0.1171  0.2408  0.4054
 3888TIP3    H233156   5.526   6.490   0.572  1.4089  0.2532 -0.3084
 3889TIP3   OH233157   3.847   1.775  14.383  0.1184  0.4614 -0.2323
 3889TIP3    H133158   3.922   1.761  14.440 -0.4737 -0.3975  0.3588
 3889TIP3    H233159   3.874   1.845  14.323  0.0255  2.8839  2.3786
 3890TIP3   OH233160   3.718   3.012   2.215 -0.1273 -0.2698 -0.1782
 3890TIP3    H133161   3.626   3.001   2.237 -0.1607 -0.5483 -0.4377
 3890TIP3    H233162   3.762   3.028   2.298 -0.5129  0.6251 -0.1370
 3891TIP3   OH233163   6.661   6.238   0.477 -0.2403 -0.4147 -0.0469
 3891TIP3    H133164   6.618   6.201   0.554 -0.2117  0.7042  0.5254
 3891TIP3    H233165   6.688   6.162   0.426 -1.5371 -1.1543  0.3324
 3892TIP3   OH233166   2.047   3.556   4.944  0.5780  0.5907  0.2555
 3892TIP3    H133167   2.110   3.573   4.874  2.1226  1.9651  1.8711
 3892TIP3    H233168   2.030   3.642   4.981 -0.7408 -0.0270  1.1458
 3893TIP3   OH233169   2.515   3.325  13.360 -0.2855 -0.5456 -0.1720
 3893TIP3    H133170   2.443   3.360  13.413  0.5721  0.2590  0.4986
 3893TIP3    H233171   2.486   3.336  13.269 -0.9561 -0.1184  0.0894
 3894TIP3   OH233172   4.767   5.894   0.338 -0.1375 -0.3302  0.0370
 3894TIP3    H133173   4.820   5.969   0.363  1.4216 -0.1708 -3.1332
 3894TIP3    H233174   4.680   5.930   0.320  0.3329  0.5598 -0.4897
 3895TIP3   OH233175   6.797   1.475   3.138  0.2697 -0.0975 -0.0607
 3895TIP3    H133176   6.745   1.440   3.066  2.2301  2.7110 -3.1025
 3895TIP3    H233177   6.733   1.518   3.195 -1.1295 -0.0584 -1.5956
 3896TIP3   OH233178   0.131   1.019   1.982  0.0347 -0.3415 -0.2195
 3896TIP3    H133179   0.120   0.925   1.995 -0.0671 -0.6416 -2.2384
 3896TIP3    H233180   0.198   1.026   1.914  0.4348  1.0745  0.2880
 3897TIP3   OH233181   0.482   2.480  13.614 -0.5234 -0.2074  0.0177
 3897TIP3    H133182   0.401   2.458  13.567 -2.3856  2.2509  1.7996
 3897TIP3    H233183   0.526   2.544  13.558  0.5908 -1.9350 -1.2074
 3898TIP3   OH233184   6.672   4.718   3.901 -0.3234  0.0056  0.3479
 3898TIP3    H133185   6.629   4.647   3.853  0.3076  0.2393 -0.5817
 3898TIP3    H233186   6.669   4.793   3.842 -0.4838  0.6078  1.1017
 3899TIP3   OH233187   1.637   3.499  12.731  0.1733 -0.0257  0.0661
 3899TIP3    H133188   1.606   3.551  12.805 -0.2580 -1.3669  0.8623
 3899TIP3    H233189   1.561   3.491  12.674 -0.2062 -1.0502  0.6975
 3900TIP3   OH233190   6.422   2.010   6.888 -0.1314  0.8431 -0.3930
 3900TIP3    H133191   6.339   2.035   6.848 -1.3391 -2.5663 -0.3756
 3900TIP3    H233192   6.397   1.952   6.959  2.2568 -0.7001 -0.7071
 3901TIP3   OH233193   6.743   3.251  15.485  0.4303 -0.0668  0.3103
 3901TIP3    H133194   6.654   3.217  15.479  0.4931 -0.2777  0.5361
 3901TIP3    H233195   6.772   3.225  15.573 -0.7248  3.5413  1.9430
 3902TIP3   OH233196   3.791   1.139   2.650 -0.2180  0.2600  0.5889
 3902TIP3    H133197   3.725   1.077   2.680  0.4142 -0.1398  1.1732
 3902TIP3    H233198   3.853   1.147   2.723  1.3900 -0.7892 -0.5913
 3903TIP3   OH233199   6.670   2.641   2.100  0.1481  0.3739  0.3524
 3903TIP3    H133200   6.622   2.689   2.169  0.4950  0.8363  0.2785
 3903TIP3    H233201   6.695   2.709   2.037 -0.9242 -0.1566 -0.6928
 3904TIP3   OH233202   2.806   3.162  13.900  0.7939 -0.0487 -0.0660
 3904TIP3    H133203   2.726   3.120  13.931  1.0244  0.3085  1.0501
 3904TIP3    H233204   2.872   3.093  13.901  0.3700 -0.5258 -1.6666
 3905TIP3   OH233205   6.550   0.172   0.929  0.5053  0.0347 -0.3280
 3905TIP3    H133206   6.474   0.182   0.872 -0.1258  1.8271  0.7410
 3905TIP3    H233207   6.571   0.079   0.925 -2.4078 -0.7449  0.1102
 3906TIP3   OH233208   1.173   0.632  14.293 -0.2582  0.0675 -0.2076
 3906TIP3    H133209   1.109   0.604  14.227 -0.6760 -0.9815  0.6130
 3906TIP3    H233210   1.254   0.585  14.269 -0.5695 -0.7692  0.3475
 3907TIP3   OH233211   0.827   4.847  14.565  0.1418  0.0860  0.3461
 3907TIP3    H133212   0.849   4.799  14.485  0.3891  0.2837  0.2944
 3907TIP3    H233213   0.890   4.919  14.568  0.5216 -0.2772  1.0419
 3908TIP3   OH233214   3.752   5.415  11.236  0.0506 -0.2047  0.0285
 3908TIP3    H133215   3.829   5.385  11.188 -0.3441  0.8122 -1.3041
 3908TIP3    H233216   3.772   5.506  11.258 -1.0095  0.2840 -0.9265
 3909TIP3   OH233217   2.438   4.139   0.864  0.4364 -0.3246  0.1218
 3909TIP3    H133218   2.381   4.083   0.916  1.3293 -0.7895  0.6275
 3909TIP3    H233219   2.392   4.223   0.859 -0.7533 -0.9930 -0.3473
 3910TIP3   OH233220   0.547   4.234   4.185  0.2348  0.7678 -0.0743
 3910TIP3    H133221   0.464   4.186   4.176 -0.3367  1.9492 -1.4836
 3910TIP3    H233222   0.547   4.263   4.277 -0.6340  0.2674  0.0983
 3911TIP3   OH233223   4.317   2.979   5.337 -0.4839  0.3020 -0.7153
 3911TIP3    H133224   4.309   2.971   5.242  0.3940  0.1161 -0.7903
 3911TIP3    H233225   4.341   2.891   5.367 -0.5423  0.4066 -0.3490
 3912TIP3   OH233226   4.383   2.886   4.819  0.7055 -0.0581 -0.3630
 3912TIP3    H133227   4.358   2.874   4.727 -1.2678 -0.2374  0.1517
 3912TIP3    H233228   4.476   2.906   4.816  0.5385  0.6288 -2.4571
 3913TIP3   OH233229   3.369   4.337   5.141  0.4077 -0.7814 -0.2653
 3913TIP3    H133230   3.384   4.393   5.218 -0.5857  0.2561 -0.8005
 3913TIP3    H233231   3.300   4.277   5.168 -0.4998  0.1042 -0.5926
 3914TIP3   OH233232   5.023   5.904   4.251  0.1220  0.0979 -0.4481
 3914TIP3    H133233   5.048   5.934   4.164 -1.1205 -0.7201 -1.1117
 3914TIP3    H233234   4.930   5.922   4.257 -0.3880 -2.2893 -0.3539
 3915TIP3   OH233235   1.438   5.169   4.628  0.2605  0.2681  0.0096
 3915TIP3    H133236   1.388   5.225   4.688 -0.4695  1.2208 -1.4392
 3915TIP3    H233237   1.372   5.124   4.577  0.8747 -0.5535 -0.0697
 3916TIP3   OH233238   2.367   1.605   1.468 -0.0545  0.0131 -0.3656
 3916TIP3    H133239   2.378   1.598   1.563 -0.7928  0.3166 -0.2515
 3916TIP3    H233240   2.407   1.689   1.445 -3.5028  2.0392  0.3198
 3917TIP3   OH233241   2.254   2.006   1.068  0.2692  0.3005 -0.1134
 3917TIP3    H133242   2.185   1.979   1.007  0.3674  0.0539 -0.1180
 3917TIP3    H233243   2.321   2.045   1.012  1.1087 -1.4275 -0.3713
 3918TIP3   OH233244   2.341   5.958  15.088 -0.3987  0.0935 -0.6035
 3918TIP3    H133245   2.330   6.053  15.092 -1.2787 -0.0103 -0.2515
 3918TIP3    H233246   2.376   5.934  15.174 -0.0263  0.1179 -0.7487
 3919TIP3   OH233247   5.476   1.154  15.740  0.6632  0.0667  0.0388
 3919TIP3    H133248   5.516   1.231  15.701 -0.4813  0.4693 -0.3918
 3919TIP3    H233249   5.436   1.107  15.666 -0.1494 -0.0075  0.5065
 3920TIP3   OH233250   0.822   3.284  12.736  0.3213  0.2353  0.2900
 3920TIP3    H133251   0.799   3.356  12.795 -0.1477  1.5063 -1.3658
 3920TIP3    H233252   0.811   3.205  12.789 -3.4511  1.0548  1.0028
 3921TIP3   OH233253   2.846   5.059  12.645  0.5121  0.1144  0.4475
 3921TIP3    H133254   2.867   4.980  12.595 -1.2278 -0.5368  0.6582
 3921TIP3    H233255   2.856   5.131  12.582 -1.8558 -0.7008 -1.0217
 3922TIP3   OH233256   1.133   2.599  14.288 -0.1739  0.6669  0.7400
 3922TIP3    H133257   1.146   2.641  14.203  1.4873 -0.9060  0.1355
 3922TIP3    H233258   1.040   2.574  14.289 -0.0260 -0.0599 -1.0077
 3923TIP3   OH233259   6.328   3.708   5.337  0.1459 -0.4189 -0.0652
 3923TIP3    H133260   6.386   3.632   5.345  0.8219  0.0670 -0.2996
 3923TIP3    H233261   6.257   3.678   5.281  0.5129 -0.8172 -0.3196
 3924TIP3   OH233262   6.565   5.685   4.938 -0.1578  0.2001  0.4611
 3924TIP3    H133263   6.650   5.728   4.939 -0.0614  0.0389 -0.3321
 3924TIP3    H233264   6.568   5.625   5.013  0.8302 -0.5495 -0.1469
 3925TIP3   OH233265   5.896   4.780  16.691  0.1520 -0.2227 -0.2059
 3925TIP3    H133266   5.920   4.690  16.672 -0.3042 -0.3969  0.0123
 3925TIP3    H233267   5.915   4.828  16.611 -1.5520 -0.8997 -1.0620
 3926TIP3   OH233268   2.116   1.390  12.297 -0.8741 -0.7748  0.5203
 3926TIP3    H133269   2.078   1.464  12.250  2.5864  0.4584 -0.6331
 3926TIP3    H233270   2.094   1.313  12.244 -1.6438 -0.1306 -0.1136
 3927TIP3   OH233271   3.339   3.537  13.454 -0.1814  0.2816 -0.2298
 3927TIP3    H133272   3.246   3.561  13.456 -0.3022 -0.1452 -0.4229
 3927TIP3    H233273   3.356   3.516  13.362 -0.1981 -0.7648 -0.0123
 3928TIP3   OH233274   4.538   0.492   0.945  0.5169  0.2875  0.3725
 3928TIP3    H133275   4.558   0.452   1.030  1.0292  0.9548  0.5719
 3928TIP3    H233276   4.455   0.451   0.919 -0.4090  1.1290  1.8672
 3929TIP3   OH233277   0.323   5.255   2.502  0.0739 -0.5123  0.5317
 3929TIP3    H133278   0.251   5.257   2.439  0.3740  0.4760  0.1969
 3929TIP3    H233279   0.400   5.282   2.452  0.5449 -0.8945  1.0433
 3930TIP3   OH233280   1.878   1.936   0.577  0.4553  0.4956 -0.0090
 3930TIP3    H133281   1.949   2.000   0.572  0.9160 -0.0508 -0.6136
 3930TIP3    H233282   1.806   1.975   0.528 -0.2316  1.7261  1.8370
 3931TIP3   OH233283   6.316   0.358   1.875 -0.3810 -0.0564 -0.1554
 3931TIP3    H133284   6.322   0.305   1.795 -2.0860 -0.0909 -0.2882
 3931TIP3    H233285   6.325   0.448   1.845 -3.0299  0.0896 -0.7229
 3932TIP3   OH233286   3.495   1.608   0.678 -0.3296  0.8169 -0.3726
 3932TIP3    H133287   3.439   1.555   0.734 -0.1650  1.4249  0.3806
 3932TIP3    H233288   3.490   1.565   0.592 -0.4017 -0.2650  0.1473
 3933TIP3   OH233289   6.464   2.161   3.168 -0.1415  0.0008 -0.3059
 3933TIP3    H133290   6.558   2.165   3.184  0.0520  2.0321 -1.5542
 3933TIP3    H233291   6.426   2.128   3.250  1.4370  1.7346  1.2020
 3934TIP3   OH233292   4.380   4.394  12.623  0.6215  0.4043  0.1529
 3934TIP3    H133293   4.380   4.455  12.697  2.4796  0.7702 -0.1077
 3934TIP3    H233294   4.288   4.371  12.611  0.0202  2.1682  1.0704
 3935TIP3   OH233295   4.980   0.161  16.663  0.1063  0.4577 -0.3915
 3935TIP3    H133296   4.998   0.231  16.601 -2.4953 -0.1861 -2.0118
 3935TIP3    H233297   4.895   0.126  16.637  1.3285 -3.5038  0.1540
 3936TIP3   OH233298   5.601   3.801  17.229 -0.8674  0.3304  0.9930
 3936TIP3    H133299   5.657   3.868  17.190 -1.4565 -0.1663 -0.8398
 3936TIP3    H233300   5.661   3.733  17.257 -0.4227  0.6033  0.7304
 3937TIP3   OH233301   5.610   2.861  15.095 -0.1837 -0.4927 -0.3203
 3937TIP3    H133302   5.614   2.807  15.174 -0.7085 -1.5745 -0.9969
 3937TIP3    H233303   5.537   2.920  15.110  0.9883  0.7247  0.8270
 3938TIP3   OH233304   5.602   0.788   2.258 -0.1687 -0.2671 -0.3340
 3938TIP3    H133305   5.520   0.831   2.281 -0.4653 -0.9480 -0.0866
 3938TIP3    H233306   5.669   0.834   2.309 -0.6748 -1.0465  1.0841
 3939TIP3   OH233307   2.366   0.482  17.281 -0.0371  0.0382  0.0620
 3939TIP3    H133308   2.356   0.392  17.310  3.1017 -0.3227  0.3031
 3939TIP3    H233309   2.372   0.533  17.362  1.8993 -0.0872  0.0465
 3940TIP3   OH233310   0.126   0.974  15.933  0.0305 -0.2084  0.6655
 3940TIP3    H133311   0.074   0.944  16.007 -0.0009  1.5832  1.4334
 3940TIP3    H233312   0.061   0.992  15.864 -0.0656 -0.6993  0.6249
 3941TIP3   OH233313   2.255   3.900   4.248  0.0639  0.7453 -0.6726
 3941TIP3    H133314   2.179   3.929   4.297  1.5614 -1.2444  3.2181
 3941TIP3    H233315   2.254   3.805   4.256  1.5960  0.4541 -2.8549
 3942TIP3   OH233316   6.147   0.619  16.657 -0.1147 -0.5701 -0.5039
 3942TIP3    H133317   6.184   0.629  16.744  0.4999  0.5308 -0.8749
 3942TIP3    H233318   6.096   0.699  16.643  0.2258 -0.4837 -1.3408
 3943TIP3   OH233319   1.218   6.351  15.104  0.1962  0.1114  0.7440
 3943TIP3    H133320   1.169   6.278  15.066  1.5932 -0.4985  0.0388
 3943TIP3    H233321   1.206   6.341  15.199 -0.3433 -0.5036  0.6213
 3944TIP3   OH233322   4.001   2.771   4.795 -0.0211  0.3362  0.5776
 3944TIP3    H133323   4.074   2.722   4.758 -2.6808 -3.5640 -0.1906
 3944TIP3    H233324   4.031   2.862   4.796  3.7022 -0.5765 -2.3822
 3945TIP3   OH233325   3.010   0.370  11.340  0.0103  0.4863 -0.4482
 3945TIP3    H133326   3.089   0.415  11.371 -1.1902  2.0623  0.4572
 3945TIP3    H233327   2.937   0.419  11.378 -1.4503 -0.4674 -1.8617
 3946TIP3   OH233328   3.365   4.162  15.278 -0.0397 -0.2900  0.6138
 3946TIP3    H133329   3.383   4.086  15.333  2.0151  0.1658  0.6581
 3946TIP3    H233330   3.286   4.201  15.315 -0.2896 -1.5860  1.4776
 3947TIP3   OH233331   4.706   0.387   5.201  0.2022 -0.2864  1.0859
 3947TIP3    H133332   4.673   0.314   5.150  0.4703  0.2122  0.1601
 3947TIP3    H233333   4.755   0.347   5.273  0.6897 -1.0205  0.3614
 3948TIP3   OH233334   4.870   2.539   1.436 -0.4357 -0.3074 -0.6198
 3948TIP3    H133335   4.915   2.517   1.517  0.4072  0.4578 -0.8711
 3948TIP3    H233336   4.861   2.634   1.438  0.1618 -0.2120 -1.6944
 3949TIP3   OH233337   4.094   5.239  15.495 -0.7783 -0.1962  0.2343
 3949TIP3    H133338   4.188   5.243  15.479 -0.7230 -0.8398  0.3564
 3949TIP3    H233339   4.077   5.146  15.515 -1.6565 -0.3544 -1.1218
 3950TIP3   OH233340   2.319   6.552  14.192 -0.2158  0.5645  1.0766
 3950TIP3    H133341   2.392   6.562  14.253  1.6357  2.9525 -1.2781
 3950TIP3    H233342   2.309   6.457  14.182 -0.1601  0.0854  4.4047
 3951TIP3   OH233343   2.114   5.796  12.717 -0.5364  0.5075  0.2452
 3951TIP3    H133344   2.064   5.824  12.794  0.0077 -0.7440  1.0883
 3951TIP3    H233345   2.102   5.701  12.714 -1.4805  0.6260 -1.9105
 3952TIP3   OH233346   5.249   1.609  12.539  0.2922 -0.4231 -0.0123
 3952TIP3    H133347   5.169   1.660  12.528  1.4898  1.7954  0.9810
 3952TIP3    H233348   5.251   1.551  12.463 -2.0744 -0.3173 -0.2106
 3953TIP3   OH233349   2.023   5.855  15.342 -0.5925  0.1617  0.3137
 3953TIP3    H133350   2.027   5.787  15.276  0.7093  0.0755  0.4689
 3953TIP3    H233351   1.965   5.820  15.410  0.2910 -0.9211  0.5293
 3954TIP3   OH233352   4.641   5.308  11.423  0.0479  0.3525  0.6227
 3954TIP3    H133353   4.580   5.375  11.455  0.4416  0.5863  0.9046
 3954TIP3    H233354   4.696   5.354  11.359 -0.2872  0.0586  0.1230
 3955TIP3   OH233355   0.221   6.825   4.850  0.4136  0.0883 -0.5847
 3955TIP3    H133356   0.189   6.788   4.933  0.1526 -1.0090 -1.1572
 3955TIP3    H233357   0.177   6.773   4.783  0.5928  0.9984 -1.4183
 3956TIP3   OH233358   1.418   5.381  13.230 -0.3047  0.8831 -0.4866
 3956TIP3    H133359   1.343   5.412  13.180 -0.0008  0.6550 -1.1042
 3956TIP3    H233360   1.385   5.308  13.282 -0.5794  0.9786 -0.5282
 3957TIP3   OH233361   2.115   1.821   2.340  0.3285 -0.1120 -0.1570
 3957TIP3    H133362   2.186   1.805   2.278 -0.2863 -2.0294 -0.4589
 3957TIP3    H233363   2.158   1.831   2.425  1.1035  1.4235 -0.6990
 3958TIP3   OH233364   5.954   2.991   0.926  0.7541  0.3756 -0.7320
 3958TIP3    H133365   6.027   2.938   0.894  0.2311  0.0577 -1.4428
 3958TIP3    H233366   5.912   3.024   0.846  0.6562  1.3051 -0.3168
 3959TIP3   OH233367   4.025   2.591  14.004  0.0560 -0.2333 -0.2029
 3959TIP3    H133368   4.035   2.685  14.016  1.6020 -0.2774 -0.8091
 3959TIP3    H233369   4.115   2.557  14.010 -0.4985 -1.6977  0.2532
 3960TIP3   OH233370   0.112   2.457  13.985  0.0813  0.4910  0.5177
 3960TIP3    H133371   0.066   2.395  13.930 -0.4306  0.0847  1.3903
 3960TIP3    H233372   0.050   2.529  13.999  0.3371  0.7619  0.2718
 3961TIP3   OH233373   0.261   3.123   0.053 -0.4281 -0.2583  0.3037
 3961TIP3    H133374   0.288   3.190   0.116 -0.6454 -0.9670  1.1646
 3961TIP3    H233375   0.167   3.115   0.065 -0.4316 -0.5833  0.0706
 3962TIP3   OH233376   6.161   0.777   4.417 -0.3774 -0.4865  0.3465
 3962TIP3    H133377   6.199   0.849   4.468  0.6438  0.5736 -1.7681
 3962TIP3    H233378   6.215   0.701   4.439 -0.1351 -0.1171  1.0486
 3963TIP3   OH233379   1.592   6.114   2.766 -0.2581  0.6959 -0.0057
 3963TIP3    H133380   1.676   6.069   2.751  0.2064  1.5354 -0.0090
 3963TIP3    H233381   1.559   6.132   2.678  0.8659  2.6982 -0.0807
 3964TIP3   OH233382   3.990   3.260   0.947 -0.6437 -0.1003  0.5976
 3964TIP3    H133383   4.008   3.167   0.956 -0.6594 -0.1984 -0.3076
 3964TIP3    H233384   3.933   3.281   1.021  0.8146 -0.4061  1.8764
 3965TIP3   OH233385   4.087   4.836  17.053 -0.0014 -0.0474  0.2400
 3965TIP3    H133386   4.070   4.811  16.962  1.3713  2.6936 -0.9025
 3965TIP3    H233387   4.135   4.761  17.090  1.6791 -0.2519 -2.1176
 3966TIP3   OH233388   1.239   1.248  15.136 -0.0023  0.3500  0.1767
 3966TIP3    H133389   1.211   1.303  15.063  1.6838  0.2002 -0.6375
 3966TIP3    H233390   1.230   1.159  15.104 -1.1696  0.1959  0.8996
 3967TIP3   OH233391   5.794   4.020   0.042  0.2821 -0.4010 -0.2076
 3967TIP3    H133392   5.874   3.968   0.051 -0.2017 -1.1512 -0.1872
 3967TIP3    H233393   5.816   4.084  -0.026  0.3483 -1.7024 -1.4611
 3968TIP3   OH233394   5.046   6.753  14.379 -0.2450  0.7044 -0.1552
 3968TIP3    H133395   5.081   6.790  14.460 -2.6364 -1.2152  1.9046
 3968TIP3    H233396   5.077   6.813  14.310  3.1663  1.5459  1.9071
 3969TIP3   OH233397   1.274   3.051   2.863 -0.5918  0.1628  0.4033
 3969TIP3    H133398   1.228   2.974   2.827  0.8847 -0.3447 -0.5031
 3969TIP3    H233399   1.331   3.080   2.792  0.9539  0.3705  1.6751
 3970TIP3   OH233400   2.122   3.433   4.677  0.2395 -0.3715  0.1609
 3970TIP3    H133401   2.166   3.400   4.756  0.0463 -0.7258  0.1229
 3970TIP3    H233402   2.044   3.378   4.669  0.2574 -0.3327 -0.2778
 3971TIP3   OH233403   2.665   3.818  11.335  0.2040  0.0735  0.3276
 3971TIP3    H133404   2.642   3.784  11.248  0.2922 -0.9838  0.7158
 3971TIP3    H233405   2.583   3.816  11.384  0.1450  0.7116  0.2692
 3972TIP3   OH233406   0.855   3.826   2.638  0.0914 -0.4148 -0.4210
 3972TIP3    H133407   0.862   3.746   2.690  0.1635 -0.7935 -1.0034
 3972TIP3    H233408   0.843   3.795   2.548 -0.1015  0.2304 -0.6215
 3973TIP3   OH233409   3.909   0.527   0.016  0.1629  0.1128  0.3155
 3973TIP3    H133410   3.846   0.520   0.088 -0.5518 -0.4034 -0.3559
 3973TIP3    H233411   3.902   0.618  -0.012  1.2524  0.6392  1.6004
 3974TIP3   OH233412   1.628   5.511   2.917 -0.4877 -0.0851 -0.0986
 3974TIP3    H133413   1.541   5.473   2.932  0.2516 -1.2587  1.5297
 3974TIP3    H233414   1.676   5.442   2.871 -0.1653  0.2467 -0.2615
 3975TIP3   OH233415   2.297   1.768  14.732 -0.0759 -0.1331  0.0887
 3975TIP3    H133416   2.288   1.702  14.801 -1.5865  0.9959  1.0414
 3975TIP3    H233417   2.360   1.730  14.671 -0.8907 -2.4670  0.5729
 3976TIP3   OH233418   5.929   2.087  17.182 -0.0274  0.2169  0.2044
 3976TIP3    H133419   5.866   2.040  17.238 -0.9666 -0.2087 -1.1674
 3976TIP3    H233420   5.910   2.056  17.094  1.2947  1.0373 -0.3936
 3977TIP3   OH233421   4.191   6.701  11.902  0.4700  0.5999 -0.9917
 3977TIP3    H133422   4.149   6.644  11.836 -0.0475  1.2968 -1.2787
 3977TIP3    H233423   4.155   6.671  11.985  1.0756 -0.2441 -1.0193
 3978TIP3   OH233424   4.798   0.573   0.920 -0.1356  0.3479 -0.7152
 3978TIP3    H133425   4.843   0.489   0.916 -0.2000  0.1693  1.3231
 3978TIP3    H233426   4.707   0.551   0.940 -0.2206  0.8740 -0.4999
 3979TIP3   OH233427   6.543   3.806  10.864 -0.4845 -0.0898  0.1517
 3979TIP3    H133428   6.486   3.760  10.802  1.2994 -0.6376 -1.1781
 3979TIP3    H233429   6.629   3.768  10.849  0.7170  2.3721  0.3771
 3980TIP3   OH233430   6.695   4.273   2.395  0.3394 -0.4608 -0.4788
 3980TIP3    H133431   6.603   4.260   2.417  0.9393 -2.7198  1.0386
 3980TIP3    H233432   6.726   4.338   2.458 -0.3180  0.8028 -1.4140
 3981TIP3   OH233433   2.600   2.683   2.823 -0.3880 -0.2124  0.3726
 3981TIP3    H133434   2.588   2.588   2.822 -0.1640 -0.2388  0.1101
 3981TIP3    H233435   2.527   2.717   2.771 -0.0180 -0.2935 -0.2017
 3982TIP3   OH233436   5.774   6.129  14.707  0.3122  0.4430 -0.0499
 3982TIP3    H133437   5.708   6.060  14.704 -0.7921  1.4742 -0.4470
 3982TIP3    H233438   5.794   6.139  14.800  2.5772 -2.2429 -0.0890
 3983TIP3   OH233439   0.964   1.351   3.430  0.0018  0.5339  0.6457
 3983TIP3    H133440   0.918   1.285   3.482  1.5515 -0.4061  0.8960
 3983TIP3    H233441   0.923   1.347   3.344 -1.1984  0.6263  1.1894
 3984TIP3   OH233442   1.352   2.146   0.914  0.1021 -0.4380  0.1389
 3984TIP3    H133443   1.439   2.139   0.876 -0.7070 -0.9952 -1.7458
 3984TIP3    H233444   1.336   2.060   0.954 -0.1106 -0.8191 -0.7516
 3985TIP3   OH233445   2.695   3.675   2.432  0.8416 -0.0695  0.2771
 3985TIP3    H133446   2.654   3.596   2.467  3.5486 -1.3668  0.8018
 3985TIP3    H233447   2.780   3.680   2.477  3.1179  0.0436 -3.5815
 3986TIP3   OH233448   0.042   0.775  13.675 -0.0400  0.1504  0.2001
 3986TIP3    H133449   0.058   0.833  13.601 -0.9807 -1.5725 -1.4396
 3986TIP3    H233450  -0.052   0.757  13.672  0.1410 -1.0461  0.9607
 3987TIP3   OH233451   5.756   1.482  11.803 -0.5994  0.0649  0.2920
 3987TIP3    H133452   5.677   1.523  11.840 -0.6452  0.1445  0.1043
 3987TIP3    H233453   5.810   1.556  11.775 -0.7496 -0.0055 -0.1844
 3988TIP3   OH233454   4.349   2.035   4.271 -0.8634  0.1710  0.1332
 3988TIP3    H133455   4.438   2.031   4.237 -1.5567  1.0086 -1.9237
 3988TIP3    H233456   4.317   1.945   4.266 -1.3134  0.3951 -2.6949
 3989TIP3   OH233457   5.080   0.573  12.362  0.4895 -0.2322  0.3707
 3989TIP3    H133458   4.988   0.546  12.372  0.9756 -2.1270  0.1155
 3989TIP3    H233459   5.101   0.549  12.272  1.9434 -2.2130  1.1790
 3990TIP3   OH233460   1.861   1.138   0.529 -0.2334  0.0616 -0.4712
 3990TIP3    H133461   1.945   1.155   0.570 -0.3350  2.1886 -1.0080
 3990TIP3    H233462   1.863   1.188   0.447 -1.3801 -1.2080 -1.3328
 3991TIP3   OH233463   3.293   1.974   4.129 -0.2518 -0.4559 -0.0308
 3991TIP3    H133464   3.226   1.953   4.064  0.2938  0.0153 -0.7598
 3991TIP3    H233465   3.254   1.950   4.213 -1.4184  0.0516 -0.4210
 3992TIP3   OH233466   5.775   6.028  14.292 -0.4483  0.0618 -0.2220
 3992TIP3    H133467   5.840   6.091  14.322  1.2655  0.0790 -3.5124
 3992TIP3    H233468   5.769   5.964  14.363  1.5523  1.2298  1.0968
 3993TIP3   OH233469   0.739   6.478  17.116  0.4030 -0.5489 -0.1826
 3993TIP3    H133470   0.757   6.385  17.104 -1.5400 -0.7940 -1.5884
 3993TIP3    H233471   0.711   6.509  17.029 -2.0888  0.5693  0.9082
 3994TIP3   OH233472   3.427   1.725  11.440  0.2675 -0.4325 -0.6166
 3994TIP3    H133473   3.436   1.629  11.436 -3.1467 -0.8503 -1.3546
 3994TIP3    H233474   3.446   1.754  11.351 -0.7804 -0.7172 -0.9485
 3995TIP3   OH233475   3.612   4.347   2.762  0.2019  0.2169  0.1279
 3995TIP3    H133476   3.521   4.377   2.764 -0.6488 -2.1659 -0.3264
 3995TIP3    H233477   3.637   4.350   2.670  0.2793  0.0074  0.1413
 3996TIP3   OH233478   4.763   5.059   2.576  0.2446 -0.2324 -0.3452
 3996TIP3    H133479   4.683   5.100   2.543 -0.2782 -0.9553  0.0097
 3996TIP3    H233480   4.834   5.113   2.541 -0.4102  0.6749 -0.3118
 3997TIP3   OH233481   3.177   6.333  16.191 -1.0602  0.4215  0.3730
 3997TIP3    H133482   3.187   6.321  16.285  1.8736  1.7559  0.3286
 3997TIP3    H233483   3.183   6.427  16.178 -0.0598  0.1751 -1.2439
 3998TIP3   OH233484   5.823   5.703  10.331 -0.3093  0.4021  0.4315
 3998TIP3    H133485   5.909   5.745  10.343 -0.1709  0.6965 -1.4183
 3998TIP3    H233486   5.800   5.672  10.419  1.0755  1.4832  1.2219
 3999TIP3   OH233487   1.078   0.896  16.634 -0.1273  0.3016  0.2925
 3999TIP3    H133488   1.120   0.859  16.556 -1.4197  0.4048 -0.4975
 3999TIP3    H233489   0.985   0.898  16.611 -0.2707  2.7656  0.8319
 4000TIP3   OH233490   4.799   4.214   5.748  0.0946  0.3203 -0.5046
 4000TIP3    H133491   4.815   4.173   5.833 -0.0634 -0.7487 -0.9748
 4000TIP3    H233492   4.715   4.178   5.720  0.3036  0.4106 -1.2649
 4001TIP3   OH233493   5.992   2.773   6.561  0.5291  0.2002 -0.4024
 4001TIP3    H133494   5.976   2.863   6.591 -1.3214 -0.1292 -0.3306
 4001TIP3    H233495   6.045   2.784   6.482 -1.3778  1.4870 -1.5745
 4002TIP3   OH233496   5.621   5.172   5.302 -0.2384 -0.2249 -0.0484
 4002TIP3    H133497   5.700   5.213   5.268 -0.0546 -0.4508  0.1084
 4002TIP3    H233498   5.631   5.172   5.397 -0.6651  0.2229  0.0052
 4003TIP3   OH233499   5.696   0.258  10.463  0.2384  0.1616 -0.4199
 4003TIP3    H133500   5.719   0.218  10.547  0.4134  1.7954  0.3608
 4003TIP3    H233501   5.604   0.283  10.473  0.2299  0.2716 -0.7572
 4004TIP3   OH233502   0.809   5.827  14.287 -0.0293 -0.5159 -0.8156
 4004TIP3    H133503   0.868   5.805  14.359 -0.5046 -1.1681 -0.6118
 4004TIP3    H233504   0.864   5.873  14.224  0.3491  0.2552  0.0572
 4005TIP3   OH233505   4.305   5.930   4.730  0.0586  0.0822  0.5083
 4005TIP3    H133506   4.283   6.003   4.787 -0.1575 -0.9123  1.7409
 4005TIP3    H233507   4.398   5.939   4.712 -0.1876  1.2706 -0.2848
 4006TIP3   OH233508   6.333   6.568  15.821  0.0250 -0.7028  0.3362
 4006TIP3    H133509   6.411   6.514  15.810  0.5213 -0.3779  2.0282
 4006TIP3    H233510   6.266   6.507  15.852 -0.5782 -1.0796 -1.5890
 4007TIP3   OH233511   3.608   5.278   4.019 -0.3777  0.0060 -0.0453
 4007TIP3    H133512   3.630   5.321   4.102  0.0416 -1.2159  0.5112
 4007TIP3    H233513   3.553   5.341   3.973 -2.8713 -0.2490  2.3093
 4008TIP3   OH233514   4.852   3.750  16.005 -0.4151 -1.1346 -0.1234
 4008TIP3    H133515   4.937   3.741  16.048 -1.2141 -2.1209  1.3142
 4008TIP3    H233516   4.801   3.674  16.035 -2.3410  0.2603  0.3074
 4009TIP3   OH233517   3.962   6.480  11.019 -0.0478  0.2601  0.1131
 4009TIP3    H133518   3.974   6.568  11.055 -0.8047  0.6436 -0.5426
 4009TIP3    H233519   3.994   6.487  10.929  0.5050 -0.3188  0.2561
 4010TIP3   OH233520   6.719   5.570  12.853 -0.3514 -0.1808  0.1521
 4010TIP3    H133521   6.650   5.609  12.907 -3.1806 -3.1646 -0.9784
 4010TIP3    H233522   6.741   5.488  12.896  2.4236  0.5277  0.2908
 4011TIP3   OH233523   5.308   5.139   4.058 -0.0548  0.4427  0.6512
 4011TIP3    H133524   5.288   5.101   4.144 -0.9156 -0.7032 -0.0310
 4011TIP3    H233525   5.284   5.071   3.995 -1.0325  1.8654 -0.5895
 4012TIP3   OH233526   6.201   3.877   2.923 -0.3874 -0.0130  0.2512
 4012TIP3    H133527   6.119   3.884   2.970 -1.2353  1.0727 -1.2909
 4012TIP3    H233528   6.175   3.862   2.832  1.0550  1.3101 -0.4314
 4013TIP3   OH233529   4.824   3.530  14.722 -0.3686  0.0284  0.2343
 4013TIP3    H133530   4.890   3.531  14.652 -0.2586  1.0831  0.3430
 4013TIP3    H233531   4.871   3.498  14.799  0.1556  1.1981  0.4232
 4014TIP3   OH233532   1.758   3.138   1.593 -0.0764  0.2884 -0.0855
 4014TIP3    H133533   1.740   3.229   1.571 -1.9202  0.0819  0.3972
 4014TIP3    H233534   1.784   3.140   1.685 -1.0597  0.2581  0.2077
 4015TIP3   OH233535   4.604   0.275   4.196 -0.5926 -0.5926  0.4723
 4015TIP3    H133536   4.644   0.344   4.250  0.1797  0.4883 -1.3496
 4015TIP3    H233537   4.668   0.204   4.198  0.5463  0.3278 -0.7644
 4016TIP3   OH233538   1.574   2.555   3.891  0.8437 -0.3099  0.3866
 4016TIP3    H133539   1.639   2.505   3.939  1.0107 -0.5955 -0.1251
 4016TIP3    H233540   1.496   2.500   3.889 -0.5254  1.2226  3.6270
 4017TIP3   OH233541   2.697   5.084  11.237  0.1762  0.7962  0.5223
 4017TIP3    H133542   2.747   5.115  11.162 -0.1550 -2.9235 -1.4803
 4017TIP3    H233543   2.759   5.033  11.289 -0.7074 -1.1152 -0.2120
 4018TIP3   OH233544   5.230   1.996  11.493  0.1292  0.1695 -0.1019
 4018TIP3    H133545   5.173   1.920  11.482  0.9581 -0.4051 -0.5216
 4018TIP3    H233546   5.170   2.071  11.495 -0.6523 -0.4389 -0.3241
 4019TIP3   OH233547   2.499   1.424  13.896 -0.6749 -0.0937 -0.1587
 4019TIP3    H133548   2.570   1.359  13.900 -1.0421 -0.4313  1.0854
 4019TIP3    H233549   2.496   1.462  13.984 -1.3744  0.6467 -0.4923
 4020TIP3   OH233550   1.685   0.207   4.659 -0.4278 -0.0197  0.2310
 4020TIP3    H133551   1.757   0.253   4.703  0.2166 -0.3877 -0.4194
 4020TIP3    H233552   1.651   0.271   4.596  0.4726 -0.4069 -0.6772
 4021TIP3   OH233553   0.248   2.643   5.910 -0.0106  0.6406 -0.2359
 4021TIP3    H133554   0.220   2.726   5.947 -0.2084  1.0744 -1.3234
 4021TIP3    H233555   0.243   2.581   5.983 -0.2441  1.4889  0.4854
 4022TIP3   OH233556   2.014   6.478   2.142 -0.1618 -0.0188 -0.4288
 4022TIP3    H133557   2.098   6.491   2.099 -1.1711  1.0550 -2.2475
 4022TIP3    H233558   1.994   6.563   2.182  0.2356 -0.6795  1.2270
 4023TIP3   OH233559   4.827   6.669   3.918 -0.0990 -0.1931  0.5540
 4023TIP3    H133560   4.887   6.683   3.991  1.3066 -0.9050 -0.4178
 4023TIP3    H233561   4.774   6.593   3.945 -1.1711  0.9278  1.7540
 4024TIP3   OH233562   2.407   2.476  14.134 -0.0990 -0.3467 -0.0104
 4024TIP3    H133563   2.411   2.391  14.178 -2.9944 -0.3153  0.5157
 4024TIP3    H233564   2.414   2.455  14.041 -3.1524 -1.5975 -0.1058
 4025TIP3   OH233565   2.649   1.713   3.783 -0.2029  0.1422  0.4264
 4025TIP3    H133566   2.621   1.770   3.855 -0.6674  1.1806 -0.5471
 4025TIP3    H233567   2.603   1.746   3.707  0.3925 -0.8499 -0.3925
 4026TIP3   OH233568   3.876   1.760   0.013  0.6401  0.3858 -0.2207
 4026TIP3    H133569   3.970   1.764   0.027  0.5117  1.3993  0.5210
 4026TIP3    H233570   3.838   1.771   0.100 -0.1666 -1.4532 -0.3055
 4027TIP3   OH233571   1.294   3.126  12.467  0.3151 -0.6283  0.5338
 4027TIP3    H133572   1.250   3.191  12.521  0.6522  1.2397 -1.2974
 4027TIP3    H233573   1.320   3.175  12.388  2.2045 -2.5663 -0.1276
 4028TIP3   OH233574   4.564   5.798  11.399  0.1128  0.1995  0.6602
 4028TIP3    H133575   4.627   5.728  11.380 -1.0021 -0.3700 -1.3495
 4028TIP3    H233576   4.517   5.768  11.477  1.9359  0.3883  1.8629
 4029TIP3   OH233577   6.668   5.899   5.522 -0.4793 -0.0193  0.6198
 4029TIP3    H133578   6.726   5.971   5.497  0.0586 -0.3246  0.9522
 4029TIP3    H233579   6.700   5.872   5.608  1.5717 -2.9062 -0.8798
 4030TIP3   OH233580   1.844   4.398   4.605  0.2879 -0.3629  0.2921
 4030TIP3    H133581   1.774   4.353   4.558 -0.3463  2.0510 -1.2376
 4030TIP3    H233582   1.922   4.345   4.588 -0.9807 -2.8666  1.6770
 4031TIP3   OH233583   0.558   4.605   6.672  0.2674 -0.8681 -0.6250
 4031TIP3    H133584   0.648   4.576   6.655  0.5693 -1.6416  1.9648
 4031TIP3    H233585   0.508   4.524   6.673  0.3200 -0.9379  2.1102
 4032TIP3   OH233586   0.826   0.041  16.849 -0.1251 -0.5186  0.0889
 4032TIP3    H133587   0.841  -0.020  16.776  0.1197 -0.3454 -0.0075
 4032TIP3    H233588   0.869  -0.001  16.924  0.0423 -0.4650  0.0226
 4033TIP3   OH233589   3.595   2.638  12.413 -0.1196  0.4761 -0.0260
 4033TIP3    H133590   3.585   2.544  12.427 -0.7960  0.6353  0.6042
 4033TIP3    H233591   3.684   2.657  12.443  0.4044 -0.1181 -1.1039
 4034TIP3   OH233592   5.158   3.371   4.224 -0.4995  0.0759 -0.3679
 4034TIP3    H133593   5.102   3.350   4.150 -3.1190  0.7424  1.2720
 4034TIP3    H233594   5.155   3.467   4.231 -0.6936  0.0040  0.8292
 4035TIP3   OH233595   1.014   2.077   6.733  0.5305 -0.1380  0.0985
 4035TIP3    H133596   0.927   2.039   6.745  0.6234 -1.0292 -1.7285
 4035TIP3    H233597   0.998   2.169   6.711  0.2255  0.4758  2.5303
 4036TIP3   OH233598   3.311   1.755  16.056  0.5568  0.3993 -0.0168
 4036TIP3    H133599   3.291   1.730  15.965  0.7915 -0.4311  0.1519
 4036TIP3    H233600   3.373   1.688  16.086  3.6337  2.7973 -0.5053
 4037TIP3   OH233601   3.059   2.854  16.031 -0.2296 -0.1077  0.4255
 4037TIP3    H133602   3.104   2.783  15.985  0.1822  0.6800 -0.4264
 4037TIP3    H233603   2.970   2.823  16.042  0.3904 -1.5226  1.7649
 4038TIP3   OH233604   5.094   2.491   5.521  0.0960 -0.2489 -0.1459
 4038TIP3    H133605   5.103   2.497   5.616  1.2186 -0.4409 -0.2261
 4038TIP3    H233606   5.002   2.473   5.506 -0.5585  1.9767  0.8026
 4039TIP3   OH233607   6.168   5.162   5.183  0.4850 -0.0485 -0.4309
 4039TIP3    H133608   6.252   5.144   5.140  1.0195 -0.4011  0.7181
 4039TIP3    H233609   6.102   5.135   5.119  1.2377  0.0300 -1.2683
 4040TIP3   OH233610   3.325   3.646  13.866 -0.1595 -0.0829  0.8408
 4040TIP3    H133611   3.283   3.622  13.783  2.1977  0.9134 -0.7401
 4040TIP3    H233612   3.258   3.628  13.932 -3.0432  1.2683 -1.4495
 4041TIP3   OH233613   1.633   3.358  16.909  0.2025  0.2695 -0.1399
 4041TIP3    H133614   1.715   3.400  16.884  0.9727 -1.1008 -0.0384
 4041TIP3    H233615   1.593   3.333  16.826 -0.3194  1.3015 -0.2050
 4042TIP3   OH233616   2.206   2.392  13.805 -0.4506  0.0288 -0.2145
 4042TIP3    H133617   2.133   2.406  13.865 -0.2927 -1.5284  0.3967
 4042TIP3    H233618   2.225   2.298  13.813  0.3652  0.0371 -1.8004
 4043TIP3   OH233619   1.501   2.511  12.497 -0.2903  0.3083  0.4704
 4043TIP3    H133620   1.482   2.439  12.556 -2.0113 -0.5581 -1.0508
 4043TIP3    H233621   1.477   2.590  12.546  0.6590 -0.1829  1.7798
 4044TIP3   OH233622   0.047   4.829   5.429  0.2454  0.6522 -0.2490
 4044TIP3    H133623   0.050   4.884   5.351  1.3816  0.9035 -0.0478
 4044TIP3    H233624   0.085   4.883   5.498 -0.5784  0.3660  0.4482
 4045TIP3   OH233625   2.084   3.192   4.083  0.0651  0.2327  0.0659
 4045TIP3    H133626   2.093   3.132   4.157 -2.0579 -0.7596 -0.4154
 4045TIP3    H233627   2.005   3.242   4.102 -0.0940  0.4813 -1.1950
 4046TIP3   OH233628   1.106   4.216  15.941  0.3257  0.4139  0.1792
 4046TIP3    H133629   1.173   4.190  16.004 -0.3961  1.2956  1.3566
 4046TIP3    H233630   1.147   4.286  15.890  1.1294 -0.7266 -0.7756
 4047TIP3   OH233631   3.717   0.034   0.767 -0.4046 -0.0614 -0.2507
 4047TIP3    H133632   3.622   0.032   0.780 -0.3362  0.4811  0.3929
 4047TIP3    H233633   3.754   0.025   0.855  0.1026  2.1541 -0.1736
 4048TIP3   OH233634   1.011   0.057  11.622  0.0808 -0.2480  0.0069
 4048TIP3    H133635   1.079   0.060  11.555  0.4451  0.2245  0.3917
 4048TIP3    H233636   0.946   0.121  11.593 -0.3261 -0.8531 -0.4747
 4049TIP3   OH233637   4.712   1.473   6.062  0.1375  0.8564  0.2535
 4049TIP3    H133638   4.685   1.557   6.026 -0.1716  0.3181 -0.8293
 4049TIP3    H233639   4.631   1.420   6.062  0.0089  0.9729  2.2145
 4050TIP3   OH233640   5.828   6.494  16.070 -0.4259  0.6811 -0.0629
 4050TIP3    H133641   5.894   6.473  16.136 -1.2788  0.7012  0.8272
 4050TIP3    H233642   5.866   6.566  16.020  0.4040  0.3989  0.1450
 4051TIP3   OH233643   5.406   3.862  11.231 -0.1657  0.1431  0.6043
 4051TIP3    H133644   5.451   3.841  11.313  1.7469  1.6096  0.0136
 4051TIP3    H233645   5.456   3.815  11.164 -0.7878  0.1750  0.1116
 4052TIP3   OH233646   4.904   1.899   5.247 -0.6105  0.6593  0.0069
 4052TIP3    H133647   4.820   1.937   5.271 -0.3963  0.2628  1.4677
 4052TIP3    H233648   4.966   1.972   5.250 -0.6981  0.7304  0.0512
 4053TIP3   OH233649   4.229   5.106   4.749 -0.3193 -0.4162  0.2349
 4053TIP3    H133650   4.260   5.058   4.826 -1.8978  0.3972  1.4499
 4053TIP3    H233651   4.260   5.196   4.764 -0.3587 -0.3180 -0.2618
 4054TIP3   OH233652   6.075   3.569   2.730  0.0795  0.0903  0.0987
 4054TIP3    H133653   6.071   3.473   2.727 -0.3795  0.0356  1.7314
 4054TIP3    H233654   5.984   3.597   2.738  0.3007  0.5713  1.1655
 4055TIP3   OH233655   6.404   0.891   4.776 -0.4073 -0.1256  0.3026
 4055TIP3    H133656   6.347   0.824   4.812 -0.6035 -0.7002 -1.0162
 4055TIP3    H233657   6.482   0.843   4.748  1.1249  0.7340  2.7471
 4056TIP3   OH233658   3.280   6.059   0.465 -0.0127  0.6078  0.3963
 4056TIP3    H133659   3.288   6.154   0.457  1.0181  0.3860 -1.9550
 4056TIP3    H233660   3.364   6.031   0.500 -0.2703  0.5298  0.9648
 4057TIP3   OH233661   4.143   6.783  16.928  0.1022 -0.6294 -0.0636
 4057TIP3    H133662   4.102   6.697  16.925 -0.4775 -0.3567 -0.1195
 4057TIP3    H233663   4.232   6.766  16.959  0.3321 -1.3672 -1.0830
 4058TIP3   OH233664   0.803   6.478   0.911  0.8318  0.2111 -0.4807
 4058TIP3    H133665   0.728   6.503   0.857  0.6467  0.0614 -0.2934
 4058TIP3    H233666   0.781   6.392   0.945  2.4165 -1.2593 -2.9021
 4059TIP3   OH233667   5.716   3.673  11.860 -0.1859 -0.2210 -0.3168
 4059TIP3    H133668   5.721   3.753  11.808 -1.2111 -0.0222 -0.1421
 4059TIP3    H233669   5.802   3.632  11.851  1.1650  2.0032  1.3624
 4060TIP3   OH233670   0.288   5.509   3.631 -0.2444  0.1485 -0.0992
 4060TIP3    H133671   0.194   5.520   3.618 -0.2422  1.9374  1.0519
 4060TIP3    H233672   0.301   5.414   3.632 -2.1250 -0.1512  0.3048
 4061TIP3   OH233673   4.401   1.174  11.227  0.6572 -0.2798  0.4661
 4061TIP3    H133674   4.364   1.095  11.186  1.0525 -0.3814  0.2962
 4061TIP3    H233675   4.370   1.246  11.172 -0.6329 -0.1961  1.2653
 4062TIP3   OH233676   1.448   0.120  12.651 -0.0464 -0.2717  0.2856
 4062TIP3    H133677   1.412   0.031  12.641  0.8028 -0.7092  0.9972
 4062TIP3    H233678   1.527   0.108  12.703  1.0323  0.7094 -1.0738
 4063TIP3   OH233679   0.032   4.409   6.024  0.4822 -0.5901  0.0941
 4063TIP3    H133680  -0.019   4.394   6.104  0.4566 -1.4863 -0.0767
 4063TIP3    H233681   0.122   4.422   6.054 -0.1518  3.9684  0.6719
 4064TIP3   OH233682   2.639   3.344  15.582  0.1357  0.1300 -0.1819
 4064TIP3    H133683   2.709   3.410  15.583 -0.0898  0.4371 -1.9017
 4064TIP3    H233684   2.672   3.276  15.524 -0.0731 -0.8156  0.7779
 4065TIP3   OH233685   2.601   5.410   0.939 -0.1264  0.7074  0.3422
 4065TIP3    H133686   2.610   5.438   1.030  0.6504 -0.7449  0.7498
 4065TIP3    H233687   2.526   5.351   0.939  0.6548 -0.3304  0.3472
 4066TIP3   OH233688   5.018   3.062   3.055  0.1888 -0.1183 -0.2873
 4066TIP3    H133689   4.929   3.087   3.033  0.2038 -1.6389 -2.3988
 4066TIP3    H233690   5.009   3.011   3.136 -0.6439  0.9365  0.3047
 4067TIP3   OH233691   0.605   3.604  13.403 -0.5093  0.3302  0.2475
 4067TIP3    H133692   0.516   3.572  13.385 -0.7741  1.4379 -0.5314
 4067TIP3    H233693   0.616   3.591  13.497 -0.4789 -2.2643 -0.0534
 4068TIP3   OH233694   3.432   5.407   1.742 -0.2899  0.3286  0.0368
 4068TIP3    H133695   3.375   5.332   1.759 -0.3189  0.3201 -0.0982
 4068TIP3    H233696   3.373   5.481   1.731 -0.3215  0.1571 -0.9692
 4069TIP3   OH233697   2.608   6.042  12.167 -0.5062 -0.0586 -0.8730
 4069TIP3    H133698   2.611   6.088  12.084  1.3521  1.2567 -0.1497
 4069TIP3    H233699   2.590   6.110  12.232 -2.6506 -1.1559 -0.2085
 4070TIP3   OH233700   1.668   1.445   1.951  0.0120  0.1117  0.7368
 4070TIP3    H133701   1.648   1.539   1.945 -2.3526 -0.2972  1.0690
 4070TIP3    H233702   1.647   1.411   1.864  0.3329 -0.2019  0.7812
 4071TIP3   OH233703   4.004   3.256  11.697  0.1110  0.4951  0.3743
 4071TIP3    H133704   4.075   3.194  11.713 -0.5758 -0.8743 -1.5175
 4071TIP3    H233705   4.037   3.314  11.628  0.2426  1.3797  1.1648
 4072TIP3   OH233706   1.024   6.122   0.328 -0.4061  0.3878 -0.3761
 4072TIP3    H133707   0.980   6.041   0.352 -0.6972  0.4874 -0.5711
 4072TIP3    H233708   1.111   6.094   0.298 -0.8601  0.0488 -1.4098
 4073TIP3   OH233709   4.445   1.450   1.277 -0.2764  0.0810  0.2406
 4073TIP3    H133710   4.387   1.405   1.338 -1.2689  0.6896 -0.2305
 4073TIP3    H233711   4.502   1.381   1.243  0.2416 -0.2893  1.7473
 4074TIP3   OH233712   6.244   6.230  15.840 -0.2223 -0.3418 -0.1570
 4074TIP3    H133713   6.172   6.251  15.899 -0.4636 -0.1612 -0.5116
 4074TIP3    H233714   6.322   6.227  15.896  0.0403  2.5664 -0.1966
 4075TIP3   OH233715   2.145   5.648  12.134  0.7382  0.4294 -0.7765
 4075TIP3    H133716   2.220   5.701  12.163  0.1288  0.4859  0.7843
 4075TIP3    H233717   2.077   5.665  12.199  0.6967 -2.7008  0.1408
 4076TIP3   OH233718   1.448   4.706   2.273 -0.3052  0.2009  0.5419
 4076TIP3    H133719   1.470   4.628   2.222 -0.1401 -0.1414  1.1139
 4076TIP3    H233720   1.533   4.743   2.297 -0.3694  0.0023  1.0886
 4077TIP3   OH233721   0.001   2.070   4.992  0.1902  0.0402  0.3676
 4077TIP3    H133722   0.016   2.071   5.086  0.2651  1.4862  0.3703
 4077TIP3    H233723  -0.065   2.138   4.978 -0.0370 -0.3645 -0.5914
 4078TIP3   OH233724   6.738   0.335  12.922  0.2966  0.1082  0.4222
 4078TIP3    H133725   6.827   0.314  12.952  0.0483 -1.1902  0.2880
 4078TIP3    H233726   6.684   0.263  12.954 -0.3185 -0.2883 -1.4178
 4079TIP3   OH233727   4.989   2.638  12.833  0.1479  0.5890  0.2629
 4079TIP3    H133728   5.055   2.704  12.812 -0.3585  0.8565 -0.5398
 4079TIP3    H233729   5.021   2.558  12.790  0.5759  0.3866  0.9328
 4080TIP3   OH233730   2.305   5.518   5.124 -0.1548 -0.1864  0.2722
 4080TIP3    H133731   2.356   5.595   5.151 -0.1239 -0.7092  1.7645
 4080TIP3    H233732   2.314   5.517   5.029 -0.0120  1.5609  0.2201
 4081TIP3   OH233733   0.120   0.054  14.824 -0.2435  0.3470  0.0247
 4081TIP3    H133734   0.128  -0.041  14.837 -0.0733  0.3714  0.1036
 4081TIP3    H233735   0.163   0.071  14.740  0.7499  0.5075  0.5477
 4082TIP3   OH233736   1.709   0.325  14.604  0.1768 -0.1945 -0.0197
 4082TIP3    H133737   1.625   0.371  14.604 -0.2454 -0.8851  1.4263
 4082TIP3    H233738   1.773   0.392  14.626 -0.1829  0.0862  0.1911
 4083TIP3   OH233739   2.214   0.156  12.607  0.3368 -0.0727  0.2384
 4083TIP3    H133740   2.238   0.133  12.517  0.1679 -2.7796  0.8078
 4083TIP3    H233741   2.298   0.173  12.650  0.6381 -1.3157  0.1737
 4084TIP3   OH233742   5.421   0.733   1.049  0.2446  0.3465 -0.1716
 4084TIP3    H133743   5.389   0.770   1.131  2.2189  1.4938  0.1594
 4084TIP3    H233744   5.372   0.778   0.980 -0.0468  0.8146  0.3416
 4085TIP3   OH233745   1.015   2.175  14.001  0.0670  0.0786 -1.1024
 4085TIP3    H133746   1.000   2.240  14.070  0.5408 -0.3473 -0.5862
 4085TIP3    H233747   0.927   2.142  13.980 -0.2555  1.3595 -1.8617
 4086TIP3   OH233748   5.201   2.756   4.016 -0.2172  0.1204  0.0084
 4086TIP3    H133749   5.134   2.737   4.081  1.1756  0.7220  1.7163
 4086TIP3    H233750   5.228   2.671   3.984 -0.8877 -0.1977  0.2639
 4087TIP3   OH233751   5.026   2.634   4.878 -0.1314 -0.1461  0.0388
 4087TIP3    H133752   5.019   2.553   4.928  2.7331 -0.3727  0.2489
 4087TIP3    H233753   4.940   2.646   4.838 -1.4249 -1.8537  2.1124
 4088TIP3   OH233754   5.687   2.269   3.571 -0.4261  0.1168 -0.1276
 4088TIP3    H133755   5.613   2.209   3.558 -0.7823  0.1155  1.5833
 4088TIP3    H233756   5.657   2.352   3.534 -0.5517 -0.3477 -1.0940
 4089TIP3   OH233757   5.593   2.005   1.951  0.9023  0.2243 -0.1959
 4089TIP3    H133758   5.535   1.931   1.967 -0.7874  1.3997 -0.6001
 4089TIP3    H233759   5.673   1.984   2.000 -0.2394 -0.9761  1.2525
 4090TIP3   OH233760   5.157   2.051   1.610  0.1885 -0.3725  0.4150
 4090TIP3    H133761   5.079   2.099   1.639 -1.2721 -2.0722 -0.4851
 4090TIP3    H233762   5.217   2.119   1.580 -1.3639  0.9601  0.1756
 4091TIP3   OH233763   1.235   0.098   2.822  0.1148  0.7599  0.3503
 4091TIP3    H133764   1.228   0.061   2.910 -0.9278  0.8989  0.3401
 4091TIP3    H233765   1.283   0.180   2.834  1.6844 -0.1398  0.4951
 4092TIP3   OH233766   3.471   1.979  15.348 -0.1802 -0.3571  0.2030
 4092TIP3    H133767   3.506   1.913  15.289  0.2630 -0.0818  0.1489
 4092TIP3    H233768   3.378   1.958  15.357  0.1236 -1.4756  0.8323
 4093TIP3   OH233769   1.360   5.769   2.819 -0.3378 -0.1783 -0.1010
 4093TIP3    H133770   1.453   5.786   2.833 -0.2389  0.7150 -1.6248
 4093TIP3    H233771   1.321   5.775   2.906  0.6632  1.8895  0.2683
 4094TIP3   OH233772   1.364   0.894  17.100 -0.8258 -0.1380  0.1133
 4094TIP3    H133773   1.294   0.898  17.035 -0.9489  1.1679  0.3099
 4094TIP3    H233774   1.383   0.985  17.121  3.3978 -0.1034 -2.5994
 4095TIP3   OH233775   1.372   3.754  14.028  0.6177  0.7400  0.2576
 4095TIP3    H133776   1.394   3.699  14.104  0.4132  0.2627 -0.0274
 4095TIP3    H233777   1.457   3.784  13.995  0.8250 -0.5528 -0.4312
 4096TIP3   OH233778   3.830   0.858   5.628 -0.1690 -0.2065 -0.0962
 4096TIP3    H133779   3.925   0.862   5.625  0.1123 -3.1993  1.1593
 4096TIP3    H233780   3.805   0.820   5.543 -0.2706  0.5475 -0.4120
 4097TIP3   OH233781   6.264   5.720   0.736 -0.7606  0.4198  0.7641
 4097TIP3    H133782   6.293   5.637   0.697  0.6621  1.0210  0.4692
 4097TIP3    H233783   6.216   5.764   0.666  0.6744  0.9296  0.0597
 4098TIP3   OH233784   1.715   6.353   6.462 -0.2124  0.1983 -0.2840
 4098TIP3    H133785   1.644   6.403   6.422 -0.8775 -0.5913 -0.1258
 4098TIP3    H233786   1.778   6.339   6.391 -1.0567 -0.6076 -0.9028
 4099TIP3   OH233787   1.072   4.263  11.515 -0.1530  0.2991 -0.4501
 4099TIP3    H133788   0.988   4.250  11.472 -0.1258  0.9300 -0.6977
 4099TIP3    H233789   1.091   4.356  11.504 -0.0571  0.4360  0.7515
 4100TIP3   OH233790   1.535   3.585   3.696 -0.4787 -0.0266 -0.5499
 4100TIP3    H133791   1.581   3.653   3.744 -1.0831 -0.2975  0.4425
 4100TIP3    H233792   1.562   3.597   3.605  2.3686 -0.8096  0.0948
 4101TIP3   OH233793   3.881   4.241  13.383  0.0453 -0.0277 -0.6697
 4101TIP3    H133794   3.870   4.147  13.399  1.2547 -0.0864 -0.1104
 4101TIP3    H233795   3.924   4.245  13.297  1.0358 -0.0415 -0.1837
 4102TIP3   OH233796   3.599   1.110  13.738  0.3003 -0.4473 -0.2625
 4102TIP3    H133797   3.640   1.024  13.730 -0.2137 -0.6193 -1.2249
 4102TIP3    H233798   3.668   1.172  13.714  0.8994 -0.5129  1.1593
 4103TIP3   OH233799   5.637   0.406   4.334 -0.1521  0.1357 -0.0236
 4103TIP3    H133800   5.675   0.383   4.249 -0.1619 -0.6658  0.1793
 4103TIP3    H233801   5.558   0.455   4.312  0.6834  1.3431 -0.4555
 4104TIP3   OH233802   1.821   0.326  14.326  0.3158 -0.2107  0.2973
 4104TIP3    H133803   1.824   0.331  14.421  3.2149 -1.3056  0.3503
 4104TIP3    H233804   1.852   0.238  14.305  2.1939  0.8181 -1.6738
 4105TIP3   OH233805   6.591   1.769  16.632  0.0435  0.0969 -0.4632
 4105TIP3    H133806   6.566   1.788  16.722 -0.0227 -2.6945  0.2050
 4105TIP3    H233807   6.583   1.674  16.624  1.0347  0.1357 -3.1294
 4106TIP3   OH233808   3.127   4.849   0.308 -0.3363 -0.2373  0.4338
 4106TIP3    H133809   3.088   4.851   0.221 -0.3522 -1.0476  0.4139
 4106TIP3    H233810   3.150   4.940   0.326  0.5321 -0.1825 -0.8131
 4107TIP3   OH233811   5.106   1.609   5.968 -0.0306  0.4497  0.2862
 4107TIP3    H133812   5.047   1.540   5.999 -0.1705  0.5596  0.2675
 4107TIP3    H233813   5.081   1.686   6.018 -0.5734  0.7452 -0.4224
 4108TIP3   OH233814   3.887   0.517   1.897 -0.1458 -0.1337  0.0332
 4108TIP3    H133815   3.829   0.592   1.909  0.4648  0.5658 -1.2467
 4108TIP3    H233816   3.927   0.504   1.983  2.6165  3.4516 -0.4918
 4109TIP3   OH233817   4.285   1.644   2.763 -0.0353  0.4228 -0.2047
 4109TIP3    H133818   4.299   1.672   2.673  0.4929  0.7677 -0.0190
 4109TIP3    H233819   4.269   1.725   2.812 -2.4263  0.0881 -0.3343
 4110TIP3   OH233820   2.959   6.392   1.523  0.2938 -0.5327 -0.0674
 4110TIP3    H133821   2.885   6.435   1.480  0.6334 -0.4953 -0.6337
 4110TIP3    H233822   3.029   6.394   1.457  1.8902  2.3741  1.5145
 4111TIP3   OH233823   1.382   6.680   2.569 -0.3086  0.4170  0.3349
 4111TIP3    H133824   1.341   6.720   2.646  1.5305  0.4296  1.3789
 4111TIP3    H233825   1.383   6.586   2.588 -0.2677  0.3718  0.1164
 4112TIP3   OH233826   4.728   2.147   2.355  0.3310 -0.4349 -0.2108
 4112TIP3    H133827   4.677   2.066   2.362 -0.1805 -0.0705  0.5444
 4112TIP3    H233828   4.709   2.194   2.437  2.5197 -0.6430  0.4674
 4113TIP3   OH233829   1.333   2.350  12.115 -0.5279  0.0445 -0.4054
 4113TIP3    H133830   1.266   2.282  12.126  0.4998 -1.0251 -0.5272
 4113TIP3    H233831   1.306   2.398  12.037  0.3032 -2.1857 -2.1653
 4114TIP3   OH233832   1.066   0.984  10.340  0.1968 -0.4675  0.0077
 4114TIP3    H133833   1.131   0.915  10.328  0.7015 -0.0822  0.4448
 4114TIP3    H233834   0.997   0.944  10.391  1.1429 -0.2882  1.5033
 4115TIP3   OH233835   1.462   6.733   0.607  0.1011 -0.4224 -0.2951
 4115TIP3    H133836   1.425   6.798   0.547  3.0733  2.2637  0.5020
 4115TIP3    H233837   1.557   6.742   0.596  0.7790 -0.7333  3.7995
 4116TIP3   OH233838   5.230   4.631   5.267 -0.3589  0.2501 -0.4930
 4116TIP3    H133839   5.270   4.718   5.269  0.1156  0.0374 -0.6274
 4116TIP3    H233840   5.136   4.648   5.262 -0.4439  0.7785  1.8970
 4117TIP3   OH233841   0.222   6.703   2.542 -0.3736 -0.0652 -0.3349
 4117TIP3    H133842   0.147   6.763   2.540  0.5343  1.2672  1.6724
 4117TIP3    H233843   0.189   6.626   2.589 -0.8443 -0.0526 -0.6357
 4118TIP3   OH233844   2.193   2.359  14.356 -0.3511  0.7273 -0.3990
 4118TIP3    H133845   2.218   2.359  14.448 -1.6770  1.6077 -0.0248
 4118TIP3    H233846   2.143   2.439  14.343  1.5225  1.6941 -2.3900
 4119TIP3   OH233847   4.204   2.177  17.136 -0.2182 -0.2621  0.0857
 4119TIP3    H133848   4.157   2.243  17.086 -0.0193 -0.6058 -0.5618
 4119TIP3    H233849   4.140   2.107  17.152 -0.1871 -0.3061  0.0178
 4120TIP3   OH233850   3.883   3.378  14.295 -0.7802 -0.0203 -0.1679
 4120TIP3    H133851   3.810   3.439  14.298 -0.7274  0.0472 -0.2456
 4120TIP3    H233852   3.855   3.311  14.232 -0.6775  0.1338 -0.3800
 4121TIP3   OH233853   1.469   4.079   2.319 -0.2855 -0.6139 -0.6518
 4121TIP3    H133854   1.385   4.102   2.279 -0.4526 -0.3228 -0.1428
 4121TIP3    H233855   1.505   4.163   2.347 -0.7117 -0.9035  0.8714
 4122TIP3   OH233856   0.071   6.790   5.361 -0.0376  0.2621  0.9659
 4122TIP3    H133857  -0.007   6.789   5.415 -1.7081  0.0687 -1.2970
 4122TIP3    H233858   0.074   6.703   5.322  0.9366  0.4747  0.5341
 4123TIP3   OH233859   3.008   6.730  12.841  0.1461 -0.8441  0.2254
 4123TIP3    H133860   2.966   6.816  12.831 -1.2047 -1.6754 -2.1070
 4123TIP3    H233861   3.074   6.727  12.771  0.4578 -1.5465  0.5408
 4124TIP3   OH233862   0.393   1.500   4.751 -0.2081  0.3393 -0.6158
 4124TIP3    H133863   0.392   1.485   4.845 -2.1492 -1.0421 -0.7978
 4124TIP3    H233864   0.436   1.585   4.740  0.8159  0.1361  1.4217
 4125TIP3   OH233865   2.047   4.217   5.148 -0.2051  0.1594  0.1271
 4125TIP3    H133866   2.063   4.245   5.238 -0.1974 -2.4214  1.0072
 4125TIP3    H233867   2.134   4.214   5.108 -0.0834  0.2527  0.3828
 4126TIP3   OH233868   6.253   0.446   3.519  0.1877 -0.2576  0.2086
 4126TIP3    H133869   6.195   0.468   3.446  0.1854  2.9079  1.0307
 4126TIP3    H233870   6.327   0.401   3.477  0.7099  2.3743 -2.0557
 4127TIP3   OH233871   1.449   6.651   3.276 -0.5541 -1.1757 -0.2309
 4127TIP3    H133872   1.354   6.649   3.272 -0.7487  1.5208  1.0467
 4127TIP3    H233873   1.469   6.676   3.366  1.3542 -1.5502 -0.5129
 4128TIP3   OH233874   2.300   5.792   6.883 -0.2899 -0.1918 -0.2035
 4128TIP3    H133875   2.281   5.762   6.972 -2.2662  0.8173 -0.2273
 4128TIP3    H233876   2.281   5.716   6.828  1.7700 -1.0962  0.2396
 4129TIP3   OH233877   5.907   0.082   2.435  0.2920  0.6475 -0.6040
 4129TIP3    H133878   5.957   0.121   2.363 -1.0664 -0.9902 -2.5498
 4129TIP3    H233879   5.953   0.001   2.456  1.2543  1.5895  1.1562
 4130TIP3   OH233880   6.444   6.283   4.204 -0.1708 -1.0997  0.0522
 4130TIP3    H133881   6.459   6.308   4.295 -1.3367 -0.4031  0.0695
 4130TIP3    H233882   6.462   6.363   4.154 -0.4800 -1.2118 -0.2402
 4131TIP3   OH233883   1.497   6.719  12.320  0.1195 -0.2851  0.2387
 4131TIP3    H133884   1.577   6.766  12.344 -0.2435  0.4556  0.0362
 4131TIP3    H233885   1.509   6.697  12.228 -1.1215  2.4961 -0.7157
 4132TIP3   OH233886   0.793   3.485  12.935 -0.0869  0.3389  0.2110
 4132TIP3    H133887   0.865   3.439  12.978 -1.0786 -1.6428 -0.1221
 4132TIP3    H233888   0.752   3.536  13.005 -0.2657 -0.9930  1.1019
 4133TIP3   OH233889   1.141   0.092  13.439 -0.2860 -0.3058  0.3355
 4133TIP3    H133890   1.068   0.069  13.497 -0.2169  0.5257  0.7740
 4133TIP3    H233891   1.120   0.049  13.356 -1.7684  0.6481  0.1630
 4134TIP3   OH233892   0.986   3.784   4.868 -0.4765 -0.3320 -0.0010
 4134TIP3    H133893   1.061   3.802   4.925 -1.5547  0.0813  1.3513
 4134TIP3    H233894   0.933   3.863   4.872 -2.2752 -1.5107  1.1903
 4135TIP3   OH233895   2.938   2.522   4.619  0.3265  0.8608 -0.1563
 4135TIP3    H133896   2.996   2.527   4.544  0.8291  2.9601  0.3076
 4135TIP3    H233897   2.909   2.431   4.622 -1.6456  1.1196 -4.3314
 4136TIP3   OH233898   3.073   4.861  14.153  0.2159  0.0888  0.4033
 4136TIP3    H133899   2.982   4.857  14.182  0.5252 -0.3669  1.3460
 4136TIP3    H233900   3.088   4.955  14.137 -0.1863  0.2610  0.9985
 4137TIP3   OH233901   4.533   2.609   1.932  0.0856 -0.3793 -0.1675
 4137TIP3    H133902   4.573   2.595   1.846  1.3429  0.1998  0.2945
 4137TIP3    H233903   4.449   2.649   1.913  0.6939  0.4998 -1.1306
 4138TIP3   OH233904   4.158   2.058  15.513  0.0874  0.2081 -0.8543
 4138TIP3    H133905   4.160   2.045  15.418 -1.8885  1.0895 -1.0667
 4138TIP3    H233906   4.209   1.985  15.548  0.6364 -0.2894 -2.5688
 4139TIP3   OH233907   3.534   1.373   5.567  0.1099 -0.6393  0.0656
 4139TIP3    H133908   3.546   1.468   5.573 -2.6145 -0.2526  0.5333
 4139TIP3    H233909   3.622   1.339   5.554  1.2269  1.9080  0.3496
 4140TIP3   OH233910   6.175   4.213   1.290  0.1614 -0.1560 -0.1810
 4140TIP3    H133911   6.142   4.126   1.270 -1.2668  0.3506 -0.1285
 4140TIP3    H233912   6.096   4.266   1.304  1.0115  0.8490  1.0475
 4141TIP3   OH233913   1.373   2.000  16.009  0.6852 -0.5779  0.2502
 4141TIP3    H133914   1.446   2.059  15.987 -0.0880 -0.0658 -1.0544
 4141TIP3    H233915   1.366   1.942  15.934 -0.8656  0.0063 -0.0910
 4142TIP3   OH233916   4.841   1.809   5.517 -0.1707  0.7038 -0.4033
 4142TIP3    H133917   4.858   1.759   5.437 -1.3533  0.5197 -0.5453
 4142TIP3    H233918   4.767   1.866   5.496 -1.2376 -0.1451  0.8701
 4143TIP3   OH233919   3.553   2.302  14.555  0.5071 -0.9087  0.1144
 4143TIP3    H133920   3.643   2.273  14.536  0.2566 -0.9086 -1.1735
 4143TIP3    H233921   3.499   2.227  14.530  0.0256 -0.2197 -0.9862
 4144TIP3   OH233922   6.261   4.542   5.961  0.0680  0.3945  0.0428
 4144TIP3    H133923   6.344   4.549   6.007  1.5410  0.4655 -2.4165
 4144TIP3    H233924   6.194   4.556   6.028  2.0245  0.6250  2.0495
 4145TIP3   OH233925   6.665   4.412  17.216  0.1403 -0.3312 -0.6640
 4145TIP3    H133926   6.600   4.462  17.168 -0.8665 -1.5930 -0.6643
 4145TIP3    H233927   6.700   4.350  17.152 -2.3998 -3.1700  0.4734
 4146TIP3   OH233928   3.262   4.242  16.756 -0.2021 -0.1597 -0.0974
 4146TIP3    H133929   3.302   4.188  16.824  0.9048 -0.0858 -0.6844
 4146TIP3    H233930   3.190   4.287  16.802  1.3343  0.9215  1.3693
 4147TIP3   OH233931   2.623   0.113   0.950  0.6104  0.1642  0.1645
 4147TIP3    H133932   2.680   0.050   0.906  1.7651 -0.5779  2.5683
 4147TIP3    H233933   2.625   0.190   0.893 -0.2092 -1.6030 -2.4375
 4148TIP3   OH233934   0.013   1.683  11.306 -0.0103  0.2657 -0.5295
 4148TIP3    H133935  -0.010   1.720  11.221  0.0723  0.4698 -0.4634
 4148TIP3    H233936   0.055   1.755  11.353  0.3122  0.0380 -0.4636
 4149TIP3   OH233937   2.256   2.453  13.202 -0.4469 -0.3300 -0.3049
 4149TIP3    H133938   2.188   2.406  13.250  1.1874 -1.8680  0.6246
 4149TIP3    H233939   2.319   2.480  13.269 -1.2236  3.1949 -0.8110
 4150TIP3   OH233940   6.258   6.207   3.963 -0.4895  0.3291 -0.0763
 4150TIP3    H133941   6.285   6.222   4.054  0.4389  0.5118 -0.3660
 4150TIP3    H233942   6.316   6.263   3.912 -1.9613  1.3250 -0.7061
 4151TIP3   OH233943   4.787   3.262   0.504  0.3006 -0.2787  0.3901
 4151TIP3    H133944   4.823   3.181   0.468 -1.6142 -1.7131  1.5090
 4151TIP3    H233945   4.769   3.242   0.596 -1.9232  0.7700  0.2581
 4152TIP3   OH233946   6.791   2.686  14.137  0.4587  0.2742 -0.2657
 4152TIP3    H133947   6.735   2.762  14.121  1.5553  0.8389 -1.6687
 4152TIP3    H233948   6.738   2.628  14.191 -1.7971  0.4244 -2.1428
 4153TIP3   OH233949   5.616   6.483   2.928  0.3427 -0.1880  0.3583
 4153TIP3    H133950   5.596   6.501   2.837  0.2273 -0.6868  0.2830
 4153TIP3    H233951   5.634   6.389   2.931  2.1785  0.1346  0.5045
 4154TIP3   OH233952   6.530   0.496  12.762  0.2224 -0.0659  0.2398
 4154TIP3    H133953   6.603   0.532  12.711 -0.1493  0.8603  0.3594
 4154TIP3    H233954   6.573   0.438  12.826  0.8374  0.3282  0.1923
 4155TIP3   OH233955   1.091   1.483   5.138  0.3248  0.0886 -0.7417
 4155TIP3    H133956   1.114   1.447   5.052 -1.3125  0.1905 -1.2483
 4155TIP3    H233957   1.067   1.574   5.121 -0.3861  0.0025 -0.2470
 4156TIP3   OH233958   3.992   2.047  14.969  0.4135  0.1501  0.3332
 4156TIP3    H133959   3.910   2.009  15.000  0.1402 -0.0953 -0.6343
 4156TIP3    H233960   3.967   2.132  14.933  0.2556 -0.6006 -1.4869
 4157TIP3   OH233961   6.778   4.719  15.311  0.3447  0.1717 -0.3763
 4157TIP3    H133962   6.734   4.804  15.307  0.4414  0.2437  0.0617
 4157TIP3    H233963   6.817   4.716  15.398  3.0484  1.0144 -1.4864
 4158TIP3   OH233964   4.488   5.803   3.403 -0.5783 -0.0871  0.0102
 4158TIP3    H133965   4.431   5.852   3.344 -0.8858 -1.1470 -0.6103
 4158TIP3    H233966   4.436   5.726   3.427  1.2728 -2.2950 -2.3769
 4159TIP3   OH233967   3.056   4.505   4.654 -0.3776 -0.5898 -0.3265
 4159TIP3    H133968   3.133   4.457   4.685  1.2160  1.5075 -0.7989
 4159TIP3    H233969   3.047   4.579   4.715 -0.3982  0.6434 -1.7596
 4160TIP3   OH233970   5.970   0.592   5.618  0.3268 -0.1177 -0.2296
 4160TIP3    H133971   5.875   0.591   5.627  0.3290  1.2610  0.2558
 4160TIP3    H233972   5.997   0.503   5.638 -0.6837  0.0211  2.2258
 4161TIP3   OH233973   0.854   5.579  14.764 -0.2390  0.2300  0.2620
 4161TIP3    H133974   0.779   5.527  14.792 -0.7882  2.0013  2.3315
 4161TIP3    H233975   0.880   5.628  14.842  1.6521  1.3618 -0.9996
 4162TIP3   OH233976   4.643   3.551   3.987  0.1262  0.6902  0.1430
 4162TIP3    H133977   4.565   3.533   4.039 -1.0625  0.3356 -1.6701
 4162TIP3    H233978   4.711   3.497   4.027 -1.3492 -1.5165 -0.1352
 4163TIP3   OH233979   1.079   4.000   2.724  0.0781 -0.0931  0.4003
 4163TIP3    H133980   1.013   3.931   2.711  0.0986 -0.1287  0.4808
 4163TIP3    H233981   1.108   3.987   2.814  2.4119 -2.0380 -0.5243
 4164TIP3   OH233982   5.051   1.099  15.392 -0.6509 -0.4644 -0.3749
 4164TIP3    H133983   5.104   1.027  15.427 -1.0017 -1.0600 -1.0440
 4164TIP3    H233984   5.032   1.154  15.469  1.5577  0.2066 -0.2210
 4165TIP3   OH233985   2.666   5.781  10.804 -0.1897  0.0106  0.3164
 4165TIP3    H133986   2.697   5.824  10.725  0.2703  0.4654  0.7348
 4165TIP3    H233987   2.573   5.766  10.789 -0.0347 -0.2035 -0.4391
 4166TIP3   OH233988   2.509   1.136  16.363  0.1139  0.8286  0.0894
 4166TIP3    H133989   2.418   1.117  16.340  0.8961 -0.0943 -2.4971
 4166TIP3    H233990   2.512   1.232  16.370 -0.9584  0.8910 -0.1785
 4167TIP3   OH233991   5.125   1.499   1.726  0.4110 -0.2942  0.0076
 4167TIP3    H133992   5.126   1.585   1.768 -0.7331 -0.1526 -0.2184
 4167TIP3    H233993   5.098   1.516   1.636 -2.5140 -1.1086  0.6249
 4168TIP3   OH233994   2.183   2.119  13.897 -0.8186  0.0515 -0.0696
 4168TIP3    H133995   2.108   2.078  13.855 -1.6023  0.2053  1.1354
 4168TIP3    H233996   2.151   2.147  13.983  0.1542  1.6848 -0.1924
 4169TIP3   OH233997   5.355   2.351   3.355  0.6482 -0.0777 -0.6585
 4169TIP3    H133998   5.349   2.330   3.262 -1.6920 -0.4823 -0.4748
 4169TIP3    H233999   5.377   2.268   3.397  0.3285 -0.2048 -0.7385
 4170TIP3   OH234000   4.048   3.279   1.342 -0.1861 -0.0037  0.5127
 4170TIP3    H134001   4.037   3.188   1.368  0.0098 -0.5491 -1.1897
 4170TIP3    H234002   3.971   3.324   1.377 -1.2463 -1.1993 -0.2130
 4171TIP3   OH234003   5.645   4.708  14.525 -0.0494  0.1522 -0.5173
 4171TIP3    H134004   5.562   4.666  14.544  0.6812 -1.4288 -0.6450
 4171TIP3    H234005   5.710   4.639  14.538  1.4113  1.7052  1.0905
 4172TIP3   OH234006   4.216   4.982   4.448 -0.1124  0.2393  0.2033
 4172TIP3    H134007   4.268   5.002   4.526  0.5314  0.6664 -0.3227
 4172TIP3    H234008   4.215   4.886   4.444  0.6431  0.2245  0.2306
 4173TIP3   OH234009   2.160   2.063  12.140  0.2949  0.1893  0.0809
 4173TIP3    H134010   2.129   1.996  12.079 -1.6169  2.2908 -1.4031
 4173TIP3    H234011   2.137   2.029  12.227 -1.4643 -0.6914 -0.6737
 4174TIP3   OH234012   3.118   3.308  14.848 -0.1495  0.1213  0.4904
 4174TIP3    H134013   3.026   3.286  14.863 -0.6544  2.1557  0.6291
 4174TIP3    H234014   3.163   3.277  14.927 -0.7518 -0.5172  0.5961
 4175TIP3   OH234015   3.589   5.195  13.234 -0.3699 -0.5765 -0.1358
 4175TIP3    H134016   3.499   5.190  13.203  0.0197 -0.9545 -1.2637
 4175TIP3    H234017   3.614   5.286  13.222 -0.2533 -0.7016 -0.8635
 4176TIP3   OH234018   2.506   2.413   0.613  0.2257  0.0833  0.9066
 4176TIP3    H134019   2.557   2.336   0.640 -1.6580 -1.2666  0.7818
 4176TIP3    H234020   2.436   2.419   0.677  0.3162  1.6977  0.8788
 4177TIP3   OH234021   0.105   1.512   4.137 -0.4821 -0.2893  0.4109
 4177TIP3    H134022   0.129   1.553   4.054  0.9199 -0.9931  0.4380
 4177TIP3    H234023   0.063   1.582   4.187  0.2832  0.6418 -0.2073
 4178TIP3   OH234024   4.866   1.594   6.263 -0.3248  0.1471 -0.2474
 4178TIP3    H134025   4.816   1.536   6.205  0.1455 -0.4541 -0.0614
 4178TIP3    H234026   4.812   1.600   6.342 -0.0205 -0.6674  0.0333
 4179TIP3   OH234027   1.513   2.693   5.355  0.4047  0.2646  0.5955
 4179TIP3    H134028   1.546   2.725   5.271 -0.0517  2.2912  1.1423
 4179TIP3    H234029   1.574   2.623   5.378 -0.3585 -1.4811 -2.1210
 4180TIP3   OH234030   4.080   4.342   3.171 -0.2145 -0.1752 -0.3348
 4180TIP3    H134031   4.118   4.300   3.093  0.8845  1.4185 -0.6926
 4180TIP3    H234032   4.054   4.429   3.141 -1.1829 -0.0715  0.7379
 4181TIP3   OH234033   5.889   1.490   2.463 -0.0386 -0.3972 -0.0566
 4181TIP3    H134034   5.896   1.491   2.558  0.4553  1.7556 -0.0655
 4181TIP3    H234035   5.805   1.449   2.445  0.0085 -1.1173  1.2846
 4182TIP3   OH234036   4.662   3.580   0.860  0.5006 -0.1685 -0.5533
 4182TIP3    H134037   4.637   3.488   0.856  1.2619 -0.4476  0.6281
 4182TIP3    H234038   4.752   3.580   0.891  0.6757  0.9605 -1.0132
 4183TIP3   OH234039   1.464   6.805  14.061  0.0801 -0.0790 -0.3006
 4183TIP3    H134040   1.440   6.895  14.037  1.4409  0.6138  0.8325
 4183TIP3    H234041   1.522   6.815  14.136  1.3289 -1.8469 -0.9823
 4184TIP3   OH234042   0.526   1.488   3.034 -0.1591  0.7357 -0.0198
 4184TIP3    H134043   0.486   1.512   2.950 -1.2420 -1.6918 -0.2888
 4184TIP3    H234044   0.464   1.522   3.100 -0.1563  1.1943 -0.2455
 4185TIP3   OH234045   1.817   2.102   2.688 -0.3946  0.5756 -0.2615
 4185TIP3    H134046   1.847   2.097   2.597 -0.8171  0.1911 -0.3800
 4185TIP3    H234047   1.736   2.153   2.683 -0.9449 -0.2935 -0.2281
 4186TIP3   OH234048   2.834   4.124   4.477  0.3803  0.5220 -0.7663
 4186TIP3    H134049   2.845   4.039   4.436  2.0011  0.3431 -0.0316
 4186TIP3    H234050   2.921   4.148   4.507 -0.5563  0.9313  1.9940
 4187TIP3   OH234051   2.494   5.128  12.198  0.3034 -0.5677 -0.0499
 4187TIP3    H134052   2.458   5.043  12.170  0.0270 -0.7378  0.7813
 4187TIP3    H234053   2.419   5.175  12.234  1.1668 -1.7424  3.6855
 4188TIP3   OH234054   5.898   2.788   5.918  0.1324 -0.1161  0.0195
 4188TIP3    H134055   5.926   2.703   5.952  1.8491  0.3469 -0.1219
 4188TIP3    H234056   5.867   2.836   5.995 -3.5575 -1.7490 -0.2487
 4189TIP3   OH234057   4.986   3.975   5.784 -0.5871 -0.4405  0.3355
 4189TIP3    H134058   5.001   4.063   5.820 -3.0955 -0.1827  0.9116
 4189TIP3    H234059   4.975   3.990   5.690 -0.7366 -0.1617  0.3945
 4190TIP3   OH234060   2.896   3.697  15.272 -0.0806  0.9009 -0.3216
 4190TIP3    H134061   2.937   3.665  15.192  0.2807 -0.6488  0.4551
 4190TIP3    H234062   2.909   3.628  15.336 -1.3720  1.6106  0.7782
 4191TIP3   OH234063   3.627   2.182  13.259 -0.4187  0.6008 -0.0979
 4191TIP3    H134064   3.654   2.255  13.315 -1.2595  0.9104 -0.0844
 4191TIP3    H234065   3.541   2.207  13.227  0.5776  1.1108 -2.6614
 4192TIP3   OH234066   0.277   4.130   4.152 -0.0137  0.7952  0.4025
 4192TIP3    H134067   0.224   4.058   4.187  0.2613 -0.1766 -1.0619
 4192TIP3    H234068   0.212   4.195   4.123 -0.2772  0.9982  1.4213
 4193TIP3   OH234069   5.597   0.668   0.222  0.2355  0.4191 -0.1709
 4193TIP3    H134070   5.649   0.592   0.250  0.5273  0.0985 -1.5148
 4193TIP3    H234071   5.512   0.655   0.265  0.7901  0.1892  0.8950
 4194TIP3   OH234072   2.305   4.386  14.559 -0.4453 -0.3322  0.0637
 4194TIP3    H134073   2.320   4.477  14.533 -1.3858 -0.1706  0.0344
 4194TIP3    H234074   2.385   4.360  14.605  1.3680 -0.6590 -2.9731
 4195TIP3   OH234075   0.772   4.239  14.174 -0.3966  0.4553  0.1143
 4195TIP3    H134076   0.720   4.304  14.221 -0.3950 -0.1849  1.0221
 4195TIP3    H234077   0.798   4.175  14.241 -1.1246 -0.9652 -0.9107
 4196TIP3   OH234078   2.286   1.419   2.353  0.0700  0.4741  0.5361
 4196TIP3    H134079   2.297   1.494   2.412  0.5775  0.3329  0.6327
 4196TIP3    H234080   2.315   1.344   2.404 -0.3940  0.2172  0.4231
 4197TIP3   OH234081   4.993   4.178  11.789  0.3522  0.2107  0.0659
 4197TIP3    H134082   5.018   4.087  11.804  2.1087  0.2607 -2.0894
 4197TIP3    H234083   4.929   4.174  11.718 -0.2527  0.6307  0.5750
 4198TIP3   OH234084   3.746   0.102   3.383 -0.0144  0.2140  0.2690
 4198TIP3    H134085   3.831   0.145   3.380 -0.0210  0.1978 -0.2938
 4198TIP3    H234086   3.744   0.047   3.304  0.6118 -1.9925  1.6815
 4199TIP3   OH234087   1.604   5.113   2.924  0.4978  0.1277  0.3119
 4199TIP3    H134088   1.625   5.085   3.013  0.4162 -0.2447  0.2163
 4199TIP3    H234089   1.509   5.124   2.924  0.2519 -1.6489 -0.2105
 4200TIP3   OH234090   2.468   4.042   4.149  0.3709 -0.6456  0.9540
 4200TIP3    H134091   2.409   3.974   4.182  2.2683 -1.5022  2.9162
 4200TIP3    H234092   2.532   4.053   4.220  2.1333  0.7130 -0.7475
 4201TIP3   OH234093   3.529   1.282   4.778  0.0151 -0.1268  0.0745
 4201TIP3    H134094   3.465   1.330   4.830 -0.1652 -0.4383  0.1457
 4201TIP3    H234095   3.484   1.264   4.695  0.4724  0.7909 -0.3815
 4202TIP3   OH234096   6.013   0.651   3.597 -0.3174 -0.4264 -0.0984
 4202TIP3    H134097   5.962   0.582   3.640 -1.3900  0.6209  0.3844
 4202TIP3    H234098   6.025   0.717   3.665  2.8381 -1.1563  0.1836
 4203TIP3   OH234099   0.787   5.719  16.352 -0.2859 -0.2529 -0.2873
 4203TIP3    H134100   0.771   5.704  16.445  1.6288  1.1254  0.3149
 4203TIP3    H234101   0.699   5.724  16.314 -1.1045 -1.1294  1.3693
 4204TIP3   OH234102   5.531   0.730   1.572  0.0277  0.0039  0.1598
 4204TIP3    H134103   5.470   0.781   1.626  0.5264  0.1675  0.5798
 4204TIP3    H234104   5.617   0.747   1.611  0.0398 -2.5837  1.4916
 4205TIP3   OH234105   0.777   5.663  11.506 -0.1140 -0.1716 -0.1541
 4205TIP3    H134106   0.783   5.635  11.415 -1.1715  1.8141 -0.9215
 4205TIP3    H234107   0.866   5.684  11.531  0.4920 -2.6724 -0.0036
 4206TIP3   OH234108   1.762   3.276  11.416  0.1973 -0.3332  0.3563
 4206TIP3    H134109   1.772   3.368  11.439  0.3228 -0.6059  1.4487
 4206TIP3    H234110   1.741   3.232  11.499 -0.2719 -1.2260 -0.2122
 4207TIP3   OH234111   3.286   3.022  15.996  0.2290  0.1706  0.2990
 4207TIP3    H134112   3.355   2.955  15.996  0.5862  0.5270 -0.9632
 4207TIP3    H234113   3.205   2.972  16.003  0.2620 -0.6998 -3.6469
 4208TIP3   OH234114   1.402   2.258  10.348  0.1218 -0.4979 -0.3207
 4208TIP3    H134115   1.420   2.347  10.320 -1.5777 -0.1797 -0.5123
 4208TIP3    H234116   1.409   2.260  10.443  0.5622 -0.2905 -0.3544
 4209TIP3   OH234117   4.667   4.535  12.972  0.1470  0.0842  0.3086
 4209TIP3    H134118   4.647   4.517  12.880 -1.4589  0.7694  0.4927
 4209TIP3    H234119   4.724   4.612  12.969  0.2282  0.0148 -0.1169
 4210TIP3   OH234120   1.709   3.692  13.447  0.5688 -0.4125  0.1900
 4210TIP3    H134121   1.757   3.775  13.455  0.0028 -0.0623 -0.0317
 4210TIP3    H234122   1.674   3.676  13.535 -0.7641  0.4731 -0.1485
 4211TIP3   OH234123   4.100   0.149   0.342  0.3713 -0.4974  0.3051
 4211TIP3    H134124   4.047   0.226   0.359 -0.7321 -1.6792  2.7152
 4211TIP3    H234125   4.091   0.095   0.421  0.0664 -3.6599 -1.6752
 4212TIP3   OH234126   1.400   3.293   1.828 -0.0326 -0.4527 -0.0968
 4212TIP3    H134127   1.369   3.370   1.781  0.9428  0.6864  1.0560
 4212TIP3    H234128   1.326   3.233   1.828 -1.8646  1.6564  1.4656
 4213TIP3   OH234129   6.414   2.492   4.954 -0.2825 -0.0588  0.4773
 4213TIP3    H134130   6.427   2.467   4.862 -0.3788  0.3134  0.3617
 4213TIP3    H234131   6.327   2.460   4.976  0.6125 -2.2085  1.1331
 4214TIP3   OH234132   6.715   6.053   3.515 -0.0503 -0.1284  0.3675
 4214TIP3    H134133   6.763   6.015   3.589  0.8523 -2.0053 -1.0776
 4214TIP3    H234134   6.770   6.033   3.439 -1.1919  1.2861 -0.8908
 4215TIP3   OH234135   5.389   3.480   4.314  0.2376  0.2183 -0.3603
 4215TIP3    H134136   5.391   3.537   4.391 -0.6237 -0.6179  0.3151
 4215TIP3    H234137   5.334   3.527   4.251  0.8126  0.8323 -0.4181
 4216TIP3   OH234138   0.921   5.788   3.114  0.1994 -0.2664 -0.5242
 4216TIP3    H134139   0.849   5.806   3.053  0.2028 -0.2557 -0.5249
 4216TIP3    H234140   0.921   5.862   3.174  0.5312 -0.0200 -0.8274
 4217TIP3   OH234141   6.014   2.216   3.803 -0.5489 -0.4164  0.3002
 4217TIP3    H134142   5.981   2.286   3.859 -0.3851  0.3940 -0.5880
 4217TIP3    H234143   5.969   2.229   3.719 -0.3423 -1.2294  0.0525
 4218TIP3   OH234144   4.122   4.083   4.139 -0.5327 -0.0830  0.1371
 4218TIP3    H134145   4.156   4.039   4.061 -0.1092 -0.0688  0.3114
 4218TIP3    H234146   4.081   4.163   4.105  0.0149  0.1299 -0.0307
 4219TIP3   OH234147   0.870   0.180  14.849 -0.3972  0.4019  0.0950
 4219TIP3    H134148   0.778   0.205  14.846 -0.5219  0.0570  0.7699
 4219TIP3    H234149   0.917   0.253  14.808 -0.9200  0.8376  0.2624
 4220TIP3   OH234150   2.793   4.810  16.242 -0.1015  0.2210  0.1496
 4220TIP3    H134151   2.833   4.731  16.206  1.2374  0.2178  1.4967
 4220TIP3    H234152   2.867   4.870  16.255 -1.1204  1.8213 -1.1082
 4221TIP3   OH234153   5.529   1.838   2.647  0.3900 -0.2036  0.3169
 4221TIP3    H134154   5.481   1.765   2.606  1.0744 -0.3249 -0.2816
 4221TIP3    H234155   5.473   1.865   2.720 -0.2790 -0.7710  0.0264
 4222TIP3   OH234156   6.624   1.252   6.354  0.0683  0.3210 -0.4579
 4222TIP3    H134157   6.558   1.239   6.422 -1.0008 -2.4544 -1.8205
 4222TIP3    H234158   6.648   1.344   6.360  1.3041 -0.0539  4.7058
 4223TIP3   OH234159   6.038   3.194  13.339 -0.3174  0.6357  0.5365
 4223TIP3    H134160   6.115   3.241  13.310 -0.0367  0.5092  1.0740
 4223TIP3    H234161   5.965   3.235  13.292  0.1132  0.5236 -0.2349
 4224TIP3   OH234162   0.903   2.883  15.832 -0.3810 -0.3095 -0.2666
 4224TIP3    H134163   0.847   2.931  15.893  2.1402  1.2679  1.0103
 4224TIP3    H234164   0.899   2.934  15.751 -2.3449 -1.4065 -0.9213
 4225TIP3   OH234165   3.913   3.501  13.527  0.0840  0.3117  0.3170
 4225TIP3    H134166   3.843   3.482  13.464  1.0362 -0.9982 -0.3902
 4225TIP3    H234167   3.922   3.420  13.577 -0.1885  1.1098  1.7037
 4226TIP3   OH234168   3.023   6.424  14.843 -0.1627 -0.5880  0.0283
 4226TIP3    H134169   2.968   6.359  14.887  0.4850 -0.5312  0.9520
 4226TIP3    H234170   3.112   6.396  14.863  0.1324  0.8209  0.8197
 4227TIP3   OH234171   4.938   3.691  15.696  0.3564  0.0873 -0.0442
 4227TIP3    H134172   4.948   3.753  15.769 -0.4615 -0.5421  0.6129
 4227TIP3    H234173   4.960   3.606  15.733  1.2254 -0.0781 -0.8821
 4228TIP3   OH234174   5.717   2.325  17.024 -0.1667 -0.1733  0.3050
 4228TIP3    H134175   5.751   2.411  16.998 -0.6209 -0.2632 -0.6079
 4228TIP3    H234176   5.629   2.321  16.986  0.1043 -1.3127 -0.2545
 4229TIP3   OH234177   5.530   1.035  16.095  0.4044 -0.2911 -0.7890
 4229TIP3    H134178   5.555   0.962  16.152 -1.4573 -0.0540  0.4168
 4229TIP3    H234179   5.561   1.113  16.140 -1.0144 -0.1065 -0.0978
 4230TIP3   OH234180   0.166   0.398   1.591  0.6087  0.6682  0.3497
 4230TIP3    H134181   0.145   0.310   1.622  1.2404  0.3347 -0.1446
 4230TIP3    H234182   0.135   0.456   1.660  0.6808  0.0263  0.9304
 4231TIP3   OH234183   6.729   5.685   1.849 -0.8106 -0.2287 -0.4383
 4231TIP3    H134184   6.770   5.770   1.830 -0.4420 -0.0810  0.8678
 4231TIP3    H234185   6.796   5.621   1.825 -0.2542 -0.0382  0.5218
 4232TIP3   OH234186   3.121   0.902   5.488  0.4630 -0.5263 -0.7390
 4232TIP3    H134187   3.077   0.904   5.573  1.3752 -1.0545 -0.2367
 4232TIP3    H234188   3.109   0.990   5.453 -0.7045 -0.5623 -0.4816
 4233TIP3   OH234189   5.718   6.299  14.482 -0.5384  0.5881 -0.5581
 4233TIP3    H134190   5.813   6.312  14.478 -0.6189  1.4901  0.0615
 4233TIP3    H234191   5.701   6.276  14.573 -1.0067  1.2906 -0.4594
 4234TIP3   OH234192   4.931   4.514  14.645  0.5174 -0.0862  0.2543
 4234TIP3    H134193   4.879   4.592  14.624  2.0038  0.8150 -0.3009
 4234TIP3    H234194   4.914   4.454  14.573 -0.8177 -0.3900  0.7975
 4235TIP3   OH234195   4.083   0.544   1.079  0.4871 -0.7302  0.4839
 4235TIP3    H134196   4.038   0.462   1.099  0.1716 -0.4738  0.8394
 4235TIP3    H234197   4.053   0.568   0.991  0.9639 -1.2472  0.1701
 4236TIP3   OH234198   3.591   2.614  17.105 -0.4087  0.0846  0.6729
 4236TIP3    H134199   3.596   2.638  17.197  0.6741 -1.8399  1.1700
 4236TIP3    H234200   3.511   2.561  17.098 -0.0420 -0.4815  0.7020
 4237TIP3   OH234201   0.316   5.435  13.969 -0.2744 -0.5839  0.3234
 4237TIP3    H134202   0.241   5.386  13.933  0.0612 -3.0852  2.6999
 4237TIP3    H234203   0.284   5.472  14.050  0.5443 -0.0115  0.3937
 4238TIP3   OH234204   6.503   1.244  10.958  0.0249 -0.2324 -0.1027
 4238TIP3    H134205   6.482   1.173  11.019 -0.3654 -1.9858 -2.1351
 4238TIP3    H234206   6.419   1.289  10.944  0.0166 -0.1238  0.2839
 4239TIP3   OH234207   5.996   0.189   0.368 -0.0475  0.6201  0.2618
 4239TIP3    H134208   5.909   0.189   0.407 -0.4762  0.9737 -0.6592
 4239TIP3    H234209   6.031   0.102   0.388 -0.3655  0.6878  1.1566
 4240TIP3   OH234210   3.975   5.572  13.428  0.0907  0.1451  0.1819
 4240TIP3    H134211   3.991   5.478  13.426  0.5555  0.2050 -2.0958
 4240TIP3    H234212   4.061   5.611  13.444  0.1307  0.2115 -0.1937
 4241TIP3   OH234213   3.311   3.731   0.335 -0.3528  0.6998  0.6802
 4241TIP3    H134214   3.386   3.753   0.391  0.4715 -1.3191  0.4337
 4241TIP3    H234215   3.280   3.816   0.304  0.6130  1.7276  2.3205
 4242TIP3   OH234216   3.604   4.647  15.789  1.2598  0.3604  0.1436
 4242TIP3    H134217   3.672   4.641  15.722  0.3706 -1.8185 -0.6273
 4242TIP3    H234218   3.581   4.557  15.810  1.4055  0.9420  3.3565
 4243TIP3   OH234219   0.874   3.410  14.227  0.1018  0.0330 -0.2214
 4243TIP3    H134220   0.964   3.379  14.212 -0.1599 -1.2963  0.7470
 4243TIP3    H234221   0.819   3.333  14.211 -1.0340  1.1520 -2.1368
 4244TIP3   OH234222   3.125   4.238  12.972  0.5423  0.5444  0.4891
 4244TIP3    H134223   3.211   4.198  12.960 -0.0887 -0.4534 -1.0496
 4244TIP3    H234224   3.076   4.177  13.026  0.3438  0.3839  0.1349
 4245TIP3   OH234225   2.168   3.546   1.226  0.3817  0.7104  0.1179
 4245TIP3    H134226   2.207   3.609   1.288  0.8836  0.6707 -0.1529
 4245TIP3    H234227   2.240   3.524   1.167 -0.5968  2.3619 -1.8127
 4246TIP3   OH234228   2.152   3.996  12.942 -0.4297  0.2925 -0.2415
 4246TIP3    H134229   2.199   4.055  12.884 -0.8660  0.8270 -0.0602
 4246TIP3    H234230   2.128   4.050  13.018  1.2024 -0.6791  1.0274
 4247TIP3   OH234231   0.852   1.664  17.257  0.1722  0.2427  0.5272
 4247TIP3    H134232   0.848   1.748  17.210 -0.9311 -0.3040 -0.3921
 4247TIP3    H234233   0.874   1.600  17.190 -0.5493 -0.4272  0.9124
 4248TIP3   OH234234   4.057   5.662  17.020 -0.4670  0.3129  0.0196
 4248TIP3    H134235   3.988   5.651  17.085 -1.3125 -2.9842 -1.2665
 4248TIP3    H234236   4.078   5.573  16.991  3.5043  1.2340 -0.5520
 4249TIP3   OH234237   0.537   3.891  13.777 -0.2669 -0.2384 -0.2466
 4249TIP3    H134238   0.567   3.943  13.852 -0.5323  0.8955 -0.8953
 4249TIP3    H234239   0.458   3.848  13.809  0.2950 -0.7477  0.4982
 4250TIP3   OH234240   0.868   2.601   3.212  0.2910 -0.3967  0.6598
 4250TIP3    H134241   0.785   2.555   3.200 -0.2879  0.6897  0.3603
 4250TIP3    H234242   0.864   2.674   3.150  1.5626 -0.4558  0.5035
 4251TIP3   OH234243   5.372   3.422   2.131  0.5672  0.3524 -0.4250
 4251TIP3    H134244   5.388   3.514   2.153 -0.0355  0.3677 -0.0378
 4251TIP3    H234245   5.446   3.375   2.171 -0.0579  0.4771  0.9153
 4252TIP3   OH234246   6.028   6.150   3.096 -0.6423 -0.4115 -0.3063
 4252TIP3    H134247   5.988   6.173   3.012  1.8853  2.6089 -0.8840
 4252TIP3    H234248   5.977   6.198   3.161  0.2201  1.1674 -0.7351
 4253TIP3   OH234249   0.865   4.396   5.200 -0.0374  0.5664 -0.0189
 4253TIP3    H134250   0.933   4.446   5.244 -0.0749  1.5813 -1.0753
 4253TIP3    H234251   0.898   4.384   5.110  0.2473 -1.8299  0.3339
 4254TIP3   OH234252   4.279   1.272   3.964 -0.4362  0.0500  0.0630
 4254TIP3    H134253   4.365   1.313   3.975 -0.7158  0.4788  0.7170
 4254TIP3    H234254   4.278   1.202   4.029 -1.1835  1.0780  1.2202
 4255TIP3   OH234255   1.379   5.553   1.504  0.0540  0.5615 -0.1769
 4255TIP3    H134256   1.468   5.535   1.474  0.3995 -1.0154  1.6517
 4255TIP3    H234257   1.390   5.582   1.594 -1.2678  0.7843 -0.0732
 4256TIP3   OH234258   2.129   0.032  11.583  0.4571  0.0417 -0.1406
 4256TIP3    H134259   2.095  -0.041  11.531 -0.6674  0.0429  0.5627
 4256TIP3    H234260   2.186  -0.009  11.647 -0.8719 -0.3516  0.8351
 4257TIP3   OH234261   2.486   4.115  13.532 -0.5625 -0.6029  0.4808
 4257TIP3    H134262   2.567   4.065  13.523  0.1956  0.5989  0.3949
 4257TIP3    H234263   2.492   4.157  13.618 -0.2285  0.9107 -0.2375
 4258TIP3   OH234264   2.032   2.586  14.353  0.2178  0.7442 -0.6861
 4258TIP3    H134265   1.980   2.613  14.277 -1.6833  0.2289  0.3700
 4258TIP3    H234266   2.043   2.666  14.404 -0.9354  0.5731 -0.1388
 4259TIP3   OH234267   3.005   3.497   4.123 -0.0753 -0.1674 -0.4264
 4259TIP3    H134268   2.985   3.549   4.044  1.4367 -0.8887 -1.3371
 4259TIP3    H234269   3.037   3.562   4.186  0.1831  0.2389 -0.9583
 4260TIP3   OH234270   2.716   4.323  13.952  0.4912  0.1364  0.3178
 4260TIP3    H134271   2.747   4.388  13.889 -0.9376 -0.4056 -1.0137
 4260TIP3    H234272   2.689   4.374  14.028 -0.7457  1.1547 -0.7568
 4261TIP3   OH234273   0.329   4.793   5.486  0.0233 -0.5280 -0.4547
 4261TIP3    H134274   0.242   4.753   5.489  1.1371 -3.1001  0.8996
 4261TIP3    H234275   0.370   4.755   5.408  0.6239 -1.0195  0.0820
 4262TIP3   OH234276   4.778   3.186   3.019 -0.1629  0.4298 -0.0626
 4262TIP3    H134277   4.769   3.218   3.109 -0.3905  0.8432 -0.2296
 4262TIP3    H234278   4.745   3.258   2.965  1.6860  0.9580 -0.5769
 4263TIP3   OH234279   0.954   2.160   5.045 -0.2318  0.0357 -0.4350
 4263TIP3    H134280   0.896   2.211   5.102 -1.2062  0.0294 -1.3787
 4263TIP3    H234281   1.041   2.169   5.084 -0.6313  1.2069  0.2330
 4264TIP3   OH234282   6.633   4.861   3.686  0.0779  0.1544  0.9728
 4264TIP3    H134283   6.650   4.796   3.618 -0.7595  0.7042  0.2181
 4264TIP3    H234284   6.693   4.933   3.668  0.0528  0.1792  0.9869
 4265TIP3   OH234285   6.546   3.536  14.796 -0.4003 -0.1867 -0.2472
 4265TIP3    H134286   6.501   3.547  14.713 -0.4951  1.2317 -0.0334
 4265TIP3    H234287   6.485   3.485  14.850 -1.0973  0.3944 -0.4723
 4266TIP3   OH234288   5.141   1.298  12.845  0.0462 -0.3626  0.0837
 4266TIP3    H134289   5.227   1.302  12.803 -0.4843  3.2262 -0.9835
 4266TIP3    H234290   5.144   1.363  12.914 -2.0280  0.4691 -0.5288
 4267TIP3   OH234291   2.598   4.339  16.065  0.8325  0.1898  0.2321
 4267TIP3    H134292   2.624   4.411  16.008  1.9150  0.5454  1.1451
 4267TIP3    H234293   2.577   4.381  16.149  2.0655 -0.5877  0.9649
 4268TIP3   OH234294   2.334   4.930  11.403  0.4298  0.3555 -0.4816
 4268TIP3    H134295   2.401   4.989  11.438  2.2024 -1.5462 -0.4462
 4268TIP3    H234296   2.382   4.849  11.383 -1.9870 -1.3425  0.1579
 4269TIP3   OH234297   5.125   0.906  11.375 -0.2002 -0.0085  0.1222
 4269TIP3    H134298   5.181   0.952  11.312 -0.9273 -0.3153 -0.7764
 4269TIP3    H234299   5.169   0.822  11.389 -0.4232 -0.2573 -0.5939
 4270TIP3   OH234300   6.192   2.311  14.506 -0.0017 -0.2235 -0.2655
 4270TIP3    H134301   6.169   2.362  14.428 -1.8732  0.6817  0.8285
 4270TIP3    H234302   6.283   2.334  14.523 -1.0794  4.0008  0.9785
 4271TIP3   OH234303   3.503   4.132  13.294 -0.1127  0.1738 -0.3071
 4271TIP3    H134304   3.541   4.197  13.354  1.0446 -0.2506 -0.5617
 4271TIP3    H234305   3.443   4.081  13.349  0.9843 -0.2538  0.5258
 4272TIP3   OH234306   0.765   5.150  15.901 -0.2427 -0.2457  0.4103
 4272TIP3    H134307   0.768   5.231  15.952  4.4702 -0.2777  0.6530
 4272TIP3    H234308   0.787   5.081  15.965 -1.5821 -1.4014 -0.3131
 4273TIP3   OH234309   4.364   1.906  13.451  0.3705  0.0327 -0.6802
 4273TIP3    H134310   4.451   1.888  13.414  0.0845  1.7735 -2.3160
 4273TIP3    H234311   4.317   1.952  13.381 -1.4105  0.3655  0.6725
 4274TIP3   OH234312   6.259   1.204   5.221  0.1669  0.1399  0.1970
 4274TIP3    H134313   6.340   1.192   5.270  1.2237  1.2674 -1.1975
 4274TIP3    H234314   6.192   1.161   5.274  1.6636 -0.7986  1.3889
 4275TIP3   OH234315   0.911   5.448   3.656  0.2626  0.5191  0.6582
 4275TIP3    H134316   0.868   5.378   3.705 -0.5720  0.3802 -0.2268
 4275TIP3    H234317   0.977   5.483   3.715  0.8547 -1.1670  1.0357
 4276TIP3   OH234318   4.083   6.743   3.349  0.6393 -0.4209 -0.1434
 4276TIP3    H134319   4.137   6.680   3.396  0.1141 -1.8601 -1.3700
 4276TIP3    H234320   4.000   6.745   3.397  0.4100 -1.2309 -0.4828
 4277TIP3   OH234321   6.275   4.423  12.846  0.2797 -0.0694  0.0257
 4277TIP3    H134322   6.343   4.464  12.900  0.1580  0.3392 -0.1291
 4277TIP3    H234323   6.193   4.444  12.891  0.2577 -0.6662  0.2794
 4278TIP3   OH234324   6.771   5.909  13.851  0.1287 -0.1041 -0.3722
 4278TIP3    H134325   6.775   5.919  13.756  1.4332 -1.4387 -0.4877
 4278TIP3    H234326   6.828   5.979  13.884  1.2197 -0.8155 -0.6885
 4279TIP3   OH234327   2.716   2.783  10.898  0.2829 -0.3835 -0.0518
 4279TIP3    H134328   2.799   2.744  10.870  0.1312  0.2494 -1.4266
 4279TIP3    H234329   2.651   2.747  10.838 -0.2738 -0.0407  0.3358
 4280TIP3   OH234330   5.750   2.560   3.698 -0.3941  0.7129  0.5921
 4280TIP3    H134331   5.773   2.518   3.781 -0.5578 -0.9373 -0.1527
 4280TIP3    H234332   5.665   2.602   3.715 -1.7661 -1.8609  0.6125
 4281TIP3   OH234333   0.303   0.585   5.380 -0.1130  0.4884 -0.0928
 4281TIP3    H134334   0.286   0.503   5.333 -0.6271  0.1473  0.6597
 4281TIP3    H234335   0.362   0.560   5.451 -0.1367  0.8042  0.0383
 4282TIP3   OH234336   1.044   6.488  16.025  0.1545  0.4322  0.0176
 4282TIP3    H134337   0.993   6.409  16.042 -0.3958  0.9696  0.9488
 4282TIP3    H234338   1.037   6.539  16.106 -0.1225  1.7601 -0.8109
 4283TIP3   OH234339   2.877   0.040   5.292 -0.0184 -0.4297 -0.4078
 4283TIP3    H134340   2.864   0.082   5.377 -0.4190 -0.7179 -0.3287
 4283TIP3    H234341   2.804   0.072   5.238 -0.0533 -0.6544 -0.4917
 4284TIP3   OH234342   5.272   2.070  10.982  0.2071 -0.5239 -0.2359
 4284TIP3    H134343   5.297   2.027  11.064  1.8367  0.9278  0.0828
 4284TIP3    H234344   5.179   2.091  10.993  0.3454 -0.5494  1.1362
 4285TIP3   OH234345   0.654   1.216  17.017 -0.0680  0.4237  0.1832
 4285TIP3    H134346   0.629   1.124  17.020 -0.0929  0.3632 -1.2556
 4285TIP3    H234347   0.643   1.241  16.926  1.4633  1.4376  0.2483
 4286TIP3   OH234348   3.564   6.114   4.700  0.3751 -0.1993  0.3605
 4286TIP3    H134349   3.565   6.208   4.719 -1.3989 -0.3479  1.4685
 4286TIP3    H234350   3.500   6.106   4.629  1.2440 -0.4746 -0.3946
 4287TIP3   OH234351   5.534   5.330  14.377  0.7159 -0.7096 -0.8673
 4287TIP3    H134352   5.528   5.304  14.469  1.7521  1.5344 -0.0896
 4287TIP3    H234353   5.442   5.335  14.348  0.3330 -0.6771  0.2918
 4288TIP3   OH234354   6.319   4.674   1.732  0.1469  0.1882  0.3168
 4288TIP3    H134355   6.343   4.581   1.736 -0.0101  0.1741  1.2913
 4288TIP3    H234356   6.272   4.683   1.650  2.4356 -0.0301 -1.0925
 4289TIP3   OH234357   3.056   2.670   4.253  0.4812  0.3472 -0.0385
 4289TIP3    H134358   3.049   2.602   4.321 -1.7499 -0.4155 -0.9570
 4289TIP3    H234359   3.117   2.634   4.189  0.8310  0.0881  0.4310
 4290TIP3   OH234360   1.298   5.774   4.652 -0.3568 -0.0493 -0.2839
 4290TIP3    H134361   1.293   5.744   4.743 -1.7233 -3.0995 -1.2075
 4290TIP3    H234362   1.214   5.817   4.637 -0.0497  0.6360 -0.0723
 4291TIP3   OH234363   3.797   3.076   4.411  0.1413  0.2717 -0.3819
 4291TIP3    H134364   3.801   3.039   4.499 -0.3111 -0.3204 -0.6044
 4291TIP3    H234365   3.887   3.104   4.393  0.1515  0.7769  0.4238
 4292TIP3   OH234366   6.220   1.708  15.109 -0.5257  0.1878 -0.2352
 4292TIP3    H134367   6.165   1.632  15.131 -0.3018  0.2963  0.7124
 4292TIP3    H234368   6.200   1.725  15.017 -0.4158 -1.1615 -0.5322
 4293TIP3   OH234369   6.632   0.868   1.051 -0.5369  0.2224 -0.3703
 4293TIP3    H134370   6.706   0.882   1.109 -0.8394  1.2148 -0.2067
 4293TIP3    H234371   6.609   0.776   1.063 -0.1210  0.2272  0.5059
 4294TIP3   OH234372   0.676   2.514  16.019  0.0279 -0.2738 -0.5282
 4294TIP3    H134373   0.708   2.585  16.076 -0.1330 -0.7696  0.1954
 4294TIP3    H234374   0.699   2.434  16.066  0.5471 -0.7202 -1.5183
 4295TIP3   OH234375   5.572   2.603  17.162 -0.2738  0.4860  0.0285
 4295TIP3    H134376   5.665   2.583  17.169 -0.3673  0.0371  0.0274
 4295TIP3    H234377   5.566   2.697  17.179  0.0154  0.2761  1.4326
 4296TIP3   OH234378   2.775   6.367   5.695  0.0061 -0.8048 -0.6999
 4296TIP3    H134379   2.738   6.311   5.764  0.7280 -0.0923  0.2960
 4296TIP3    H234380   2.819   6.437   5.743  3.1761 -1.8932 -1.7249
 4297TIP3   OH234381   1.376   3.645   4.511  0.8800 -0.3583 -0.3116
 4297TIP3    H134382   1.329   3.572   4.472  0.6996  0.0663 -0.9096
 4297TIP3    H234383   1.322   3.670   4.586  0.7938 -0.6572 -0.2716
 4298TIP3   OH234384   2.200   6.196   1.620 -0.0586 -0.3506  0.2230
 4298TIP3    H134385   2.173   6.262   1.684 -0.7220 -2.8846  2.7699
 4298TIP3    H234386   2.123   6.183   1.565 -0.1153  0.5168  0.0814
 4299TIP3   OH234387   1.979   6.212  12.064  0.0979 -0.6576  0.2748
 4299TIP3    H134388   2.063   6.167  12.050  1.7490  2.1404  0.3553
 4299TIP3    H234389   1.932   6.202  11.982  0.7910 -1.7410 -0.0074
 4300TIP3   OH234390   0.225   2.176   6.065  0.8811 -0.1121  0.1755
 4300TIP3    H134391   0.244   2.161   5.972 -0.0338  2.1441 -0.4593
 4300TIP3    H234392   0.150   2.119   6.083 -0.2495  0.8792 -1.1027
 4301TIP3   OH234393   3.271   1.995  14.018  0.1200  0.0363 -0.0408
 4301TIP3    H134394   3.181   2.017  14.041 -0.3606 -1.3736 -0.4092
 4301TIP3    H234395   3.280   2.023  13.927 -0.2484 -0.5788 -0.2778
 4302TIP3   OH234396   0.306   0.381   4.491  0.2655 -0.4131 -0.1392
 4302TIP3    H134397   0.316   0.476   4.502  0.3199 -0.5861  1.4521
 4302TIP3    H234398   0.361   0.360   4.416 -1.5961  1.1496 -2.1095
 4303TIP3   OH234399   0.345   5.537  11.739 -0.0508 -0.7004 -0.1787
 4303TIP3    H134400   0.399   5.594  11.685 -0.2277  0.4066  0.7847
 4303TIP3    H234401   0.313   5.470  11.679  2.0666 -1.1741 -0.8614
 4304TIP3   OH234402   5.881   6.191  11.732  0.0959  0.5294  0.4875
 4304TIP3    H134403   5.872   6.262  11.796 -1.3099  0.2482  0.6300
 4304TIP3    H234404   5.791   6.162  11.715  0.4891  0.1269 -1.0930
 4305TIP3   OH234405   5.378   0.172  12.655 -0.3839 -0.2045 -0.6836
 4305TIP3    H134406   5.292   0.200  12.686 -0.2475  0.1980 -0.6645
 4305TIP3    H234407   5.440   0.228  12.702 -0.0938 -0.6885 -0.4789
 4306TIP3   OH234408   5.702   3.730  16.758  0.3341 -0.4782 -0.4075
 4306TIP3    H134409   5.655   3.717  16.840  1.7748 -0.9667  0.3776
 4306TIP3    H234410   5.794   3.738  16.784  0.4726  3.9925 -1.4763
 4307TIP3   OH234411   3.363   1.501   2.341 -0.1894  0.2638 -0.4302
 4307TIP3    H134412   3.335   1.440   2.409 -0.3542  0.8494  0.0270
 4307TIP3    H234413   3.450   1.470   2.315  0.3762  0.7215  0.8586
 4308TIP3   OH234414   4.211   6.548   6.361  0.5708 -0.2063 -0.0633
 4308TIP3    H134415   4.169   6.570   6.444  0.1275  1.1099 -0.5957
 4308TIP3    H234416   4.288   6.498   6.385 -1.0099 -2.2697  0.9742
 4309TIP3   OH234417   4.417   4.155   2.148 -0.1532  0.3383  0.4511
 4309TIP3    H134418   4.447   4.234   2.193 -2.1898  0.6159  1.4542
 4309TIP3    H234419   4.404   4.182   2.057 -1.5779  1.4223  0.9376
 4310TIP3   OH234420   5.206   0.480   0.126  0.2852 -0.4527 -0.0934
 4310TIP3    H134421   5.234   0.404   0.176  1.9968 -0.0343 -0.3512
 4310TIP3    H234422   5.260   0.552   0.159 -1.5213  0.7552  0.3815
 4311TIP3   OH234423   0.922   1.655  12.238  0.0892 -0.4249 -0.2341
 4311TIP3    H134424   0.904   1.744  12.208 -0.9145 -0.8065 -0.8360
 4311TIP3    H234425   0.911   1.659  12.333  1.5780  0.4183 -0.0713
 4312TIP3   OH234426   5.869   6.242  12.616 -0.0260  0.0877 -0.0637
 4312TIP3    H134427   5.922   6.162  12.618  0.1350  0.2012  0.3449
 4312TIP3    H234428   5.802   6.228  12.682  0.6114  0.7012  0.7369
 4313TIP3   OH234429   1.628   4.003  17.002 -0.1790 -0.1829 -0.0819
 4313TIP3    H134430   1.540   4.038  16.998 -0.4968 -0.8518  0.7662
 4313TIP3    H234431   1.684   4.073  16.968 -1.2026 -0.4964 -2.6222
 4314TIP3   OH234432   0.056   1.423   1.456  0.3761  0.0963 -0.1962
 4314TIP3    H134433   0.135   1.458   1.414  0.6279 -2.5560 -2.1138
 4314TIP3    H234434   0.089   1.361   1.521 -0.1533  0.7607  0.7481
 4315TIP3   OH234435   4.400   1.873   5.004 -0.1285 -0.2945 -0.1927
 4315TIP3    H134436   4.467   1.808   5.026  0.1482 -0.2717 -0.9303
 4315TIP3    H234437   4.377   1.913   5.088  0.1212 -0.9347  0.1906
 4316TIP3   OH234438   5.556   2.919  13.363 -0.4714 -0.2628 -0.3083
 4316TIP3    H134439   5.565   2.824  13.363 -0.5452 -0.3011  1.3193
 4316TIP3    H234440   5.622   2.949  13.426 -0.4893  0.7542 -0.7631
 4317TIP3   OH234441   2.617   2.820   3.745  0.8715  0.4310 -0.2094
 4317TIP3    H134442   2.661   2.803   3.828  0.2119  2.3053  0.5892
 4317TIP3    H234443   2.662   2.897   3.710 -0.9919  1.7564  0.1244
 4318TIP3   OH234444   2.750   3.041   3.611 -0.2297 -0.5679 -0.1477
 4318TIP3    H134445   2.681   3.104   3.632 -1.4549 -1.9727  0.2513
 4318TIP3    H234446   2.823   3.094   3.581 -1.4731  0.9888 -0.5607
 4319TIP3   OH234447   4.347   4.232  15.302 -0.5658 -1.0669  0.5618
 4319TIP3    H134448   4.404   4.200  15.372 -0.0837 -0.5041  0.4436
 4319TIP3    H234449   4.384   4.195  15.222 -0.9985 -1.5516  0.5873
 4320TIP3   OH234450   4.864   5.546  12.381  0.4248 -0.1516 -0.1781
 4320TIP3    H134451   4.910   5.535  12.465  0.6491  0.4570 -0.2163
 4320TIP3    H234452   4.800   5.475  12.380  2.0908 -1.7456 -0.6159
 4321TIP3   OH234453   0.305   0.810   6.370 -0.1268  0.2458 -0.0602
 4321TIP3    H134454   0.395   0.779   6.356 -0.4633 -1.2416  0.8460
 4321TIP3    H234455   0.276   0.840   6.284  0.7560 -0.5686 -0.6609
 4322TIP3   OH234456   0.133   4.117   5.038 -0.0581 -0.2647  0.4614
 4322TIP3    H134457   0.186   4.182   5.085 -1.4384  0.8823  0.5160
 4322TIP3    H234458   0.079   4.077   5.106 -0.0343 -0.6555  0.2526
 4323TIP3   OH234459   0.629   4.335   0.323 -0.5352  0.7344  0.0718
 4323TIP3    H134460   0.626   4.377   0.409 -0.6395 -1.9704  1.5278
 4323TIP3    H234461   0.718   4.351   0.292 -0.4073  1.5314  0.8134
 4324TIP3   OH234462   5.543   2.383   5.347  0.1129 -0.1128 -0.0389
 4324TIP3    H134463   5.578   2.469   5.370 -1.8986  1.2188 -1.4962
 4324TIP3    H234464   5.617   2.335   5.312  0.7236  2.3379 -2.4678
 4325TIP3   OH234465   5.183   6.203  13.577  0.3095  0.0148  0.1130
 4325TIP3    H134466   5.266   6.251  13.582  0.4734  0.1077 -2.3483
 4325TIP3    H234467   5.207   6.112  13.593  0.8030  0.1117 -0.0400
 4326TIP3   OH234468   0.799   5.400   0.166 -0.7126 -0.3318 -0.3196
 4326TIP3    H134469   0.788   5.420   0.259  0.9516 -2.2505  0.3529
 4326TIP3    H234470   0.717   5.430   0.125 -1.3745  0.7667  1.6965
 4327TIP3   OH234471   4.600   4.308  13.818  0.4096 -0.3234  0.8664
 4327TIP3    H134472   4.623   4.226  13.774 -0.8642  0.6662 -1.8691
 4327TIP3    H234473   4.510   4.326  13.790  0.6490  2.0052  1.3869
 4328TIP3   OH234474   6.329   1.832  13.090 -0.2063 -0.0895 -0.5750
 4328TIP3    H134475   6.347   1.744  13.124  2.2370  0.6080  0.1116
 4328TIP3    H234476   6.348   1.825  12.996 -0.5580 -0.4276 -0.6227
 4329TIP3   OH234477   2.540   2.979   2.938 -0.1239  0.1888  0.4107
 4329TIP3    H134478   2.494   2.916   2.882  1.4072  0.4862 -1.2716
 4329TIP3    H234479   2.617   2.931   2.970  0.4936  0.8537 -0.0368
 4330TIP3   OH234480   6.519   6.297   4.491  0.2277 -0.1078  0.0845
 4330TIP3    H134481   6.444   6.239   4.499 -0.6193  0.8563 -0.5754
 4330TIP3    H234482   6.589   6.253   4.540 -0.6840 -1.1442  0.4996
 4331TIP3   OH234483   5.336   6.154  10.700 -0.5030  0.4106 -0.0879
 4331TIP3    H134484   5.397   6.083  10.722  0.4722  0.9539 -0.9183
 4331TIP3    H234485   5.317   6.141  10.607 -0.0565  1.4023 -0.3360
 4332TIP3   OH234486   1.294   0.585   1.422 -0.3704  0.3533  0.4841
 4332TIP3    H134487   1.351   0.546   1.488 -1.6422 -2.4709  0.0340
 4332TIP3    H234488   1.351   0.598   1.346  0.6040  1.6614  1.3890
 4333TIP3   OH234489   0.995   1.100  12.152 -0.2944 -0.0207  0.1433
 4333TIP3    H134490   0.947   1.084  12.071 -0.6024  1.1952  0.0762
 4333TIP3    H234491   1.087   1.082  12.130 -0.4420 -0.2219 -0.3172
 4334TIP3   OH234492   1.030   4.458  13.064  0.7741  0.2018 -0.7246
 4334TIP3    H134493   0.949   4.453  13.115  0.7788  0.0022 -0.7348
 4334TIP3    H234494   1.003   4.493  12.979  0.9698  1.8056 -0.1541
 4335TIP3   OH234495   1.212   5.942   1.283  0.1999 -0.7731  0.7131
 4335TIP3    H134496   1.218   5.970   1.374  2.2933  0.2288  0.3201
 4335TIP3    H234497   1.227   5.848   1.285  1.3104 -0.5965  1.3349
 4336TIP3   OH234498   3.152   4.622  17.248  0.2011 -0.0542 -0.0074
 4336TIP3    H134499   3.120   4.709  17.224  1.7938  0.0590 -1.9428
 4336TIP3    H234500   3.248   4.631  17.249  0.3974 -1.7822 -0.3171
 4337TIP3   OH234501   3.477   6.539   5.128 -0.1291  0.0829  0.4518
 4337TIP3    H134502   3.498   6.446   5.119  1.3654  0.4199  0.2796
 4337TIP3    H234503   3.504   6.563   5.216  1.3641  0.7944 -0.1649
 4338TIP3   OH234504   4.672   5.192  13.210  0.4236 -0.2749  0.0405
 4338TIP3    H134505   4.745   5.231  13.161 -0.3625  2.3323  0.7634
 4338TIP3    H234506   4.601   5.186  13.145  0.2177  0.6142  0.1610
 4339TIP3   OH234507   6.677   3.559  11.384  0.0740 -0.2918 -0.5013
 4339TIP3    H134508   6.768   3.580  11.367 -0.1481  1.5740  0.4000
 4339TIP3    H234509   6.677   3.465  11.401  1.9641 -0.1620  0.4373
 4340TIP3   OH234510   1.716   1.472  14.894 -0.1801  0.1786 -0.1908
 4340TIP3    H134511   1.798   1.500  14.934  0.0133  0.2791 -0.6505
 4340TIP3    H234512   1.706   1.381  14.923  0.5508 -0.1256 -0.8320
 4341TIP3   OH234513   5.088   4.183  12.699  0.0513 -0.1649 -0.0346
 4341TIP3    H134514   5.083   4.108  12.758  0.0626  0.7254  1.1470
 4341TIP3    H234515   5.032   4.250  12.740  1.2359  0.9961 -0.2280
 4342TIP3   OH234516   4.265   0.717   0.005  0.1588  0.4089 -0.0262
 4342TIP3    H134517   4.274   0.800  -0.042  0.0593 -0.5844 -1.8823
 4342TIP3    H234518   4.333   0.720   0.072  0.1522  1.9843 -0.0527
 4343TIP3   OH234519   0.801   5.018   2.037  0.0708 -0.2556 -0.1526
 4343TIP3    H134520   0.888   5.022   1.997  0.6386  0.3694  1.0771
 4343TIP3    H234521   0.797   4.932   2.079  0.8119  0.3677  1.2686
 4344TIP3   OH234522   0.693   5.425   3.505  0.1248 -0.0184  0.0917
 4344TIP3    H134523   0.775   5.462   3.537  0.3525 -0.1846 -0.2963
 4344TIP3    H234524   0.648   5.498   3.462  0.2037  0.0011  0.0428
 4345TIP3   OH234525   2.123   4.790   0.333 -0.0123  0.1199  0.6603
 4345TIP3    H134526   2.215   4.813   0.324 -0.0254  0.1979  0.7287
 4345TIP3    H234527   2.075   4.870   0.313 -0.2019 -0.6351 -2.5030
 4346TIP3   OH234528   4.782   6.240  12.675 -0.1327  0.2015 -0.0095
 4346TIP3    H134529   4.834   6.279  12.745 -1.8133  0.9674  0.8654
 4346TIP3    H234530   4.842   6.233  12.601  1.7298 -0.7131  1.5046
 4347TIP3   OH234531   6.572   1.017  12.690 -0.0232  0.3801 -0.4939
 4347TIP3    H134532   6.502   1.057  12.640 -1.1556 -1.3683 -0.3883
 4347TIP3    H234533   6.528   0.955  12.748  1.6311 -1.2485 -0.8796
 4348TIP3   OH234534   5.724   2.656  13.954  0.4427  0.7794 -0.2736
 4348TIP3    H134535   5.680   2.734  13.989 -0.6570  0.6779 -1.3671
 4348TIP3    H234536   5.809   2.688  13.924  0.3780  1.3700  0.1552
 4349TIP3   OH234537   6.771   3.039   2.073  0.6528  0.2381  0.0756
 4349TIP3    H134538   6.813   3.000   2.150  0.9724  1.5924  0.6095
 4349TIP3    H234539   6.783   3.133   2.084  1.3901  0.4420 -2.0338
 4350TIP3   OH234540   4.003   5.792  14.618 -0.2632  0.1598  0.0815
 4350TIP3    H134541   4.071   5.837  14.568 -1.6847  1.1461 -1.0851
 4350TIP3    H234542   3.932   5.779  14.555 -0.3484 -2.8370  0.6538
 4351TIP3   OH234543   5.331   1.664  16.706  0.7548  0.1780 -0.5655
 4351TIP3    H134544   5.400   1.629  16.763  1.0879  0.6061 -0.6966
 4351TIP3    H234545   5.251   1.622  16.736  0.8191  0.8581  0.6396
 4352TIP3   OH234546   1.080   5.929  14.291  0.0313 -0.2147  0.9997
 4352TIP3    H134547   1.032   6.000  14.333 -0.2386 -0.1024  0.5075
 4352TIP3    H234548   1.142   5.973  14.232  1.6091 -0.3066  2.5082
 4353TIP3   OH234549   3.468   6.676   4.038  0.6889 -0.2365 -0.2216
 4353TIP3    H134550   3.376   6.693   4.014  0.1488 -0.3847  1.5660
 4353TIP3    H234551   3.470   6.692   4.132  2.2997 -1.1987 -0.0773
 4354TIP3   OH234552   2.043   2.470   0.512 -0.3258  0.0503  0.0830
 4354TIP3    H134553   2.122   2.416   0.500 -1.0943 -0.7084 -2.2062
 4354TIP3    H234554   1.971   2.407   0.515 -0.9861  0.8087  0.5152
 4355TIP3   OH234555   1.520   5.586   2.426 -0.1300  0.5942  0.3349
 4355TIP3    H134556   1.449   5.573   2.489 -0.3907  0.8816  0.1045
 4355TIP3    H234557   1.509   5.516   2.362  1.1400 -0.7221  1.5046
 4356TIP3   OH234558   1.196   3.063   5.083 -0.5122  0.3546 -0.1490
 4356TIP3    H134559   1.204   3.096   5.172  0.0792 -0.2308  0.0206
 4356TIP3    H234560   1.122   3.111   5.046 -2.8903 -1.6585  1.6619
 4357TIP3   OH234561   5.381   1.110  14.721  0.5726  0.3471 -0.7645
 4357TIP3    H134562   5.337   1.041  14.671  0.5864  0.8622 -1.5057
 4357TIP3    H234563   5.324   1.125  14.796 -0.4579  0.8779 -1.6234
 4358TIP3   OH234564   6.650   2.535  13.705 -0.4874 -0.1206 -0.2930
 4358TIP3    H134565   6.568   2.548  13.657 -1.4974  0.7769  1.5911
 4358TIP3    H234566   6.697   2.618  13.694 -1.5108  0.7821  1.6275
 4359TIP3   OH234567   4.326   6.497  15.831  0.2274 -0.0375  0.1183
 4359TIP3    H134568   4.237   6.533  15.829 -0.2170 -0.9632  1.5585
 4359TIP3    H234569   4.355   6.511  15.921  0.7980 -1.4509  0.1692
 4360TIP3   OH234570   2.140   5.823   6.198 -0.1410  0.6443  0.1303
 4360TIP3    H134571   2.155   5.914   6.223  0.4269  0.9427 -1.2362
 4360TIP3    H234572   2.176   5.772   6.271  0.3767  1.4902  0.4801
 4361TIP3   OH234573   5.081   1.514  13.839  0.6495 -0.0674 -0.8078
 4361TIP3    H134574   4.986   1.527  13.838  0.6286  0.1114  0.5652
 4361TIP3    H234575   5.101   1.472  13.756 -1.2998 -4.5759  0.6786
 4362TIP3   OH234576   5.154   1.537   6.362 -0.1277  0.2463  0.1012
 4362TIP3    H134577   5.193   1.449   6.364  1.2007  0.7821 -0.9525
 4362TIP3    H234578   5.073   1.525   6.313  1.4169  0.0413 -2.6436
 4363TIP3   OH234579   0.904   3.288  13.660  0.1714  0.4580 -0.0978
 4363TIP3    H134580   0.909   3.358  13.725 -0.8986  0.0179  0.4676
 4363TIP3    H234581   0.972   3.226  13.686 -0.7162 -0.0656  1.0396
 4364TIP3   OH234582   2.241   1.513   1.909  0.1054 -0.4109  0.6767
 4364TIP3    H134583   2.160   1.515   1.858  0.5861 -0.1563 -0.0997
 4364TIP3    H234584   2.213   1.493   1.998 -0.8357 -0.0967  0.4664
 4365TIP3   OH234585   1.710   4.634  14.602  0.0939  0.8619 -0.1308
 4365TIP3    H134586   1.803   4.656  14.603  0.3672 -0.2295  0.4887
 4365TIP3    H234587   1.702   4.564  14.667 -1.2642  1.3573  0.2491
 4366TIP3   OH234588   2.873   5.474  16.845  0.6453  0.3005 -0.1291
 4366TIP3    H134589   2.963   5.507  16.834  0.7843 -0.0975 -0.1944
 4366TIP3    H234590   2.860   5.417  16.770  0.0519  0.9767 -0.5499
 4367TIP3   OH234591   5.105   3.881   2.881  0.1379 -0.1109  0.9029
 4367TIP3    H134592   5.054   3.949   2.837 -0.1836  0.5785  2.2662
 4367TIP3    H234593   5.044   3.808   2.892  0.3992 -0.5282 -0.3049
 4368TIP3   OH234594   0.822   2.498   6.177  0.1496 -0.5590 -0.3294
 4368TIP3    H134595   0.770   2.506   6.257  0.7261 -3.0573  0.3736
 4368TIP3    H234596   0.912   2.511   6.206  0.2292  0.5107 -0.9798
 4369TIP3   OH234597   0.779   2.075  10.983  0.4108  0.2035 -0.4168
 4369TIP3    H134598   0.754   2.018  10.911  1.8341 -0.0807 -0.7281
 4369TIP3    H234599   0.821   2.017  11.047  0.9163  0.7342 -0.2533
 4370TIP3   OH234600   2.992   2.094  14.025 -0.0337  0.0686  0.1692
 4370TIP3    H134601   3.005   2.182  13.988  2.9722 -1.0524 -1.8049
 4370TIP3    H234602   2.919   2.058  13.974  1.2058  0.1233 -1.7518
 4371TIP3   OH234603   0.930   1.242   0.416  0.0140 -0.1541  0.6966
 4371TIP3    H134604   0.984   1.163   0.408  1.1534  0.3406  2.6796
 4371TIP3    H234605   0.993   1.314   0.420 -1.0008  1.5408 -5.0956
 4372TIP3   OH234606   0.648   6.459   5.683 -0.0493 -0.2663 -0.0448
 4372TIP3    H134607   0.573   6.495   5.635 -0.4237  0.3508  0.9582
 4372TIP3    H234608   0.724   6.484   5.631 -0.5120 -0.7022 -0.9581
 4373TIP3   OH234609   6.396   5.598  12.012 -0.4426  0.4491  0.5365
 4373TIP3    H134610   6.339   5.585  11.936  0.7036  0.6497 -0.3952
 4373TIP3    H234611   6.439   5.682  11.995 -0.3486  0.6053  1.5276
 4374TIP3   OH234612   3.798   3.558  16.022  0.6548 -0.5256  0.4334
 4374TIP3    H134613   3.883   3.599  16.038  0.9210 -1.4669  1.5613
 4374TIP3    H234614   3.802   3.528  15.931  1.5394 -0.6055  0.4977
 4375TIP3   OH234615   4.082   4.524  11.661 -0.0551 -0.2887 -0.4885
 4375TIP3    H134616   4.090   4.605  11.711 -2.3264 -1.6142  2.3245
 4375TIP3    H234617   4.173   4.498  11.642  0.8081  1.6005  0.7791
 4376TIP3   OH234618   1.775   3.707  16.016  0.4687  0.1759  0.0938
 4376TIP3    H134619   1.806   3.659  15.939 -2.3004 -2.1076  0.2490
 4376TIP3    H234620   1.716   3.773  15.981  3.4768  3.1041 -0.0262
 4377TIP3   OH234621   5.118   3.415   2.031 -0.0601  0.0902  0.2444
 4377TIP3    H134622   5.110   3.479   1.961  3.1420 -1.7072 -2.0028
 4377TIP3    H234623   5.205   3.430   2.068 -0.7257 -0.5943  2.2281
 4378TIP3   OH234624   4.021   5.441   5.210  0.1149 -0.1065  0.1451
 4378TIP3    H134625   3.958   5.382   5.169  3.1030 -0.8025 -4.1047
 4378TIP3    H234626   3.988   5.529   5.190 -0.3278 -0.4334 -0.5914
 4379TIP3   OH234627   2.643   1.405   5.621 -0.7090 -0.1951  0.7216
 4379TIP3    H134628   2.636   1.496   5.592 -0.8420 -0.2277  0.6468
 4379TIP3    H234629   2.591   1.401   5.701  1.8291  0.5296  2.5164
 4380TIP3   OH234630   3.155   4.605   5.063  0.4366 -0.0685 -0.0464
 4380TIP3    H134631   3.093   4.534   5.045  0.4665  0.3680 -2.1254
 4380TIP3    H234632   3.102   4.674   5.102 -0.1003 -0.2547 -0.4418
 4381TIP3   OH234633   3.300   3.579   2.057 -0.2741  0.3442  0.0903
 4381TIP3    H134634   3.290   3.582   2.152 -1.5001 -0.2850 -0.0018
 4381TIP3    H234635   3.315   3.487   2.038 -0.3898  0.4199 -0.3652
 4382TIP3   OH234636   3.231   4.128  14.694  0.3627  0.7898 -0.3366
 4382TIP3    H134637   3.295   4.062  14.719 -1.2212 -0.3994  0.7814
 4382TIP3    H234638   3.201   4.166  14.777 -0.3741  1.3162 -0.8275
 4383TIP3   OH234639   5.739   1.026   3.439 -0.0024 -0.4202 -0.3044
 4383TIP3    H134640   5.759   1.118   3.426  0.2470 -0.1865  1.4652
 4383TIP3    H234641   5.659   1.026   3.492  1.1123 -1.1107  1.4993
 4384TIP3   OH234642   1.170   0.069   1.816  0.7174 -0.0130  0.0988
 4384TIP3    H134643   1.208   0.072   1.728  0.5045  0.0547  0.0067
 4384TIP3    H234644   1.236   0.027   1.870 -0.4529 -3.2683 -0.7528
 4385TIP3   OH234645   4.572   5.219   2.174 -0.1145  0.2974 -0.2425
 4385TIP3    H134646   4.573   5.203   2.268 -1.1179  2.0092  0.0838
 4385TIP3    H234647   4.661   5.248   2.153 -0.3126  1.4616  0.4784
 4386TIP3   OH234648   0.556   4.447  14.644 -0.2386 -0.0824 -0.2178
 4386TIP3    H134649   0.620   4.476  14.709 -0.3900  0.4646 -0.3105
 4386TIP3    H234650   0.487   4.406  14.695  0.3798 -1.0800 -0.1432
 4387TIP3   OH234651   2.975   1.654   1.364 -0.1673  0.1159 -0.1041
 4387TIP3    H134652   3.021   1.707   1.429  0.5204 -0.3334 -0.2171
 4387TIP3    H234653   2.908   1.608   1.415  0.2701 -0.1216  0.2707
 4388TIP3   OH234654   5.182   1.181   2.659  0.5917  1.0588  0.1866
 4388TIP3    H134655   5.273   1.163   2.632  0.9880  2.0833  0.7770
 4388TIP3    H234656   5.131   1.167   2.580  1.4924  2.1487 -0.6261
 4389TIP3   OH234657   0.260   1.640  12.303 -0.4506  0.0349  0.4694
 4389TIP3    H134658   0.348   1.678  12.303  0.1998 -1.3915 -0.8446
 4389TIP3    H234659   0.204   1.709  12.339  1.0719  1.2677  0.5562
 4390TIP3   OH234660   0.286   5.977   4.606 -0.5087  0.2644 -0.4288
 4390TIP3    H134661   0.328   6.019   4.531 -0.0895 -3.5389 -2.5908
 4390TIP3    H234662   0.192   5.980   4.585 -0.5722  1.0459 -0.0381
 4391TIP3   OH234663   2.996   5.662   1.744 -0.5185  0.1098 -0.3028
 4391TIP3    H134664   3.000   5.757   1.733 -4.3750  0.3885 -0.7421
 4391TIP3    H234665   2.935   5.633   1.676 -1.4463 -2.2886  1.4156
 4392TIP3   OH234666   3.678   5.630  15.768 -0.4711 -0.3215  0.2181
 4392TIP3    H134667   3.611   5.633  15.837 -0.7727 -0.1145 -0.0787
 4392TIP3    H234668   3.761   5.630  15.815 -0.6809 -1.9105  0.6373
 4393TIP3   OH234669   0.196   6.271  12.735  0.4506 -0.3297 -0.0062
 4393TIP3    H134670   0.196   6.361  12.766  0.6130 -0.3335  0.0031
 4393TIP3    H234671   0.258   6.226  12.792  0.5113 -0.4064 -0.1324
 4394TIP3   OH234672   4.436   1.044  12.981 -0.1352  0.4899 -0.2985
 4394TIP3    H134673   4.368   1.105  12.953 -1.0799  0.2939  1.4111
 4394TIP3    H234674   4.496   1.097  13.034  1.1388  0.6814 -1.8709
 4395TIP3   OH234675   0.244   4.125   2.284 -0.5820 -0.2017 -0.4421
 4395TIP3    H134676   0.210   4.199   2.334 -0.9996 -0.0590 -0.9258
 4395TIP3    H234677   0.324   4.099   2.330 -0.3923  0.5896 -0.3094
 4396TIP3   OH234678   5.414   4.938  13.081 -0.0095 -0.6752 -0.5702
 4396TIP3    H134679   5.392   5.023  13.043 -0.2158  0.2514  1.5155
 4396TIP3    H234680   5.371   4.874  13.023 -0.1902  0.6405 -1.9395
 4397TIP3   OH234681   3.583   0.415   5.353 -0.4263 -0.4482  0.6504
 4397TIP3    H134682   3.676   0.392   5.362  0.3507  2.4948  1.4991
 4397TIP3    H234683   3.575   0.444   5.262 -0.5314 -0.7270  0.5698
 4398TIP3   OH234684   5.066   0.523  12.103 -0.3592 -0.4586 -0.2308
 4398TIP3    H134685   4.978   0.488  12.093 -0.2934 -1.0115  0.9055
 4398TIP3    H234686   5.115   0.489  12.028 -1.1085 -0.1243 -0.8847
 4399TIP3   OH234687   5.879   2.870   4.540  0.2958 -0.1114  0.0502
 4399TIP3    H134688   5.931   2.951   4.549 -2.7816  1.9229  1.3593
 4399TIP3    H234689   5.834   2.880   4.456  1.6312 -1.6892 -0.9105
 4400TIP3   OH234690   1.397   3.328   1.424 -0.1721  0.2901  0.5688
 4400TIP3    H134691   1.342   3.250   1.440 -0.9667  1.1084  2.0283
 4400TIP3    H234692   1.436   3.312   1.338 -0.7390 -1.4786  0.5947
 4401TIP3   OH234693   3.008   1.595  13.322 -0.1613  0.0064 -0.2604
 4401TIP3    H134694   2.949   1.594  13.248 -1.0125 -2.7201  0.3417
 4401TIP3    H234695   3.094   1.575  13.285 -0.0798  1.2658 -0.7912
 4402TIP3   OH234696   4.421   6.562   2.575 -0.1464 -0.3808  0.0534
 4402TIP3    H134697   4.491   6.505   2.608  0.7288  0.6627  0.0567
 4402TIP3    H234698   4.367   6.580   2.652  0.9210  0.6615  0.6018
 4403TIP3   OH234699   6.068   3.726  12.234 -0.2009 -0.3099 -0.6291
 4403TIP3    H134700   6.142   3.685  12.279 -1.3850 -1.7697  0.1144
 4403TIP3    H234701   6.000   3.658  12.235 -2.8497  2.0953  1.9885
 4404TIP3   OH234702   0.999   0.878  13.601 -0.5154  0.8570 -0.3724
 4404TIP3    H134703   1.090   0.854  13.619 -0.4695  0.7667 -0.7256
 4404TIP3    H234704   0.987   0.861  13.507 -1.7316 -1.8581  0.1897
 4405TIP3   OH234705   4.661   4.887  14.360 -0.0654 -0.1934  0.3172
 4405TIP3    H134706   4.641   4.801  14.395 -0.2694 -0.6249 -0.8252
 4405TIP3    H234707   4.609   4.947  14.414  0.6839 -0.6735  1.6426
 4406TIP3   OH234708   5.178   6.689  11.289  0.1680 -0.5964 -0.4275
 4406TIP3    H134709   5.106   6.702  11.350 -0.6523 -1.2890 -1.2340
 4406TIP3    H234710   5.229   6.617  11.326  1.4986  1.0226  1.0724
 4407TIP3   OH234711   6.489   5.517   3.882  0.2151 -0.2654  0.4678
 4407TIP3    H134712   6.435   5.539   3.959 -0.0870 -1.6441  0.6811
 4407TIP3    H234713   6.425   5.496   3.814  0.4878  0.0643  0.1073
 4408TIP3   OH234714   3.416   1.179   4.534 -0.3193  0.1899 -0.1109
 4408TIP3    H134715   3.407   1.086   4.555 -1.2623 -0.3000 -2.4093
 4408TIP3    H234716   3.484   1.182   4.467 -0.0058  1.2296  0.2261
 4409TIP3   OH234717   2.871   0.347  13.503  0.1355  0.5449 -0.0627
 4409TIP3    H134718   2.803   0.399  13.545 -1.2978  0.8469 -2.5629
 4409TIP3    H234719   2.926   0.411  13.458 -1.0576  0.0988 -2.3314
 4410TIP3   OH234720   1.445   0.307   0.449  0.1638 -0.9838 -0.5531
 4410TIP3    H134721   1.372   0.265   0.496  0.1071  1.5363  1.8812
 4410TIP3    H234722   1.522   0.284   0.500  0.0202  2.3586  1.4852
 4411TIP3   OH234723   5.009   3.179   6.023  0.2334 -0.3991  0.4371
 4411TIP3    H134724   5.002   3.084   6.015 -2.1404 -0.3295  1.1440
 4411TIP3    H234725   4.953   3.202   6.096  0.0466  1.6538 -0.2730
 4412TIP3   OH234726   5.600   4.900   4.666 -0.9652 -0.3564  0.3917
 4412TIP3    H134727   5.539   4.880   4.736  0.3059 -1.1547  1.3238
 4412TIP3    H234728   5.668   4.832   4.673 -0.1264  0.3153 -0.7726
 4413TIP3   OH234729   2.278   5.352   4.349  0.1554 -0.1198  0.1389
 4413TIP3    H134730   2.202   5.376   4.401  0.8953  0.2377  1.0921
 4413TIP3    H234731   2.299   5.432   4.300 -0.2741 -0.3216 -0.3852
 4414TIP3   OH234732   1.016   4.462   4.400  0.2135 -0.6346  0.3798
 4414TIP3    H134733   0.929   4.467   4.440  0.4454 -0.0602  0.8201
 4414TIP3    H234734   1.075   4.443   4.473  0.8931  2.1971  0.7060
 4415TIP3   OH234735   5.709   2.174   0.183  0.2965 -0.7817 -0.6409
 4415TIP3    H134736   5.768   2.146   0.253  1.2176 -0.3481 -1.2246
 4415TIP3    H234737   5.641   2.224   0.228 -0.6907 -2.8324  0.2619
 4416TIP3   OH234738   1.680   3.358   5.374 -0.7980 -0.0719 -0.5738
 4416TIP3    H134739   1.624   3.408   5.434 -0.5318  0.2558 -0.5956
 4416TIP3    H234740   1.711   3.422   5.310  0.0022 -0.1346 -0.2719
 4417TIP3   OH234741   6.188   3.558  15.397 -0.4885 -0.0784  0.1619
 4417TIP3    H134742   6.238   3.479  15.377  0.0682  0.9419 -3.0601
 4417TIP3    H234743   6.145   3.580  15.315 -1.6999  2.2638  1.3296
 4418TIP3   OH234744   0.508   4.218  15.859 -0.1113 -0.2869  0.7947
 4418TIP3    H134745   0.477   4.164  15.931  0.9445 -1.1575  0.6303
 4418TIP3    H234746   0.561   4.286  15.901 -1.3594  0.5959  0.9942
 4419TIP3   OH234747   4.850   6.664   5.904  0.0585 -0.8025 -0.9934
 4419TIP3    H134748   4.842   6.686   5.997 -0.5835 -0.9719 -1.0050
 4419TIP3    H234749   4.939   6.630   5.895  1.1131  1.7553 -0.9765
 4420TIP3   OH234750   0.514   1.767   5.213 -0.5799 -0.4641 -0.1662
 4420TIP3    H134751   0.504   1.673   5.221  0.5183 -0.7356 -1.5422
 4420TIP3    H234752   0.431   1.798   5.177 -1.8394 -0.5250  2.4512
 4421TIP3   OH234753   2.247   0.753  15.493  0.1658  0.3658  0.2449
 4421TIP3    H134754   2.342   0.763  15.486  0.2621  0.6167  1.7018
 4421TIP3    H234755   2.231   0.744  15.587 -1.2891  0.6458  0.0367
 4422TIP3   OH234756   5.556   0.718  16.549 -0.1437  0.5075 -0.6062
 4422TIP3    H134757   5.461   0.716  16.559 -0.0741 -0.1042  0.0576
 4422TIP3    H234758   5.585   0.789  16.607 -0.1075 -0.1367  0.1937
 4423TIP3   OH234759   1.890   0.550   4.430 -0.5262  0.0745 -0.0849
 4423TIP3    H134760   1.969   0.523   4.478 -0.0132 -0.9926 -1.4703
 4423TIP3    H234761   1.868   0.636   4.466  0.3488 -0.2911  1.4193
 4424TIP3   OH234762   4.984   3.833   1.353  0.2270 -0.4851 -0.1128
 4424TIP3    H134763   4.979   3.856   1.261  0.7958  0.5388  0.0947
 4424TIP3    H234764   4.980   3.738   1.355  1.4160 -0.5834 -1.2861
 4425TIP3   OH234765   4.485   1.627   4.317 -0.0624  0.8484  0.0311
 4425TIP3    H134766   4.518   1.568   4.249 -0.3076  3.9630 -3.0817
 4425TIP3    H234767   4.556   1.690   4.330 -1.4044  2.4846 -0.2085
 4426TIP3   OH234768   4.680   6.472   4.037  0.1427 -0.1817  0.0938
 4426TIP3    H134769   4.621   6.548   4.034  0.6360  0.2568  1.0273
 4426TIP3    H234770   4.713   6.471   4.126  0.6411 -1.1305 -0.0889
 4427TIP3   OH234771   6.525   4.617   4.850 -1.0464  0.1775  0.2449
 4427TIP3    H134772   6.571   4.553   4.796 -0.3336  1.3674 -0.5902
 4427TIP3    H234773   6.589   4.686   4.866 -1.1825 -0.1798  2.7610
 4428TIP3   OH234774   4.887   5.873   4.951  0.1452 -0.3567  0.1670
 4428TIP3    H134775   4.820   5.818   4.910 -1.1978  1.4162 -0.1637
 4428TIP3    H234776   4.904   5.942   4.887  0.6704  0.4409  1.1301
 4429TIP3   OH234777   1.109   0.702  12.172 -0.6751  0.0626  0.5214
 4429TIP3    H134778   1.098   0.639  12.101  2.6215  1.2512 -1.2915
 4429TIP3    H234779   1.070   0.660  12.249 -2.4717 -2.2234 -1.5053
 4430TIP3   OH234780   0.787   0.040   3.855 -0.5014 -1.0116  0.1754
 4430TIP3    H134781   0.742   0.089   3.924  0.8364  1.8477 -0.8334
 4430TIP3    H234782   0.864   0.003   3.898  1.1080  1.9440  0.0966
 4431TIP3   OH234783   3.710   5.407   0.946  0.2942  0.0588 -0.0308
 4431TIP3    H134784   3.717   5.451   0.861  0.0536  1.9730  0.8767
 4431TIP3    H234785   3.763   5.461   1.005 -0.7948 -0.3388  1.3610
 4432TIP3   OH234786   1.198   5.895   3.670  0.3528  0.1919 -0.2360
 4432TIP3    H134787   1.161   5.975   3.632  1.0812  0.4345 -0.4510
 4432TIP3    H234788   1.128   5.830   3.661  0.3885  0.3117 -1.7509
 4433TIP3   OH234789   0.230   5.713  12.662  0.4755  0.0428  0.2197
 4433TIP3    H134790   0.148   5.690  12.618  0.2331  2.1425 -0.5548
 4433TIP3    H234791   0.203   5.745  12.748  0.6815 -1.0261  0.7029
 4434TIP3   OH234792   6.565   1.611  14.575  0.2611  0.6500  0.0599
 4434TIP3    H134793   6.648   1.597  14.621 -0.0951  1.3058  0.9122
 4434TIP3    H234794   6.590   1.654  14.493  0.6875  1.7891  0.7688
 4435TIP3   OH234795   1.940   1.318  15.395  0.1956  0.1763  0.2972
 4435TIP3    H134796   1.959   1.225  15.408  0.4086  0.1126 -0.4391
 4435TIP3    H234797   1.872   1.319  15.327  0.8886  0.5959 -0.3978
 4436TIP3   OH234798   5.956   1.666  13.030  0.5846 -0.4785  0.0166
 4436TIP3    H134799   6.040   1.658  12.985  0.7009  0.0696  0.1248
 4436TIP3    H234800   5.974   1.636  13.119  0.2969 -1.7930 -0.3447
 4437TIP3   OH234801   2.317   5.894  11.575 -0.2488 -0.1240 -0.8818
 4437TIP3    H134802   2.284   5.904  11.485  1.7580 -2.8479 -2.0702
 4437TIP3    H234803   2.411   5.879  11.565 -0.3519 -3.4779  1.3095
 4438TIP3   OH234804   3.160   4.822   5.381  0.2361  0.1233  0.4417
 4438TIP3    H134805   3.090   4.841   5.319  0.1281 -0.7581  0.2787
 4438TIP3    H234806   3.241   4.840   5.332  0.1514  1.4108  0.7185
 4439TIP3   OH234807   1.431   1.936   1.803 -0.2299  0.3846 -0.3109
 4439TIP3    H134808   1.350   1.979   1.774 -0.3348  0.1327 -0.3945
 4439TIP3    H234809   1.420   1.926   1.897  0.7512  2.5750  0.1038
 4440TIP3   OH234810   3.163   5.952  16.327  0.1281 -0.5507 -0.2178
 4440TIP3    H134811   3.106   5.986  16.396  0.1101 -1.1022  0.0389
 4440TIP3    H234812   3.247   5.996  16.341 -0.1204 -0.0194 -0.3700
 4441TIP3   OH234813   1.818   0.799  17.107  0.4594 -0.3981 -0.1454
 4441TIP3    H134814   1.892   0.738  17.113 -0.1011 -0.9880  1.0241
 4441TIP3    H234815   1.845   0.875  17.159  0.1515 -0.7256  0.5045
 4442TIP3   OH234816   0.878   3.929  14.268  0.0807  0.1913  0.3584
 4442TIP3    H134817   0.923   3.948  14.186 -1.2734  0.8646 -0.2544
 4442TIP3    H234818   0.852   3.837  14.260 -0.0445  0.2525  0.0243
 4443TIP3   OH234819   3.030   6.600   1.700 -0.6319  0.4503  0.3293
 4443TIP3    H134820   2.996   6.530   1.643 -2.3842  1.8931 -0.5345
 4443TIP3    H234821   3.106   6.561   1.743  0.0616 -1.1367 -2.0848
 4444TIP3   OH234822   4.853   0.024  15.047  0.5098 -0.0080  0.2074
 4444TIP3    H134823   4.777   0.080  15.056 -0.3254 -1.2651  1.4316
 4444TIP3    H234824   4.928   0.082  15.061 -0.3057  0.8814  1.0598
 4445TIP3   OH234825   2.748   4.739  10.400 -0.5437  0.0497  0.1126
 4445TIP3    H134826   2.673   4.758  10.343  0.2144 -0.1146 -0.9835
 4445TIP3    H234827   2.771   4.648  10.378 -0.3860 -0.0952  0.8668
 4446TIP3   OH234828   1.790   4.669  11.402 -0.2436 -0.3616  0.2651
 4446TIP3    H134829   1.703   4.652  11.438 -0.3691 -2.1830 -0.7634
 4446TIP3    H234830   1.793   4.617  11.321  1.4111  0.5350 -0.2978
 4447TIP3   OH234831   2.021   5.101  15.909 -0.3650 -0.2272  0.1669
 4447TIP3    H134832   2.061   5.015  15.911 -0.1217 -0.1973  4.1383
 4447TIP3    H234833   2.075   5.152  15.848 -0.8094 -2.8494 -2.6523
 4448TIP3   OH234834   0.551   6.052   3.570 -0.4625 -0.0197 -0.0739
 4448TIP3    H134835   0.619   6.117   3.554  1.1885 -1.5446  0.4116
 4448TIP3    H234836   0.495   6.058   3.493  1.1979  0.1421 -1.3456
 4449TIP3   OH234837   0.570   4.670   3.647 -0.3279 -0.2143 -0.3070
 4449TIP3    H134838   0.623   4.716   3.712 -0.5070 -0.3679 -0.0486
 4449TIP3    H234839   0.582   4.577   3.669  0.8458 -0.3665 -1.4468
 4450TIP3   OH234840   6.376   1.175   3.862  0.0847  0.6992 -0.2706
 4450TIP3    H134841   6.339   1.154   3.947 -0.6017 -1.0588 -0.9482
 4450TIP3    H234842   6.435   1.249   3.878  0.2794  0.1478  1.7896
 4451TIP3   OH234843   0.131   6.322  14.819  0.5119 -0.1658 -0.5481
 4451TIP3    H134844   0.038   6.311  14.840  0.6326  0.5231  0.3938
 4451TIP3    H234845   0.153   6.409  14.853  1.3591 -0.0701 -1.3093
 4452TIP3   OH234846   1.848   0.406  11.272 -0.0437 -0.3717 -0.4200
 4452TIP3    H134847   1.878   0.317  11.290  0.2308 -0.2990 -0.5190
 4452TIP3    H234848   1.900   0.461  11.331 -0.6324 -0.3295  0.0698
 4453TIP3   OH234849   3.355   3.889  11.829 -0.3344  0.4645 -0.3631
 4453TIP3    H134850   3.428   3.892  11.890  1.1788 -1.2219 -1.9609
 4453TIP3    H234851   3.277   3.892  11.884  0.9430  0.8034  1.4908
 4454TIP3   OH234852   6.470   3.857   1.988  0.1862 -0.4057  0.2688
 4454TIP3    H134853   6.447   3.773   1.949 -1.6109  0.6264 -1.0716
 4454TIP3    H234854   6.551   3.841   2.035 -1.6159 -3.6130  2.6633
 4455TIP3   OH234855   2.990   5.480   2.374 -0.2959  0.4941  0.1530
 4455TIP3    H134856   3.055   5.551   2.373 -1.7184  1.8575  0.1438
 4455TIP3    H234857   2.946   5.486   2.289 -1.0034  0.1449  0.4839
 4456TIP3   OH234858   3.016   3.196   2.655 -0.7554 -0.3013  0.7313
 4456TIP3    H134859   2.993   3.234   2.741 -1.7998  0.0985  0.3002
 4456TIP3    H234860   3.099   3.152   2.670 -1.3498 -1.0145  2.1862
 4457TIP3   OH234861   3.294   1.570   2.063  0.1616  0.7417  0.1610
 4457TIP3    H134862   3.295   1.559   2.158 -0.3826  0.5081  0.1426
 4457TIP3    H234863   3.387   1.570   2.038  0.3317  1.5680  0.7701
 4458TIP3   OH234864   2.687   2.431  13.561  0.1779  0.7519 -0.0373
 4458TIP3    H134865   2.768   2.427  13.612  0.4306  0.5430 -0.4597
 4458TIP3    H234866   2.685   2.520  13.526  0.5180  0.5775 -0.5076
 4459TIP3   OH234867   2.112   4.331   4.768 -0.0725 -0.8144 -0.4376
 4459TIP3    H134868   2.180   4.270   4.797  0.5848 -0.1314 -0.4923
 4459TIP3    H234869   2.094   4.306   4.678 -0.6031 -1.6114 -0.1238
 4460TIP3   OH234870   0.784   6.714  11.346  0.0476 -0.7056 -0.0082
 4460TIP3    H134871   0.801   6.804  11.375 -0.9793 -0.9534  1.4998
 4460TIP3    H234872   0.870   6.673  11.343  0.3233 -0.2886  1.5246
 4461TIP3   OH234873   1.530   6.819   6.286  0.0287 -0.3268 -0.4770
 4461TIP3    H134874   1.461   6.847   6.346  0.1394 -1.7450  0.3427
 4461TIP3    H234875   1.505   6.730   6.261  2.3308 -1.4900  1.0555
 4462TIP3   OH234876   3.224   5.198  15.867  1.0122  0.6392 -0.0148
 4462TIP3    H134877   3.194   5.180  15.956  1.4083 -0.2959 -0.0507
 4462TIP3    H234878   3.240   5.292  15.865  2.9661  0.4053  1.5359
 4463TIP3   OH234879   1.108   5.295   0.140 -0.0681  0.1491  0.1921
 4463TIP3    H134880   1.154   5.354   0.200 -0.0690 -0.9847  1.3491
 4463TIP3    H234881   1.019   5.289   0.175  0.7185 -2.9821  2.0820
 4464TIP3   OH234882   6.588   3.095   3.469  0.2523  0.0561 -0.2413
 4464TIP3    H134883   6.641   3.170   3.496 -0.2836  0.4332 -0.2286
 4464TIP3    H234884   6.512   3.096   3.528  1.0904 -1.5608  0.9814
 4465TIP3   OH234885   0.235   4.892   3.502  0.1244 -0.0792 -0.1580
 4465TIP3    H134886   0.240   4.978   3.544  1.6966 -0.4116  0.4140
 4465TIP3    H234887   0.256   4.909   3.410  1.3316  0.0552  0.1258
 4466TIP3   OH234888   0.363   2.684  15.745  0.5026  0.1851  0.0866
 4466TIP3    H134889   0.356   2.605  15.799  0.6268  0.4490  0.4964
 4466TIP3    H234890   0.310   2.749  15.791  1.8551  0.8631  0.7403
 4467TIP3   OH234891   6.498   6.203  12.132 -0.4292  0.5421  0.0751
 4467TIP3    H134892   6.406   6.224  12.149 -0.9065 -2.1832  1.2564
 4467TIP3    H234893   6.547   6.257  12.195 -1.3411  0.5675  0.7793
 4468TIP3   OH234894   3.715   0.712  14.993  0.1195  0.3739  0.1200
 4468TIP3    H134895   3.697   0.756  14.910 -1.6764 -0.2037  0.1766
 4468TIP3    H234896   3.710   0.782  15.058  1.1431  0.7554 -0.1851
 4469TIP3   OH234897   0.811   1.974  12.985 -0.0953  0.1303  0.0919
 4469TIP3    H134898   0.717   1.988  12.979 -0.4215 -1.1162  1.5035
 4469TIP3    H234899   0.840   2.032  13.054 -0.0726 -0.4095  0.5451
 4470TIP3   OH234900   2.498   3.499  11.878 -0.8889 -0.1182 -0.0109
 4470TIP3    H134901   2.417   3.548  11.891  0.5676  2.0980  1.4514
 4470TIP3    H234902   2.520   3.466  11.965 -0.4064 -1.0260 -0.4659
 4471TIP3   OH234903   3.108   1.171   3.011  0.0890  0.5375 -0.0030
 4471TIP3    H134904   3.078   1.206   3.095 -0.8164 -0.4858  0.1260
 4471TIP3    H234905   3.030   1.129   2.973  1.1287 -1.4612 -0.0597
 4472TIP3   OH234906   4.171   6.024  13.497 -0.7863 -0.5358 -0.2597
 4472TIP3    H134907   4.213   6.032  13.411 -2.1072 -0.9038 -0.9700
 4472TIP3    H234908   4.236   5.980  13.551  0.0491 -0.3583 -1.0782
 4473TIP3   OH234909   3.232   1.497  14.919 -0.1145 -0.1586  0.0854
 4473TIP3    H134910   3.225   1.511  15.013 -2.9854 -1.5205  0.1761
 4473TIP3    H234911   3.310   1.442  14.909 -0.1035 -0.4910  1.7366
 4474TIP3   OH234912   0.813   2.173  11.385 -0.2045 -0.3295 -0.3413
 4474TIP3    H134913   0.890   2.215  11.345 -0.4061  0.0280 -0.3596
 4474TIP3    H234914   0.842   2.150  11.473 -0.4107  0.8062  0.0392
 4475TIP3   OH234915   0.349   4.531   1.579 -0.2072  0.0568 -0.2038
 4475TIP3    H134916   0.394   4.489   1.505 -1.7959  0.1339 -1.2726
 4475TIP3    H234917   0.385   4.488   1.656  2.8155  1.1931 -0.8294
 4476TIP3   OH234918   5.888   5.836   3.509 -0.2388  0.3079  0.1251
 4476TIP3    H134919   5.823   5.778   3.548 -0.7197  0.0086 -1.0656
 4476TIP3    H234920   5.852   5.924   3.521 -1.5314  0.0687 -1.6276
 4477TIP3   OH234921   0.537   0.173   0.053  0.2976 -0.2904 -0.4572
 4477TIP3    H134922   0.543   0.231  -0.023  0.8684  1.0759  0.5902
 4477TIP3    H234923   0.512   0.088   0.016 -1.4210  0.7946 -1.9596
 4478TIP3   OH234924   2.538   3.432  16.870  0.0504 -0.4382 -0.3248
 4478TIP3    H134925   2.545   3.524  16.844 -0.8519 -0.5388 -0.9753
 4478TIP3    H234926   2.585   3.384  16.802 -1.7931 -0.6526 -1.5178
 4479TIP3   OH234927   6.640   3.433   4.295  0.1950 -0.0215  0.2618
 4479TIP3    H134928   6.568   3.416   4.356  1.2650 -0.2294  1.5223
 4479TIP3    H234929   6.677   3.516   4.326 -0.5247  0.9699 -1.4162
 4480TIP3   OH234930   5.266   2.316  15.092 -0.1652  0.2909  0.7562
 4480TIP3    H134931   5.347   2.329  15.042 -0.5794 -2.9825 -0.9717
 4480TIP3    H234932   5.219   2.399  15.081  0.2744  0.2127 -3.4140
 4481TIP3   OH234933   2.054   5.389  16.817  0.2697 -0.1925  0.4174
 4481TIP3    H134934   2.001   5.456  16.773  0.1635  0.2215  1.1632
 4481TIP3    H234935   1.991   5.337  16.866  0.3171 -1.0519 -0.4091
 4482TIP3   OH234936   1.848   4.809   3.210 -0.5168 -0.0233  0.5226
 4482TIP3    H134937   1.898   4.755   3.271 -0.3406 -0.3963  0.0528
 4482TIP3    H234938   1.839   4.755   3.132 -2.0681 -0.1598  0.7602
 4483TIP3   OH234939   4.712   4.521   5.063  0.0110 -0.2278 -0.4641
 4483TIP3    H134940   4.663   4.602   5.069  1.7272  1.1224 -3.0526
 4483TIP3    H234941   4.727   4.508   4.970  0.1704 -3.3341 -0.1110
 4484TIP3   OH234942   1.175   3.707  13.329  0.3705  0.0172  0.1233
 4484TIP3    H134943   1.128   3.624  13.332  0.0524  0.2158  0.8547
 4484TIP3    H234944   1.200   3.717  13.237 -0.8957 -0.1625 -0.2554
 4485TIP3   OH234945   5.884   1.820   3.055 -0.1104  0.0236  0.1735
 4485TIP3    H134946   5.935   1.887   3.010 -0.9089  0.5667  0.0551
 4485TIP3    H234947   5.949   1.762   3.094  0.6192 -0.3526 -1.4953
 4486TIP3   OH234948   4.471   6.689   0.722 -0.0586  0.3744  0.0349
 4486TIP3    H134949   4.499   6.635   0.648  1.0207  2.1534 -0.8963
 4486TIP3    H234950   4.413   6.754   0.683 -0.6763  0.4248  1.0168
 4487TIP3   OH234951   0.935   4.896   5.494  0.0222  0.0706 -0.2976
 4487TIP3    H134952   0.958   4.989   5.490  0.0609  0.0125 -1.5581
 4487TIP3    H234953   0.895   4.876   5.410 -1.2206 -0.7543  0.4471
 4488TIP3   OH234954   0.314   5.651  12.363  0.0706 -0.2694 -0.2304
 4488TIP3    H134955   0.364   5.690  12.434  0.2792 -0.2644 -0.3784
 4488TIP3    H234956   0.225   5.684  12.374 -0.1857 -1.2263  0.7515
 4489TIP3   OH234957   5.935   5.399  11.235 -0.2306  0.4217 -0.4092
 4489TIP3    H134958   5.999   5.338  11.198 -0.7059 -0.0564 -0.4556
 4489TIP3    H234959   5.968   5.418  11.323 -0.8396 -1.0903  0.1915
 4490TIP3   OH234960   4.494   4.249   0.393 -0.5230  0.3080  0.4984
 4490TIP3    H134961   4.501   4.205   0.309 -0.5473  0.2398  0.5326
 4490TIP3    H234962   4.473   4.340   0.371  0.7930  0.6089  0.3628
 4491TIP3   OH234963   5.884   6.074  11.429  0.4193 -0.2924  0.0201
 4491TIP3    H134964   5.885   6.126  11.509 -0.9054 -1.3860  0.7977
 4491TIP3    H234965   5.831   6.124  11.368 -0.6523 -0.5960  0.6821
 4492TIP3   OH234966   1.144   6.432  12.514 -0.4465 -0.2496 -0.0069
 4492TIP3    H134967   1.220   6.455  12.461 -0.3437  1.5832  0.8572
 4492TIP3    H234968   1.175   6.366  12.575  0.9221  1.5698  1.3635
 4493TIP3   OH234969   2.767   1.793  10.929  0.1168 -0.0854 -0.1615
 4493TIP3    H134970   2.696   1.798  10.866 -1.5577  2.6653  1.6906
 4493TIP3    H234971   2.793   1.884  10.943  0.0664 -0.4486  3.3458
 4494TIP3   OH234972   2.756   0.879  14.128  0.1027  0.1567 -0.4794
 4494TIP3    H134973   2.798   0.852  14.210  0.8257  1.9345 -0.2326
 4494TIP3    H234974   2.699   0.952  14.153  0.5695  0.9361 -1.5906
 4495TIP3   OH234975   3.280   3.921   2.673 -0.5862 -0.3594 -0.3212
 4495TIP3    H134976   3.375   3.930   2.680 -0.5602  0.4019 -1.4568
 4495TIP3    H234977   3.252   3.897   2.762  0.5669  0.3005  0.2440
 4496TIP3   OH234978   5.800   2.718  16.662  0.0634 -0.2163 -0.2515
 4496TIP3    H134979   5.710   2.743  16.682  0.8997  2.2809  0.7599
 4496TIP3    H234980   5.840   2.798  16.627  0.9090 -2.2211 -4.5303
 4497TIP3   OH234981   6.433   3.790  13.800  0.5398 -0.0173  0.4459
 4497TIP3    H134982   6.443   3.818  13.709 -0.8737  2.3673  0.9261
 4497TIP3    H234983   6.349   3.744  13.802 -0.0525  1.0282  0.7133
 4498TIP3   OH234984   4.810   2.055   3.975  0.7408 -0.6483 -0.0135
 4498TIP3    H134985   4.893   2.081   3.935  0.6197  2.1989  1.3025
 4498TIP3    H234986   4.818   2.083   4.066 -2.1890  1.1145 -0.1748
 4499TIP3   OH234987   3.586   3.835   5.003  0.1472  0.0809  0.6437
 4499TIP3    H134988   3.577   3.826   5.098 -1.7765 -1.5723  0.3824
 4499TIP3    H234989   3.595   3.745   4.972  1.6915  0.6544 -0.7085
 4500TIP3   OH234990   1.298   4.692  15.361 -0.3761 -0.5168 -0.3303
 4500TIP3    H134991   1.278   4.600  15.344 -3.3388 -0.0050 -0.1799
 4500TIP3    H234992   1.286   4.735  15.277 -2.5789  0.1818  0.2728
 4501TIP3   OH234993   3.619   0.673   0.103 -0.0178  0.4121  0.3436
 4501TIP3    H134994   3.591   0.700   0.016 -0.7610 -0.7756  0.1836
 4501TIP3    H234995   3.623   0.754   0.154 -0.0834  1.0505 -0.6556
 4502TIP3   OH234996   2.776   3.536  16.224  0.3633 -0.5415 -0.0520
 4502TIP3    H134997   2.842   3.578  16.279 -0.4783 -0.0336  0.5946
 4502TIP3    H234998   2.763   3.597  16.152 -0.4293  0.0431  0.5748
 4503TIP3   OH234999   0.748   4.115  13.451  0.3702 -0.1304 -0.5519
 4503TIP3    H135000   0.690   4.060  13.397 -1.7263 -0.4340  1.8408
 4503TIP3    H235001   0.688   4.172  13.499  2.1915  0.7155  0.8129
 4504TIP3   OH235002   5.703   6.380   1.337 -0.3436  0.8705 -0.4039
 4504TIP3    H135003   5.797   6.395   1.344 -0.7199  2.6243  1.5105
 4504TIP3    H235004   5.691   6.352   1.246  1.8106  2.2057 -1.1810
 4505TIP3   OH235005   6.532   5.530   3.459 -0.2178 -0.6518  0.1734
 4505TIP3    H135006   6.616   5.529   3.505  1.1527  1.6192 -2.0139
 4505TIP3    H235007   6.487   5.450   3.489  1.8295 -0.9214  2.9146
 4506TIP3   OH235008   3.055   2.839   4.653 -0.3118 -0.1568  1.0238
 4506TIP3    H135009   3.129   2.790   4.617 -0.3926 -0.3352  1.0965
 4506TIP3    H235010   3.094   2.901   4.715 -0.1675  0.1883  0.5922
 4507TIP3   OH235011   0.064   2.917  15.332 -0.2198  0.7427  0.7583
 4507TIP3    H135012  -0.031   2.913  15.335 -0.4593  0.9115 -2.6832
 4507TIP3    H235013   0.093   2.830  15.361 -1.6270 -0.4425 -1.1945
 4508TIP3   OH235014   3.161   6.782  14.844 -0.4369  0.4232  0.0413
 4508TIP3    H135015   3.250   6.748  14.830  0.0367  1.4969  0.3609
 4508TIP3    H235016   3.151   6.785  14.939 -1.2341 -0.7080  0.0167
 4509TIP3   OH235017   3.084   5.767   2.934  0.2651  0.4374 -0.3557
 4509TIP3    H135018   3.103   5.752   2.842 -0.7387  0.0722 -0.5185
 4509TIP3    H235019   3.043   5.853   2.936  2.0165  1.3066  0.0145
 4510TIP3   OH235020   5.149   0.673  12.988  0.1723 -0.4717  0.2796
 4510TIP3    H135021   5.159   0.723  13.069 -2.4485  0.2138  0.2760
 4510TIP3    H235022   5.127   0.585  13.016  1.1012 -0.7088  0.2879
 4511TIP3   OH235023   3.255   1.995  11.535  0.8586 -0.0950 -0.5315
 4511TIP3    H135024   3.215   2.082  11.526  2.5365  0.6358 -1.3943
 4511TIP3    H235025   3.296   1.997  11.622  1.8408  0.4309 -0.9841
 4512TIP3   OH235026   3.631   4.854  11.644  0.1948 -0.8438  0.4062
 4512TIP3    H135027   3.540   4.883  11.633  0.4266 -0.2033  0.1515
 4512TIP3    H235028   3.672   4.871  11.559  1.1410  1.0253  1.1862
 4513TIP3   OH235029   5.840   6.323   3.720  0.1199  0.2538  0.3684
 4513TIP3    H135030   5.839   6.231   3.694  0.5787  0.4359 -0.3541
 4513TIP3    H235031   5.933   6.347   3.720 -0.0426  0.9360 -0.3062
 4514TIP3   OH235032   3.919   3.320   3.366  0.5543  0.2590  0.3836
 4514TIP3    H135033   3.955   3.275   3.442 -1.8894 -0.7498  1.0626
 4514TIP3    H235034   3.826   3.331   3.387  0.2373  1.8812 -1.5779
 4515TIP3   OH235035   6.107   3.332   0.770  0.6810 -0.6266 -0.1500
 4515TIP3    H135036   6.193   3.293   0.754  0.4498 -0.8348 -0.9562
 4515TIP3    H235037   6.125   3.425   0.783  0.8630 -0.2740 -2.4278
 4516TIP3   OH235038   6.439   6.053   3.533  0.0670  0.4913  0.0791
 4516TIP3    H135039   6.401   6.041   3.446 -0.2493  1.6535  0.0478
 4516TIP3    H235040   6.531   6.074   3.516 -0.1017  1.1871 -0.0078
 4517TIP3   OH235041   5.896   3.310  12.078  0.6989 -0.0390 -0.3624
 4517TIP3    H135042   5.844   3.230  12.078  0.5579  0.0513 -0.1631
 4517TIP3    H235043   5.987   3.280  12.080  0.6401 -0.1920  0.1143
 4518TIP3   OH235044   4.551   5.264   2.940 -0.0374  0.0761 -0.7248
 4518TIP3    H135045   4.623   5.326   2.937  1.4050 -1.5328 -1.0876
 4518TIP3    H235046   4.593   5.178   2.951 -1.9856 -0.7463  1.0386
 4519TIP3   OH235047   6.203   2.792   4.175 -0.5529 -0.3385  0.1948
 4519TIP3    H135048   6.277   2.840   4.137 -1.5421  0.2535 -1.0581
 4519TIP3    H235049   6.126   2.844   4.152 -1.2502 -0.0405  2.9363
 4520TIP3   OH235050   2.301   3.082  13.407  0.3765 -0.0964 -0.2231
 4520TIP3    H135051   2.324   3.007  13.352  0.6452  0.6039 -1.1115
 4520TIP3    H235052   2.298   3.156  13.345 -2.2982  0.2284  0.1750
 4521TIP3   OH235053   3.653   2.995   6.143  0.0529 -0.2118 -0.0467
 4521TIP3    H135054   3.616   3.079   6.169 -0.5526  0.2277 -2.1012
 4521TIP3    H235055   3.743   3.015   6.117 -0.7835  0.3985 -2.8899
 4522TIP3   OH235056   6.155   5.304  11.574 -0.2265 -0.4642 -0.3557
 4522TIP3    H135057   6.114   5.231  11.621 -0.2499  0.5125  1.2225
 4522TIP3    H235058   6.214   5.262  11.512 -0.2928 -1.8394  0.4557
 4523TIP3   OH235059   6.111   5.200  15.663  0.0979  0.5020 -0.0337
 4523TIP3    H135060   6.125   5.295  15.660  1.0323  0.3501 -0.7624
 4523TIP3    H235061   6.136   5.169  15.576  1.9728 -0.7038  0.8683
 4524TIP3   OH235062   6.224   0.142   3.022  0.2571 -0.0222  0.3303
 4524TIP3    H135063   6.182   0.219   3.062  1.5987  0.6603  0.4802
 4524TIP3    H235064   6.175   0.128   2.940 -0.2469  0.7508  0.4835
 4525TIP3   OH235065   5.999   4.144  14.903 -0.1445  0.4962 -0.0061
 4525TIP3    H135066   6.054   4.216  14.935 -1.4686  1.5564 -0.0395
 4525TIP3    H235067   5.913   4.161  14.939 -0.8738 -0.1654 -1.3430
 4526TIP3   OH235068   1.580   4.745  13.672  0.1837  0.0052 -0.1175
 4526TIP3    H135069   1.556   4.717  13.583 -0.1110  0.3155 -0.1384
 4526TIP3    H235070   1.676   4.736  13.675  0.3529  1.1929 -0.9044
 4527TIP3   OH235071   2.258   0.440  14.010  0.0216  0.2138  0.2788
 4527TIP3    H135072   2.181   0.437  14.068  0.6968  0.2724  1.2020
 4527TIP3    H235073   2.332   0.451  14.070  0.7010  0.7333 -0.6470
 4528TIP3   OH235074   4.901   2.136   6.159 -0.0386  0.0553  0.0028
 4528TIP3    H135075   4.884   2.099   6.246  1.8421 -0.6526  0.1252
 4528TIP3    H235076   4.918   2.060   6.104 -0.3059  0.5495 -0.7742
 4529TIP3   OH235077   6.549   4.087  11.205  0.6982 -0.1195  0.4504
 4529TIP3    H135078   6.551   3.992  11.205 -3.1562 -0.3681  1.4443
 4529TIP3    H235079   6.567   4.112  11.114  1.4701 -1.7737  0.1234
 4530TIP3   OH235080   3.298   5.141  16.896 -0.0751  0.0910 -0.2149
 4530TIP3    H135081   3.365   5.201  16.926 -1.6331  1.6152  0.3932
 4530TIP3    H235082   3.251   5.115  16.975 -1.1653  0.3086 -0.7629
 4531TIP3   OH235083   2.537   4.459  16.297  0.2745  0.4141  0.0709
 4531TIP3    H135084   2.496   4.527  16.243  0.3153  2.4975  2.4884
 4531TIP3    H235085   2.532   4.493  16.386  1.1875 -2.3746  1.2866
 4532TIP3   OH235086   1.680   1.091  10.438  0.3592 -0.2099 -0.4121
 4532TIP3    H135087   1.599   1.103  10.488  0.1048 -0.5999 -0.7277
 4532TIP3    H235088   1.654   1.038  10.363  1.2421 -1.8107  0.3688
 4533TIP3   OH235089   1.956   0.097  16.327  0.5466 -0.1027 -0.0540
 4533TIP3    H135090   1.965   0.010  16.366 -0.9591  0.3294  1.3882
 4533TIP3    H235091   1.888   0.140  16.380 -0.3554  1.1611 -2.1110
 4534TIP3   OH235092   5.951   4.916   5.387  0.1442 -0.3304 -0.6265
 4534TIP3    H135093   6.011   4.987   5.407 -0.6751  0.3434 -0.4992
 4534TIP3    H235094   5.900   4.949   5.312  0.2202 -1.0597 -1.0073
 4535TIP3   OH235095   5.367   3.584   1.764  0.1092  0.6822  0.1537
 4535TIP3    H135096   5.442   3.585   1.823 -0.2317  0.7193  0.5894
 4535TIP3    H235097   5.291   3.577   1.822 -0.1164 -2.3604 -0.3789
 4536TIP3   OH235098   4.107   6.711  15.521 -0.3572 -0.0890  0.5291
 4536TIP3    H135099   4.195   6.733  15.489 -0.0941 -0.9961  0.6070
 4536TIP3    H235100   4.071   6.653  15.454 -1.1117  0.6755  0.2415
 4537TIP3   OH235101   6.813   0.432  15.915 -0.1860 -0.3982  0.1680
 4537TIP3    H135102   6.865   0.374  15.859  0.8414  0.6751 -0.0036
 4537TIP3    H235103   6.805   0.513  15.866  0.5254  0.4858  1.4573
 4538TIP3   OH235104   2.328   6.248  14.259 -0.5029  0.0493 -0.2611
 4538TIP3    H135105   2.241   6.216  14.235 -0.0318 -0.2484 -1.6642
 4538TIP3    H235106   2.312   6.307  14.333 -2.1527  1.5761 -1.7339
 4539TIP3   OH235107   4.139   2.444   6.364  0.0827  0.6169  0.1810
 4539TIP3    H135108   4.095   2.432   6.448  1.3187 -0.7948  0.6580
 4539TIP3    H235109   4.138   2.358   6.323  1.1701  0.8544 -0.3911
 4540TIP3   OH235110   0.703   6.824   1.560 -0.1636 -0.3947  0.3525
 4540TIP3    H135111   0.684   6.903   1.611  0.5400 -0.0093  0.0261
 4540TIP3    H235112   0.784   6.844   1.514 -0.5670 -0.8994 -0.5936
 4541TIP3   OH235113   0.752   0.971   2.508 -0.8743  0.2758  0.6329
 4541TIP3    H135114   0.776   0.925   2.588  2.1001  1.7316  0.7062
 4541TIP3    H235115   0.749   0.903   2.441  0.0284 -0.4873  1.3527
 4542TIP3   OH235116   1.073   3.368   4.770  0.1027  0.3948 -0.1928
 4542TIP3    H135117   0.989   3.404   4.795 -0.1303 -2.0595  3.1907
 4542TIP3    H235118   1.138   3.431   4.804 -0.3457  0.1231  1.2209
 4543TIP3   OH235119   5.726   0.292  11.649 -0.8370 -0.2216  0.0123
 4543TIP3    H135120   5.684   0.369  11.610  2.2541  1.9276  0.5961
 4543TIP3    H235121   5.781   0.257  11.579 -1.1932 -1.1290  0.1680
 4544TIP3   OH235122   1.692   4.770   5.492 -0.3166 -0.1999 -0.0267
 4544TIP3    H135123   1.666   4.736   5.577  0.3906 -0.1953  0.1992
 4544TIP3    H235124   1.678   4.865   5.498  2.1011  0.1747  1.0073
 4545TIP3   OH235125   0.277   5.724   2.169  0.0861  0.1171 -0.1434
 4545TIP3    H135126   0.280   5.751   2.261  0.4032 -0.5548  0.0457
 4545TIP3    H235127   0.306   5.802   2.121  3.2475 -0.4980  0.5368
 4546TIP3   OH235128   4.995   0.962   2.717  0.3370 -0.7885  0.1754
 4546TIP3    H135129   5.035   0.902   2.780  1.0394 -0.3527  0.1655
 4546TIP3    H235130   5.059   1.033   2.709  0.4032 -0.9838 -1.2450
 4547TIP3   OH235131   2.842   3.065   1.665 -0.4442 -0.0282  0.3469
 4547TIP3    H135132   2.885   3.088   1.583 -1.1831 -0.3988 -0.1558
 4547TIP3    H235133   2.862   3.138   1.724 -3.9343  2.8229 -1.5996
 4548TIP3   OH235134   6.284   3.173  14.276 -0.2405 -0.6112  0.3555
 4548TIP3    H135135   6.228   3.198  14.350  0.8569  2.0049  0.4043
 4548TIP3    H235136   6.224   3.157  14.204 -1.1686 -0.0134  0.9826
 4549TIP3   OH235137   2.381   2.083  17.118  0.1306  0.7594  0.4854
 4549TIP3    H135138   2.371   2.099  17.024  2.5866 -2.7313 -0.5697
 4549TIP3    H235139   2.474   2.067  17.130 -0.2168  0.3864  3.4097
 4550TIP3   OH235140   3.996   2.155   1.643  0.5322 -0.2138  0.5447
 4550TIP3    H135141   3.914   2.113   1.667  0.5196  0.3290  1.5291
 4550TIP3    H235142   4.053   2.143   1.719  0.2387  2.2486  1.2522
 4551TIP3   OH235143   2.656   6.480  16.340  0.5402 -0.9017 -0.2873
 4551TIP3    H135144   2.603   6.533  16.281 -0.8378 -1.9311 -0.0036
 4551TIP3    H235145   2.657   6.393  16.301  0.7600 -1.2613  0.4936
 4552TIP3   OH235146   0.043   1.713  15.930  0.8960  0.0646  0.8072
 4552TIP3    H135147   0.081   1.800  15.923  2.9470 -0.9178 -1.4424
 4552TIP3    H235148  -0.042   1.720  15.885  1.4588  0.7140 -0.1861
 4553TIP3   OH235149   5.693   2.677   0.959  0.2638  0.3796 -0.6878
 4553TIP3    H135150   5.667   2.769   0.967 -0.5061  0.1504 -0.4386
 4553TIP3    H235151   5.724   2.669   0.869  2.3304  1.3602 -0.1358
 4554TIP3   OH235152   5.358   1.368  16.608 -0.4625  0.6132 -0.2744
 4554TIP3    H135153   5.301   1.311  16.660  0.5028  0.8365  1.0940
 4554TIP3    H235154   5.312   1.452  16.606 -1.1230  0.2421 -0.9040
 4555TIP3   OH235155   4.825   2.446  12.357  0.6340  0.3639  0.4216
 4555TIP3    H135156   4.898   2.387  12.378  1.0150 -0.1116 -1.9600
 4555TIP3    H235157   4.747   2.398  12.382  0.9994 -0.6407 -0.3273
 4556TIP3   OH235158   4.575   4.056  14.452 -0.2274 -0.1119 -0.0672
 4556TIP3    H135159   4.490   4.058  14.408  0.7633  1.0715 -2.0683
 4556TIP3    H235160   4.617   3.976  14.419  1.2052  1.6363 -2.8608
 4557TIP3   OH235161   2.138   5.034   4.368 -0.2702  1.0467 -0.4920
 4557TIP3    H135162   2.073   4.967   4.345 -0.4085  1.4054 -1.1756
 4557TIP3    H235163   2.220   5.001   4.333 -0.7297  2.3009 -3.0480
 4558TIP3   OH235164   1.221   1.249   3.367  0.2171 -0.4646  0.0502
 4558TIP3    H135165   1.286   1.238   3.437  1.8213  1.2197 -1.0724
 4558TIP3    H235166   1.148   1.294   3.409  1.4530  1.1822  0.5724
 4559TIP3   OH235167   6.337   1.857  17.226 -0.1049  0.3700 -0.3201
 4559TIP3    H135168   6.285   1.911  17.287 -1.0185 -0.4117 -0.3851
 4559TIP3    H235169   6.327   1.900  17.142 -2.1968 -0.7283 -0.7155
 4560TIP3   OH235170   0.782   3.624   4.157 -0.7029  0.4887 -0.1315
 4560TIP3    H135171   0.871   3.593   4.174 -0.5909  1.2322  0.7082
 4560TIP3    H235172   0.729   3.545   4.157 -0.7197  0.2930  3.7629
 4561TIP3   OH235173   2.047   1.693   5.259 -0.2512 -0.0845  0.4206
 4561TIP3    H135174   2.073   1.601   5.248  0.4229  0.2041 -0.5069
 4561TIP3    H235175   2.130   1.741   5.260 -0.6199  0.5603  0.4113
 4562TIP3   OH235176   5.786   4.476  16.278  0.2925  0.1087 -0.1347
 4562TIP3    H135177   5.775   4.419  16.202 -0.6814  0.2186 -0.0860
 4562TIP3    H235178   5.751   4.426  16.351 -0.3381  0.6639 -0.0498
 4563TIP3   OH235179   5.640   4.240   0.088 -0.3291  0.3289 -0.7031
 4563TIP3    H135180   5.604   4.243  -0.001 -0.8147  0.9816 -0.4971
 4563TIP3    H235181   5.672   4.150   0.098  0.8616  0.5689 -1.9662
 4564TIP3   OH235182   1.998   3.828  16.107 -0.3742  0.3819 -0.6963
 4564TIP3    H135183   1.916   3.789  16.078 -0.7513  0.4979  0.1956
 4564TIP3    H235184   2.064   3.761  16.088 -0.4153  0.8777 -2.8422
 4565TIP3   OH235185   1.283   2.346   0.213  0.6425  0.0367  0.3827
 4565TIP3    H135186   1.312   2.283   0.147 -0.2331  0.5533 -0.5225
 4565TIP3    H235187   1.305   2.305   0.297 -0.8985 -2.0125 -0.1262
 4566TIP3   OH235188   3.049   3.500  14.360  0.2528  0.1670 -0.4610
 4566TIP3    H135189   3.117   3.541  14.413  0.8865 -0.3848 -0.8353
 4566TIP3    H235190   3.059   3.407  14.376  1.2716 -0.1331 -2.4551
 4567TIP3   OH235191   0.968   1.753   6.291  0.0145 -0.1129 -0.4069
 4567TIP3    H135192   0.987   1.777   6.201  1.2059 -0.9769 -0.4131
 4567TIP3    H235193   1.051   1.718   6.324 -0.9282 -1.6633  0.4069
 4568TIP3   OH235194   4.749   0.049   1.155  0.4849  0.7659 -0.1626
 4568TIP3    H135195   4.753   0.020   1.246  3.4867  0.6449 -0.2353
 4568TIP3    H235196   4.817  -0.000   1.110  0.0545  1.8670 -2.1768
 4569TIP3   OH235197   4.294   5.173   0.193 -0.2156  0.2938  0.1226
 4569TIP3    H135198   4.238   5.107   0.153  2.2200 -1.7391 -0.2026
 4569TIP3    H235199   4.245   5.205   0.268 -1.6209 -1.6701  0.0922
 4570TIP3   OH235200   1.775   2.760  14.688  0.0614  0.0705  0.9874
 4570TIP3    H135201   1.755   2.850  14.662  2.0277  0.0721 -0.8428
 4570TIP3    H235202   1.714   2.706  14.638  0.6440  0.3020  0.0005
 4571TIP3   OH235203   0.083   1.415   6.091  0.0752 -0.1332  0.4688
 4571TIP3    H135204   0.020   1.483   6.115 -1.0911 -1.5043  1.4413
 4571TIP3    H235205   0.152   1.422   6.157 -0.1477 -0.0369  0.6921
 4572TIP3   OH235206   6.201   3.175  13.595 -0.6566  0.1631  0.4364
 4572TIP3    H135207   6.252   3.252  13.617 -0.9144  0.8959 -1.3424
 4572TIP3    H235208   6.223   3.157  13.503  1.1969 -3.2954  1.3811
 4573TIP3   OH235209   5.235   5.886  17.080 -0.4591 -0.0224  0.2069
 4573TIP3    H135210   5.197   5.892  17.168 -1.2500 -0.1697 -0.1123
 4573TIP3    H235211   5.235   5.976  17.048 -0.5813 -0.0271  0.1928
 4574TIP3   OH235212   1.986   0.143  10.856  0.2401  0.2347  0.3552
 4574TIP3    H135213   2.070   0.158  10.900 -0.2654 -0.1491  1.5141
 4574TIP3    H235214   1.996   0.058  10.814  0.8892  0.8124 -0.7073
 4575TIP3   OH235215   4.603   1.902   4.734 -0.3395  0.6913  0.3851
 4575TIP3    H135216   4.549   1.977   4.710  0.0445  0.9503  0.3125
 4575TIP3    H235217   4.563   1.828   4.689 -1.4470  0.6221  1.4374
 4576TIP3   OH235218   3.659   6.098  10.736  0.0667 -0.3698 -0.3498
 4576TIP3    H135219   3.727   6.063  10.793  0.6127  0.4720 -0.4608
 4576TIP3    H235220   3.646   6.030  10.669 -0.2275 -1.1457  0.4861
 4577TIP3   OH235221   0.114   2.640   0.677 -0.3076 -0.1263 -0.3658
 4577TIP3    H135222   0.030   2.632   0.721  0.2309  0.5585  0.8148
 4577TIP3    H235223   0.111   2.572   0.609 -1.0812 -1.3578  0.8382
 4578TIP3   OH235224   4.649   0.728  12.104 -0.7652  0.2234  0.2729
 4578TIP3    H135225   4.555   0.716  12.115 -1.0318  1.0929 -0.7908
 4578TIP3    H235226   4.681   0.645  12.068 -1.1523 -0.0309  0.5223
 4579TIP3   OH235227   0.140   2.616  13.688 -0.1981  0.1683  0.0203
 4579TIP3    H135228   0.132   2.557  13.763 -1.7746  1.5255  1.0086
 4579TIP3    H235229   0.208   2.678  13.714  0.2758 -0.2071 -0.3068
 4580TIP3   OH235230   1.368   1.465  11.217  0.4934  0.3699  0.0891
 4580TIP3    H135231   1.360   1.450  11.311  2.2369 -0.7917  0.0796
 4580TIP3    H235232   1.308   1.401  11.177  0.4448  0.2435  0.3676
 4581TIP3   OH235233   4.889   5.922   0.719 -0.0804  0.0741  0.3679
 4581TIP3    H135234   4.961   5.909   0.781  0.4981 -2.1253 -0.6765
 4581TIP3    H235235   4.816   5.872   0.757 -0.0454 -0.3951 -0.1643
 4582TIP3   OH235236   2.659   4.302   3.938 -0.4308 -0.0772  0.0107
 4582TIP3    H135237   2.687   4.306   4.030 -0.3423 -0.7038  0.0174
 4582TIP3    H235238   2.593   4.232   3.937  2.1121 -2.6408 -1.0332
 4583TIP3   OH235239   1.055   2.757   4.320 -0.2932  0.3814 -0.3780
 4583TIP3    H135240   1.059   2.766   4.415 -0.5631  1.1360 -0.4293
 4583TIP3    H235241   1.090   2.840   4.286  0.2939 -0.0860 -0.9449
 4584TIP3   OH235242   0.677   0.645  14.936  0.2111  0.4675 -0.2051
 4584TIP3    H135243   0.644   0.733  14.954 -0.4348  0.0218  0.8718
 4584TIP3    H235244   0.746   0.631  15.001 -1.4564 -0.7710  1.4198
 4585TIP3   OH235245   3.354   3.241  15.830  0.4469 -0.0323 -0.3310
 4585TIP3    H135246   3.346   3.163  15.886 -1.4456  1.0880  1.0625
 4585TIP3    H235247   3.406   3.303  15.882 -1.6084  1.1423  0.4199
 4586TIP3   OH235248   6.640   2.452   5.103 -0.4391  0.3767  0.0162
 4586TIP3    H135249   6.549   2.473   5.083 -0.1233  0.7426 -1.0821
 4586TIP3    H235250   6.662   2.381   5.042 -0.0469  0.1487  0.4159
 4587TIP3   OH235251   4.600   6.751   0.958  0.7161  0.1523  0.2859
 4587TIP3    H135252   4.642   6.790   0.881  1.3975  0.8880  1.0045
 4587TIP3    H235253   4.625   6.809   1.030  0.0531 -0.4993  1.0554
 4588TIP3   OH235254   4.189   6.456   4.937  0.3790 -0.2671 -0.5395
 4588TIP3    H135255   4.197   6.488   4.847 -0.7782 -1.3899 -1.0796
 4588TIP3    H235256   4.205   6.362   4.930 -2.8042 -0.9642 -0.1624
 4589TIP3   OH235257   3.986   2.888  16.124 -0.2460 -0.2509  0.4280
 4589TIP3    H135258   4.071   2.845  16.133 -1.0864 -1.6939  2.0088
 4589TIP3    H235259   4.002   2.961  16.064  1.4870 -2.0627 -1.4465
 4590TIP3   OH235260   0.460   3.050  15.129  0.6039 -0.4953 -0.5479
 4590TIP3    H135261   0.453   3.088  15.041  1.1790  0.6165 -0.1338
 4590TIP3    H235262   0.550   3.069  15.156  0.2016 -0.1137  0.5875
 4591TIP3   OH235263   6.029   5.508  12.137  0.3897 -0.1676 -0.2591
 4591TIP3    H135264   5.976   5.458  12.199 -0.2983  0.5310 -0.2640
 4591TIP3    H235265   5.979   5.507  12.056  0.7899 -0.2056 -0.5073
 4592TIP3   OH235266   5.526   6.791  12.314  0.1909 -0.6223 -0.1710
 4592TIP3    H135267   5.581   6.836  12.378  0.8727  0.4852 -1.4788
 4592TIP3    H235268   5.436   6.814  12.339  0.5209  1.5610 -0.8197
 4593TIP3   OH235269   1.771   6.223   5.314  0.0351 -0.5399  0.4992
 4593TIP3    H135270   1.846   6.162   5.319 -0.1559 -1.0544 -1.6927
 4593TIP3    H235271   1.700   6.176   5.357 -0.1322 -2.0038 -1.2322
 4594TIP3   OH235272   2.988   5.510  14.333  0.1193 -0.1575 -0.4203
 4594TIP3    H135273   2.954   5.562  14.260 -0.2844  0.3247  0.0994
 4594TIP3    H235274   3.067   5.470  14.299  0.3737  0.7066 -0.8783
 4595TIP3   OH235275   4.007   2.654  13.387  0.2372 -0.2178  0.2086
 4595TIP3    H135276   3.974   2.609  13.309  0.0830  0.8945 -0.3889
 4595TIP3    H235277   4.056   2.586  13.434  0.4592 -0.8790 -0.9262
 4596TIP3   OH235278   3.887   6.502  13.759 -0.1302  0.4486  0.2258
 4596TIP3    H135279   3.950   6.527  13.692 -1.1512  1.5081 -0.3735
 4596TIP3    H235280   3.844   6.424  13.724  0.6144 -0.0832  0.4903
 4597TIP3   OH235281   3.315   3.225  14.173  0.3079 -0.0615  0.2775
 4597TIP3    H135282   3.387   3.168  14.148 -0.9253 -1.8482  0.6146
 4597TIP3    H235283   3.330   3.306  14.124  1.1860 -1.2914 -1.5957
 4598TIP3   OH235284   3.581   2.922   0.071 -0.1973 -0.7841  0.4244
 4598TIP3    H135285   3.580   3.017   0.061  1.1631 -0.7996 -0.0520
 4598TIP3    H235286   3.498   2.893   0.034 -2.0416  0.4207  3.2925
 4599TIP3   OH235287   5.538   4.964   6.079 -0.5090 -0.2523 -0.0630
 4599TIP3    H135288   5.456   4.965   6.029  0.0919  0.4969 -1.0898
 4599TIP3    H235289   5.527   4.894   6.143 -3.1375  1.7168  1.8625
 4600TIP3   OH235290   0.214   2.034  16.891 -0.3320  0.1235  0.1347
 4600TIP3    H135291   0.272   2.104  16.920 -1.4346  0.6914  1.0268
 4600TIP3    H235292   0.235   1.960  16.949  0.9525 -0.3766 -0.9207
 4601TIP3   OH235293   4.963   6.127  14.855 -0.7142 -0.4821  0.2330
 4601TIP3    H135294   5.035   6.172  14.811 -0.1104 -1.9176 -0.2800
 4601TIP3    H235295   4.938   6.056  14.796 -2.2780 -0.2858  0.5971
 4602TIP3   OH235296   1.322   4.625   5.133 -0.2136  0.3163 -0.0074
 4602TIP3    H135297   1.411   4.624   5.099 -0.6856  0.6201 -1.3350
 4602TIP3    H235298   1.331   4.611   5.227  1.1405 -0.8744 -0.2869
 4603TIP3   OH235299   4.841   5.019  16.006 -0.2132 -0.8774  0.8665
 4603TIP3    H135300   4.873   4.929  16.002 -1.9278 -1.4795 -1.3386
 4603TIP3    H235301   4.765   5.020  15.948  0.8706  2.4586 -0.7545
 4604TIP3   OH235302   3.495   6.455   0.238 -0.4579 -0.2002  0.3664
 4604TIP3    H135303   3.411   6.459   0.191 -0.8967 -0.4755  1.1098
 4604TIP3    H235304   3.561   6.465   0.170 -1.0973  3.5504  0.1264
 4605TIP3   OH235305   4.831   4.795  14.594  0.7189  0.0758 -0.1280
 4605TIP3    H135306   4.826   4.820  14.686 -1.5003 -0.4149 -0.0522
 4605TIP3    H235307   4.827   4.877  14.546 -0.9691  0.2065  0.1951
 4606TIP3   OH235308   5.993   4.730  11.242 -0.5645  0.4810  0.3470
 4606TIP3    H135309   5.955   4.775  11.167  2.2922  3.4142  0.4381
 4606TIP3    H235310   6.009   4.641  11.211 -2.5714  0.6332 -1.3232
 4607TIP3   OH235311   4.247   5.409  14.206 -0.1060 -0.2552 -0.4269
 4607TIP3    H135312   4.202   5.461  14.140  0.5733  0.9600  0.0281
 4607TIP3    H235313   4.179   5.390  14.272 -0.0821  1.2472  0.0752
 4608TIP3   OH235314   2.849   6.113   4.909  0.5920  0.3770 -0.3877
 4608TIP3    H135315   2.925   6.102   4.852  0.0663  1.0740 -1.2475
 4608TIP3    H235316   2.878   6.080   4.994  1.5724 -0.1657 -0.9141
 4609TIP3   OH235317   5.040   6.480  16.609  0.7093  0.5863  0.2789
 4609TIP3    H135318   5.117   6.446  16.655  0.3750 -0.4424  0.1065
 4609TIP3    H235319   5.070   6.564  16.572  1.6663  0.3318  0.4311
 4610TIP3   OH235320   0.841   1.847   2.328  0.0375 -0.0676  0.0790
 4610TIP3    H135321   0.746   1.858   2.329  0.1335  0.8808  1.6198
 4610TIP3    H235322   0.876   1.936   2.325  0.8334 -0.2042  2.7575
 4611TIP3   OH235323   1.357   0.965   6.352 -0.8412  0.7003 -0.3847
 4611TIP3    H135324   1.274   0.999   6.385 -0.6237  0.1309  0.8089
 4611TIP3    H235325   1.393   1.036   6.299 -1.4719  1.4471  0.1644
 4612TIP3   OH235326   2.176   3.904  14.495 -0.4632  0.0978  0.0582
 4612TIP3    H135327   2.207   3.899  14.405 -3.0954 -1.8126 -0.8872
 4612TIP3    H235328   2.216   3.983  14.530  3.2618 -0.7931 -1.6761
 4613TIP3   OH235329   6.294   6.092  14.648  0.2522 -0.4637 -0.5262
 4613TIP3    H135330   6.199   6.084  14.634 -0.1638  1.1121  1.0151
 4613TIP3    H235331   6.332   6.080  14.562 -1.1060 -3.9468 -0.8066
 4614TIP3   OH235332   5.946   0.177   4.289 -0.0820  0.6064 -0.5481
 4614TIP3    H135333   5.867   0.131   4.314 -0.2741  1.5268  0.5988
 4614TIP3    H235334   5.978   0.217   4.370 -0.9061  3.9516 -1.6904
 4615TIP3   OH235335   4.905   0.552  12.694  0.4819 -0.6665  0.2208
 4615TIP3    H135336   4.986   0.557  12.644  1.0553  0.0995  1.1946
 4615TIP3    H235337   4.859   0.634  12.675  0.3179 -0.7362  0.3085
 4616TIP3   OH235338   6.049   3.520  17.169 -0.2302  0.3059  0.7240
 4616TIP3    H135339   6.024   3.497  17.079 -0.5300  0.1258  0.8540
 4616TIP3    H235340   6.124   3.579  17.158 -0.0036 -0.0445  0.3648
 4617TIP3   OH235341   1.261   1.705  14.225 -0.0855 -0.0348 -0.2125
 4617TIP3    H135342   1.331   1.700  14.159  0.7304  0.9324  0.5617
 4617TIP3    H235343   1.180   1.704  14.173  0.5155 -0.1870 -1.1792
 4618TIP3   OH235344   2.096   6.096   0.723  0.2748  0.1154  0.5500
 4618TIP3    H135345   2.028   6.137   0.777  0.2897 -1.1187  1.5653
 4618TIP3    H235346   2.092   6.003   0.747  1.9360 -0.0769  0.2024
 4619TIP3   OH235347   0.330   1.781   4.994 -0.2698 -0.2457  0.0334
 4619TIP3    H135348   0.264   1.798   4.927  0.2433  0.8691 -0.2202
 4619TIP3    H235349   0.406   1.834   4.967  0.7304 -1.4942  0.3129
 4620TIP3   OH235350   3.849   5.180  12.717 -0.0717  0.0804 -0.2188
 4620TIP3    H135351   3.938   5.168  12.684 -0.5367 -1.8215 -0.9060
 4620TIP3    H235352   3.861   5.218  12.805  1.2625  2.6795 -1.4146
 4621TIP3   OH235353   1.238   5.276   5.371  0.1303  0.2646 -0.0035
 4621TIP3    H135354   1.251   5.297   5.463 -2.7571  0.1050  0.5519
 4621TIP3    H235355   1.260   5.357   5.324 -0.0451  0.9159  1.0179
 4622TIP3   OH235356   2.371   4.201  17.162  0.1804  0.1790 -0.0867
 4622TIP3    H135357   2.402   4.204  17.252  1.3230 -1.9285 -0.3583
 4622TIP3    H235358   2.393   4.287  17.127  0.3853  0.7767  1.4192
 4623TIP3   OH235359   4.305   2.306   5.036 -0.2104 -0.0118  0.3127
 4623TIP3    H135360   4.251   2.237   5.075  0.8974 -0.3126  1.3594
 4623TIP3    H235361   4.348   2.263   4.962  1.9348 -1.0365  2.0706
 4624TIP3   OH235362   1.925   4.452  12.867 -0.2166  0.2088  0.1803
 4624TIP3    H135363   1.952   4.540  12.841  0.6609 -0.1929 -0.3228
 4624TIP3    H235364   1.947   4.447  12.961  0.5202  0.2510  0.0204
 4625TIP3   OH235365   5.304   3.676  10.817  0.5237 -0.0184  0.0572
 4625TIP3    H135366   5.359   3.646  10.745  1.2696  1.4965 -0.0381
 4625TIP3    H235367   5.366   3.712  10.881 -0.1973 -0.4403  1.0340
 4626TIP3   OH235368   0.134   2.635  13.426  0.4370  0.3353  0.2307
 4626TIP3    H135369   0.045   2.638  13.391  1.0261 -0.8606 -1.5077
 4626TIP3    H235370   0.122   2.624  13.520 -1.3259 -2.9069 -0.2252
 4627TIP3   OH235371   6.167   2.649  13.094  0.5168  0.3520 -0.0198
 4627TIP3    H135372   6.143   2.736  13.062  1.6176  0.4579 -0.6265
 4627TIP3    H235373   6.106   2.589  13.052  1.9457  0.4788 -2.4484
 4628TIP3   OH235374   2.884   1.943   1.501  0.1502 -0.2164  0.3425
 4628TIP3    H135375   2.909   2.034   1.513  1.3335 -0.6199  1.1660
 4628TIP3    H235376   2.878   1.931   1.407  2.3365  0.1439  0.1168
 4629TIP3   OH235377   0.557   3.001  13.902 -0.0314  0.3232 -0.3522
 4629TIP3    H135378   0.513   3.085  13.888  0.9848  1.0889  0.7815
 4629TIP3    H235379   0.631   3.003  13.841  0.1863  0.4165 -0.0896
 4630TIP3   OH235380   3.332   0.460   4.591  0.4479 -0.7636  0.7505
 4630TIP3    H135381   3.269   0.481   4.660 -1.2752  1.8822 -1.4225
 4630TIP3    H235382   3.352   0.544   4.550  2.1881 -2.0841 -1.3538
 4631TIP3   OH235383   2.227   3.176   0.226  0.4681  0.2049  0.0285
 4631TIP3    H135384   2.212   3.100   0.169  0.0747  0.6197 -0.4258
 4631TIP3    H235385   2.232   3.250   0.167  4.1165  0.2001  0.1123
 4632TIP3   OH235386   5.075   4.276   1.785  0.1140  0.1005  0.5264
 4632TIP3    H135387   5.075   4.372   1.793 -1.0782  0.2991 -1.2432
 4632TIP3    H235388   4.996   4.257   1.735  0.3217 -1.8342  0.8825
 4633TIP3   OH235389   5.107   0.518   4.949  0.1177  0.5878 -0.3773
 4633TIP3    H135390   5.026   0.543   4.994  1.2810 -0.0457  2.2641
 4633TIP3    H235391   5.086   0.435   4.906 -0.7681  0.6529 -0.0894
 4634TIP3   OH235392   5.169   2.940  12.558 -0.6214  0.0971 -0.1953
 4634TIP3    H135393   5.235   2.881  12.523  1.2991  2.7416 -1.3837
 4634TIP3    H235394   5.097   2.936  12.495 -0.1656 -0.3412 -0.6938
 4635TIP3   OH235395   6.226   2.676   5.171 -0.0908 -0.1977  0.4785
 4635TIP3    H135396   6.149   2.732   5.178  0.3444  0.6284 -0.9277
 4635TIP3    H235397   6.192   2.587   5.170 -0.8227  0.0349  2.3968
 4636TIP3   OH235398   4.601   3.722   1.867 -0.1124 -0.0717 -0.2366
 4636TIP3    H135399   4.540   3.676   1.925  3.8580 -2.9303  2.2644
 4636TIP3    H235400   4.629   3.798   1.918  0.3273 -0.2719 -0.1741
 4637TIP3   OH235401   4.641   1.946  14.699  0.1270  0.6928  0.0873
 4637TIP3    H135402   4.681   1.866  14.734 -1.5125 -1.6948 -3.0371
 4637TIP3    H235403   4.716   2.000  14.673  1.2789  0.4136  2.5308
 4638TIP3   OH235404   6.279   6.336  11.194  0.0719  0.2509 -0.1812
 4638TIP3    H135405   6.263   6.397  11.122  1.3804  1.4998  0.5544
 4638TIP3    H235406   6.324   6.262  11.154 -1.9754 -0.5339 -1.1732
 4639TIP3   OH235407   0.116   4.197  14.298 -0.0464 -0.1042  0.0152
 4639TIP3    H135408   0.093   4.289  14.282  4.1463  2.0216  3.8006
 4639TIP3    H235409   0.169   4.172  14.222  0.9007  1.6161  0.0641
 4640TIP3   OH235410   0.352   5.192  16.366 -0.2948 -0.1006  0.0856
 4640TIP3    H135411   0.411   5.159  16.298  1.8017  0.9135  1.3173
 4640TIP3    H235412   0.404   5.187  16.446 -2.1400  0.2485  1.3385
 4641TIP3   OH235413   5.368   4.917  12.143 -0.1687  0.2027  0.1588
 4641TIP3    H135414   5.309   4.992  12.147 -1.1876 -0.5567 -0.0380
 4641TIP3    H235415   5.312   4.844  12.114  0.8528 -0.5629  0.0419
 4642TIP3   OH235416   4.537   0.014  16.844  0.6001 -0.0064  0.6096
 4642TIP3    H135417   4.606   0.075  16.866  1.1969  0.4534 -2.1443
 4642TIP3    H235418   4.466   0.069  16.809 -0.2597 -0.6421  1.3069
 4643TIP3   OH235419   4.099   6.633  14.461  0.2787 -0.2587 -0.0805
 4643TIP3    H135420   4.037   6.620  14.390  0.0873 -0.5156  0.1307
 4643TIP3    H235421   4.060   6.588  14.536  0.3970  0.1490  0.2329
 4644TIP3   OH235422   5.690   4.021   3.954 -0.3212  0.1637  0.1375
 4644TIP3    H135423   5.667   4.111   3.929 -1.5959 -0.3785 -0.7258
 4644TIP3    H235424   5.704   3.976   3.871 -0.1278 -0.5530  0.5558
 4645TIP3   OH235425   2.500   4.512   4.974  0.5047  0.2841  0.4975
 4645TIP3    H135426   2.547   4.595   4.981  1.5601 -0.2331 -0.2888
 4645TIP3    H235427   2.410   4.538   4.951  0.8756  1.2012  0.0113
 4646TIP3   OH235428   1.559   6.229  10.655  0.0367  0.5211 -0.7434
 4646TIP3    H135429   1.615   6.169  10.605  1.0332  1.3293 -0.6269
 4646TIP3    H235430   1.479   6.236  10.603 -0.4897 -1.6129 -0.3006
 4647TIP3   OH235431   3.913   3.816  13.708 -0.3733  0.3798 -0.6982
 4647TIP3    H135432   3.973   3.756  13.664  0.6830  0.8262  0.0868
 4647TIP3    H235433   3.836   3.763  13.729  0.0036 -0.3580 -1.1731
 4648TIP3   OH235434   0.595   1.973   2.434 -0.3848  0.5372 -0.2231
 4648TIP3    H135435   0.613   2.037   2.502  0.7988 -2.0623  2.0757
 4648TIP3    H235436   0.514   1.931   2.461 -0.1848 -0.1821 -0.7094
 4649TIP3   OH235437   1.415   2.757  16.687  0.2059  0.4483  0.3781
 4649TIP3    H135438   1.417   2.852  16.678  4.6393  0.6095  0.7702
 4649TIP3    H235439   1.426   2.724  16.598  0.5095  0.3995  0.4321
 4650TIP3   OH235440   4.623   0.411   2.864 -0.1925 -0.4425 -0.6119
 4650TIP3    H135441   4.578   0.493   2.845 -0.5693 -0.7175 -0.9261
 4650TIP3    H235442   4.695   0.436   2.922  0.1021  0.2010 -1.2416
 4651TIP3   OH235443   3.763   0.530   0.280  0.1849 -0.1294 -0.0288
 4651TIP3    H135444   3.747   0.583   0.359  3.0791 -1.2802  1.4893
 4651TIP3    H235445   3.725   0.581   0.209  1.3314  3.2353  1.5537
 4652TIP3   OH235446   0.593   2.549   3.026 -0.3700 -0.2560  0.2497
 4652TIP3    H135447   0.555   2.543   2.938 -0.1529 -1.5908  0.2121
 4652TIP3    H235448   0.651   2.472   3.032  1.1149  0.8563  0.8721
 4653TIP3   OH235449   4.420   1.612   1.851  0.0497 -0.2081 -0.0510
 4653TIP3    H135450   4.349   1.575   1.903 -0.1250  0.4592  0.2006
 4653TIP3    H235451   4.498   1.565   1.878  0.0318  0.4181  1.1307
 4654TIP3   OH235452   6.696   4.385  15.470  0.6760 -0.2278 -0.3808
 4654TIP3    H135453   6.775   4.364  15.521 -0.0657 -0.3998  0.7332
 4654TIP3    H235454   6.722   4.459  15.415  1.3866  0.2670  0.5781
 4655TIP3   OH235455   0.499   6.111  11.925  0.1482 -0.0411 -0.0934
 4655TIP3    H135456   0.430   6.052  11.892  0.9073 -0.7719 -0.4181
 4655TIP3    H235457   0.451   6.185  11.961 -0.7810  0.0178 -1.3619
 4656TIP3   OH235458   4.948   6.077   3.761 -0.1155  0.1413 -0.3335
 4656TIP3    H135459   5.037   6.047   3.778 -0.0061  0.5565 -0.1547
 4656TIP3    H235460   4.952   6.120   3.676  0.4311  2.3836  0.7543
 4657TIP3   OH235461   2.194   6.669  11.768  0.0859 -0.4055 -0.2530
 4657TIP3    H135462   2.282   6.641  11.741  0.2997  1.5467 -1.8580
 4657TIP3    H235463   2.139   6.592  11.756  1.0007 -0.7932 -2.4141
 4658TIP3   OH235464   4.958   5.443   5.731  0.4725 -0.6283 -0.1090
 4658TIP3    H135465   4.984   5.522   5.683 -2.1965  0.9064  0.7641
 4658TIP3    H235466   4.982   5.371   5.673  0.2727  0.9739 -2.3158
 4659TIP3   OH235467   0.146   2.527   1.861 -0.7622  0.5492 -0.3161
 4659TIP3    H135468   0.055   2.498   1.863 -1.7383  3.2840  0.3043
 4659TIP3    H235469   0.156   2.570   1.775 -1.1848  3.1349  0.8152
 4660TIP3   OH235470   4.317   1.938   1.261 -0.0737  0.3571 -0.4213
 4660TIP3    H135471   4.374   1.867   1.293  2.3038  2.5840  0.6377
 4660TIP3    H235472   4.268   1.965   1.339 -0.1192  0.6329 -0.5471
 4661TIP3   OH235473   1.828   1.222  13.908 -0.6384 -0.5964  0.7442
 4661TIP3    H135474   1.871   1.284  13.849 -1.1779 -0.7352  0.1878
 4661TIP3    H235475   1.842   1.257  13.995  1.7987 -1.3398  0.7383
 4662TIP3   OH235476   6.290   4.198   4.130 -0.1629 -0.5099 -0.3446
 4662TIP3    H135477   6.309   4.284   4.093 -2.7046  1.0031  1.5265
 4662TIP3    H235478   6.230   4.158   4.068  1.3414 -1.2109 -1.4274
 4663TIP3   OH235479   2.200   0.391  13.551 -0.6790 -0.4027 -0.2667
 4663TIP3    H135480   2.193   0.406  13.645 -0.7197 -1.5878 -0.0661
 4663TIP3    H235481   2.287   0.354  13.538 -1.0189 -1.1372 -0.5485
 4664TIP3   OH235482   6.038   1.690   0.167 -0.0093 -0.2146 -0.1148
 4664TIP3    H135483   6.003   1.778   0.181  0.5946  0.2513 -1.3134
 4664TIP3    H235484   5.981   1.653   0.099  1.1428  0.1754 -1.3487
 4665TIP3   OH235485   4.837   0.483  11.795 -0.2093 -0.5347  0.5087
 4665TIP3    H135486   4.883   0.423  11.736 -1.2988 -0.6080 -0.2976
 4665TIP3    H235487   4.878   0.568  11.779  1.2222 -0.9924  1.5282
 4666TIP3   OH235488   6.549   5.775   1.493 -0.4402 -0.1936  0.0355
 4666TIP3    H135489   6.525   5.685   1.513 -1.9969  0.2193  0.2166
 4666TIP3    H235490   6.509   5.826   1.564 -1.0711  0.7686 -0.9717
 4667TIP3   OH235491   0.109   6.345  11.855 -0.3836 -0.2135 -0.6140
 4667TIP3    H135492   0.175   6.409  11.828  0.2560 -0.0516  1.2222
 4667TIP3    H235493   0.122   6.271  11.795  1.6225 -0.2601 -0.1742
 4668TIP3   OH235494   1.909   6.030  12.591 -0.0015  0.0012 -0.1720
 4668TIP3    H135495   1.910   6.115  12.547  0.5184  0.2397  0.2926
 4668TIP3    H235496   2.001   6.002  12.590 -0.3472 -1.1491 -1.4538
 4669TIP3   OH235497   1.974   1.990  15.016  0.4101  0.2708 -0.2246
 4669TIP3    H135498   2.024   1.963  14.940  1.2861  0.9908  0.0717
 4669TIP3    H235499   2.037   2.038  15.071 -0.8348  2.2306 -0.3794
 4670TIP3   OH235500   5.866   0.475  10.470  0.2210  0.3000 -0.1844
 4670TIP3    H135501   5.806   0.402  10.456  2.4323 -1.7906  0.4442
 4670TIP3    H235502   5.826   0.549  10.425 -2.6449 -1.0117  0.0298
 4671TIP3   OH235503   4.798   2.388  15.237 -0.7958  0.4922 -0.1706
 4671TIP3    H135504   4.880   2.407  15.282 -0.4812 -3.3605  1.1815
 4671TIP3    H235505   4.805   2.435  15.154  2.8214  0.2508 -0.1316
 4672TIP3   OH235506   6.277   5.751   5.736 -0.0456 -0.0877  0.4733
 4672TIP3    H135507   6.242   5.785   5.818 -1.2120 -0.7030  0.2445
 4672TIP3    H235508   6.295   5.829   5.683 -0.4618  0.2611  0.8424
 4673TIP3   OH235509   2.727   3.032  16.206  0.4307  0.1449 -0.1498
 4673TIP3    H135510   2.692   2.993  16.286  1.9645 -0.7926  0.1063
 4673TIP3    H235511   2.739   3.124  16.227  1.1981 -0.1689  0.8522
 4674TIP3   OH235512   0.409   4.428  11.222 -0.7658  0.0823  0.1181
 4674TIP3    H135513   0.351   4.357  11.194 -0.2384 -0.7981  1.1254
 4674TIP3    H235514   0.373   4.507  11.183 -2.1073 -0.5729 -0.0169
 4675TIP3   OH235515   1.376   2.226   5.681  0.7942  0.3478 -0.0678
 4675TIP3    H135516   1.401   2.282   5.609 -0.3529 -0.7102 -1.3506
 4675TIP3    H235517   1.407   2.139   5.656 -0.9178 -0.3156 -0.0489
 4676TIP3   OH235518   4.409   6.153   2.653 -0.1145  0.3672 -0.2800
 4676TIP3    H135519   4.356   6.200   2.717  1.5485  0.3597  1.1877
 4676TIP3    H235520   4.354   6.147   2.576 -1.9199  1.0577  0.8908
 4677TIP3   OH235521   6.727   4.619   0.385  0.4865  0.4322  0.0278
 4677TIP3    H135522   6.783   4.554   0.427  1.9361  0.1434 -2.2078
 4677TIP3    H235523   6.704   4.580   0.301 -2.6661  0.7927  0.5965
 4678TIP3   OH235524   1.199   1.589  14.746  0.5375  0.4872 -0.3846
 4678TIP3    H135525   1.199   1.553  14.657  2.0541  1.5776 -0.8828
 4678TIP3    H235526   1.251   1.670  14.738  0.4815  0.7312  1.4427
 4679TIP3   OH235527   0.780   5.117   5.860  0.1585  0.2567 -0.0674
 4679TIP3    H135528   0.793   5.105   5.954  1.0384 -2.0321 -0.4009
 4679TIP3    H235529   0.687   5.097   5.846  0.1874 -0.1252  0.2545
 4680TIP3   OH235530   5.341   4.278  15.552 -0.3450 -0.3097  0.0751
 4680TIP3    H135531   5.339   4.365  15.514 -0.2755 -0.2275  0.2554
 4680TIP3    H235532   5.390   4.289  15.634  1.3586 -0.8742 -0.8249
 4681TIP3   OH235533   3.403   4.461  13.834  0.2302  0.3182  0.1143
 4681TIP3    H135534   3.368   4.390  13.781  0.1180 -0.1213  0.7706
 4681TIP3    H235535   3.347   4.536  13.813 -0.9947 -0.3140  0.9720
 4682TIP3   OH235536   6.357   5.590   5.349  0.0090 -0.5317 -0.0663
 4682TIP3    H135537   6.361   5.685   5.344  0.5419 -0.4719  1.1281
 4682TIP3    H235538   6.277   5.572   5.399  0.7924 -0.6319  1.1844
 4683TIP3   OH235539   3.546   1.090  11.175 -0.4752 -0.2922 -0.0655
 4683TIP3    H135540   3.524   1.098  11.082  0.3054 -0.1110 -0.2429
 4683TIP3    H235541   3.461   1.085  11.219 -0.8583 -0.2441 -0.7727
 4684TIP3   OH235542   5.270   5.352  14.347 -0.3233 -0.2041  0.2075
 4684TIP3    H135543   5.214   5.413  14.299  1.3811  1.2731  0.0187
 4684TIP3    H235544   5.218   5.328  14.425 -0.7823  2.0165  0.6370
 4685TIP3   OH235545   3.827   5.342   3.222 -0.1066  0.4094  0.0819
 4685TIP3    H135546   3.775   5.381   3.292 -2.0412 -1.0972 -0.4358
 4685TIP3    H235547   3.909   5.316   3.265  0.6221  3.4860  0.7615
 4686TIP3   OH235548   2.301   2.474  12.567 -0.2275  0.4263  0.3105
 4686TIP3    H135549   2.287   2.431  12.651 -0.0086  0.0011  0.1298
 4686TIP3    H235550   2.363   2.545  12.587  1.0998 -0.6634  0.2307
 4687TIP3   OH235551   4.081   6.599  11.488 -0.3748  0.1852 -0.4857
 4687TIP3    H135552   4.065   6.693  11.499  0.6587  0.5081 -1.4451
 4687TIP3    H235553   4.133   6.593  11.408 -0.0406 -1.1733 -0.2020
 4688TIP3   OH235554   5.664   2.524  15.067  0.0493  0.0495  0.2742
 4688TIP3    H135555   5.694   2.557  15.152  1.6963 -1.4745  0.3359
 4688TIP3    H235556   5.719   2.568  15.003 -2.6729  2.9537 -0.3299
 4689TIP3   OH235557   5.963   1.562   1.339 -0.0379 -0.1165  0.8605
 4689TIP3    H135558   5.978   1.654   1.358  1.2093  0.3741 -1.9514
 4689TIP3    H235559   5.872   1.558   1.310 -0.1083  0.2282  1.0316
 4690TIP3   OH235560   5.780   5.078  13.898  0.9598  0.6241  0.5130
 4690TIP3    H135561   5.828   5.065  13.980  0.5064 -0.9768  0.5579
 4690TIP3    H235562   5.706   5.017  13.903 -1.1661  3.0038  0.4695
 4691TIP3   OH235563   3.743   6.735   6.103 -0.1968  0.3376 -0.0301
 4691TIP3    H135564   3.818   6.712   6.158 -0.5728 -1.3412 -0.1722
 4691TIP3    H235565   3.712   6.818   6.139  1.6715  1.0574  0.0621
 4692TIP3   OH235566   2.951   1.320   5.014 -0.6229 -0.8528 -0.0451
 4692TIP3    H135567   2.903   1.377   5.074  0.1418 -0.1157 -0.1233
 4692TIP3    H235568   2.883   1.288   4.954 -0.9057  0.9352 -0.7585
 4693TIP3   OH235569   2.514   0.913   5.161 -0.2599 -1.0580 -0.0050
 4693TIP3    H135570   2.574   0.865   5.218  0.6263 -0.9667 -0.8460
 4693TIP3    H235571   2.510   1.001   5.201 -0.2852 -1.2298  0.3771
 4694TIP3   OH235572   4.649   1.708  16.806 -0.3799  0.5047  0.0901
 4694TIP3    H135573   4.585   1.655  16.758 -1.6095  1.5655  0.5041
 4694TIP3    H235574   4.695   1.756  16.738  0.0835 -0.3573 -0.2215
 4695TIP3   OH235575   5.704   2.564  12.054 -0.1277  0.2637  0.6783
 4695TIP3    H135576   5.683   2.656  12.035 -2.1194 -0.1129  0.8086
 4695TIP3    H235577   5.619   2.519  12.051  1.1089 -2.2303 -2.6184
 4696TIP3   OH235578   6.137   2.194   1.102  0.0983  0.2126 -0.1805
 4696TIP3    H135579   6.187   2.272   1.129 -1.7457  0.9975  1.2412
 4696TIP3    H235580   6.199   2.122   1.109  0.7794  0.9522  2.7472
 4697TIP3   OH235581   1.072   4.684   4.812  0.3245  0.0903 -0.0387
 4697TIP3    H135582   1.163   4.660   4.830  0.1014 -1.6692 -0.9894
 4697TIP3    H235583   1.071   4.780   4.820  2.7201  0.3892 -1.8620
 4698TIP3   OH235584   1.257   4.769  15.643  0.6743  0.1356  0.2408
 4698TIP3    H135585   1.266   4.744  15.551  0.4839 -0.3777  0.3597
 4698TIP3    H235586   1.345   4.755  15.680  0.8241  0.6077  0.0815
 4699TIP3   OH235587   4.788   3.170   2.166  0.5060 -0.0298 -0.1414
 4699TIP3    H135588   4.810   3.245   2.111 -0.0429 -0.7168 -1.3378
 4699TIP3    H235589   4.714   3.128   2.122  0.5483 -1.0559  0.7043
 4700TIP3   OH235590   2.185   2.935   1.770 -0.1543 -0.1913  0.1287
 4700TIP3    H135591   2.124   2.944   1.843  0.0718 -0.0439  0.3022
 4700TIP3    H235592   2.266   2.973   1.803  0.7908 -2.6108  0.8109
 4701TIP3   OH235593   5.677   6.602   6.181 -0.1667  0.4040 -0.2294
 4701TIP3    H135594   5.723   6.684   6.202  2.4851 -1.4207  1.7440
 4701TIP3    H235595   5.640   6.574   6.265 -0.9804 -0.4740 -0.8652
 4702TIP3   OH235596   3.008   5.922   5.355  0.2135  0.1534 -0.2608
 4702TIP3    H135597   3.008   5.829   5.336  0.1403 -0.1272  1.0583
 4702TIP3    H235598   3.100   5.946   5.362  0.2339  0.1973 -0.6760
 4703TIP3   OH235599   3.099   1.758   3.760 -0.4408 -0.5509  0.0861
 4703TIP3    H135600   3.007   1.734   3.773 -1.6544  2.8440 -1.1111
 4703TIP3    H235601   3.137   1.757   3.848 -1.8082 -1.3035  0.6888
 4704TIP3   OH235602   3.272   6.099  15.984  0.1537 -0.2317  0.2013
 4704TIP3    H135603   3.193   6.064  16.025  0.0868 -0.4835 -0.1385
 4704TIP3    H235604   3.241   6.175  15.936  0.2927  0.2838  0.9099
 4705TIP3   OH235605   0.994   0.080   3.662 -0.4413  0.1587 -0.3758
 4705TIP3    H135606   1.025  -0.010   3.653  0.9267  0.2235  2.5916
 4705TIP3    H235607   0.937   0.078   3.739 -0.3491  1.8296 -0.2338
 4706TIP3   OH235608   2.201   4.200  13.376 -0.3795 -0.5809 -0.3212
 4706TIP3    H135609   2.255   4.121  13.380 -1.2804 -1.1682  0.7678
 4706TIP3    H235610   2.263   4.272  13.380  0.3354 -1.2384  0.7539
 4707TIP3   OH235611   4.068   4.707  16.810  0.1000 -0.6460 -0.6094
 4707TIP3    H135612   4.127   4.728  16.738  1.7899 -1.5089  0.4460
 4707TIP3    H235613   4.004   4.647  16.772  2.3412 -3.0080 -0.9688
 4708TIP3   OH235614   3.988   0.254   4.855 -0.1618 -0.2703 -0.3021
 4708TIP3    H135615   3.937   0.176   4.832  0.4403 -0.4222 -1.1479
 4708TIP3    H235616   4.079   0.224   4.854  0.0650  0.4144 -0.5375
 4709TIP3   OH235617   3.663   1.263  13.026 -0.2274  0.0380 -0.4931
 4709TIP3    H135618   3.720   1.330  12.989 -0.0446 -0.3676 -0.9543
 4709TIP3    H235619   3.581   1.309  13.044 -0.1095  0.3771 -0.8226
 4710TIP3   OH235620   6.392   6.639  12.225 -0.2669  0.3947 -0.1877
 4710TIP3    H135621   6.318   6.640  12.285 -1.8327  1.1068 -2.0585
 4710TIP3    H235622   6.428   6.728  12.230  0.5888  0.0288  0.7791
 4711TIP3   OH235623   0.418   1.114   5.583  0.0056  0.2229 -0.5669
 4711TIP3    H135624   0.454   1.028   5.559 -2.1955 -0.3230 -2.2505
 4711TIP3    H235625   0.437   1.123   5.676 -0.6488 -2.5882 -0.0843
 4712TIP3   OH235626   2.259   0.927  13.337 -0.0637  0.1634 -0.0618
 4712TIP3    H135627   2.224   0.962  13.418 -1.3952  0.5781 -0.7970
 4712TIP3    H235628   2.285   1.004  13.287 -1.2544  0.0360 -0.9057
 4713TIP3   OH235629   3.667   2.176  15.372 -0.1580  0.1995 -0.8866
 4713TIP3    H135630   3.591   2.120  15.357 -0.5629  0.8502 -1.3206
 4713TIP3    H235631   3.740   2.115  15.383 -0.8789 -0.4544  0.4140
 4714TIP3   OH235632   3.536   1.496  16.619  0.4192  0.1371 -0.6204
 4714TIP3    H135633   3.463   1.437  16.601 -0.1128  0.2532  1.0215
 4714TIP3    H235634   3.534   1.560  16.547 -0.8171 -0.1101 -0.8221
 4715TIP3   OH235635   0.720   4.888   0.226 -0.1826 -0.1032  0.2441
 4715TIP3    H135636   0.628   4.867   0.244  0.4708 -2.1177  1.6257
 4715TIP3    H235637   0.749   4.818   0.167  0.7732 -0.1690  0.7787
 4716TIP3   OH235638   3.543   2.185   5.921  0.2171  0.0884 -0.0179
 4716TIP3    H135639   3.528   2.193   6.015  2.9890  0.0906  0.5038
 4716TIP3    H235640   3.557   2.091   5.907  0.0531  0.1177 -0.4050
 4717TIP3   OH235641   0.746   2.078   6.694 -0.2109  0.5158 -0.2895
 4717TIP3    H135642   0.719   2.141   6.627  0.2414  2.4252  1.2083
 4717TIP3    H235643   0.712   2.114   6.776  1.5625 -0.2357  0.8536
 4718TIP3   OH235644   4.843   0.894   5.672  0.1255 -0.1873 -0.2874
 4718TIP3    H135645   4.923   0.946   5.659  0.9835 -1.0381  1.2600
 4718TIP3    H235646   4.780   0.957   5.708  0.6241  0.1491  0.0191
 4719TIP3   OH235647   5.583   6.007  13.130 -0.2882  0.2370  0.5407
 4719TIP3    H135648   5.518   6.056  13.080 -0.6539 -0.7666  0.0060
 4719TIP3    H235649   5.602   6.063  13.206 -0.3427  1.4001 -0.2805
 4720TIP3   OH235650   5.848   2.970   1.166 -0.1611  0.0663 -0.1652
 4720TIP3    H135651   5.889   2.974   1.080 -0.1041  0.1589 -0.1340
 4720TIP3    H235652   5.762   2.931   1.151  0.4329 -1.3359 -0.0614
 4721TIP3   OH235653   5.988   4.428  11.486 -0.2964 -0.5103  0.2392
 4721TIP3    H135654   5.993   4.500  11.549  2.6530 -0.5747  0.2021
 4721TIP3    H235655   5.996   4.469  11.401  1.0960 -0.8079  0.2037
 4722TIP3   OH235656   2.599   0.489  15.170  0.2605  0.2511  0.3416
 4722TIP3    H135657   2.616   0.479  15.076  2.8315  1.9979  0.5405
 4722TIP3    H235658   2.555   0.574  15.177 -0.2354 -0.0296  0.7171
 4723TIP3   OH235659   6.350   0.693  12.377 -0.0665 -0.1520 -0.5514
 4723TIP3    H135660   6.433   0.675  12.334 -0.0406 -0.3988 -0.3995
 4723TIP3    H235661   6.324   0.779  12.344  1.4936  1.1206  1.3331
 4724TIP3   OH235662   4.081   0.127   1.883 -0.0231 -0.1063 -0.5231
 4724TIP3    H135663   4.145   0.075   1.833  1.1768 -2.4058  3.0530
 4724TIP3    H235664   4.011   0.065   1.904 -1.7024  1.4423 -1.2261
 4725TIP3   OH235665   2.122   0.149  14.025 -0.1448 -0.0486  0.3845
 4725TIP3    H135666   2.036   0.182  13.998  0.4043  1.5273  0.4987
 4725TIP3    H235667   2.183   0.189  13.964  0.5487 -0.9501  0.4755
 4726TIP3   OH235668   4.309   4.514  14.144 -0.5158  0.1823  0.5183
 4726TIP3    H135669   4.302   4.470  14.060  0.8984 -0.7547  0.8582
 4726TIP3    H235670   4.338   4.603  14.123 -1.4867  0.3777 -0.0465
 4727TIP3   OH235671   0.116   4.488   1.934  0.3411 -0.1242  0.2679
 4727TIP3    H135672   0.060   4.555   1.973 -0.1307 -1.1706  1.4450
 4727TIP3    H235673   0.061   4.445   1.869  0.4089  0.1023  0.0544
 4728TIP3   OH235674   1.948   1.440   1.869 -0.6677  0.2190  0.2053
 4728TIP3    H135675   1.910   1.429   1.782 -2.6843 -1.4906  1.2023
 4728TIP3    H235676   1.873   1.459   1.926  0.1365 -1.6045  2.0116
 4729TIP3   OH235677   0.536   0.055   0.912  0.0219  0.0395 -0.1491
 4729TIP3    H135678   0.551   0.147   0.931 -1.9175  0.2471  0.5656
 4729TIP3    H235679   0.445   0.050   0.883  0.5334 -1.4535 -1.6857
 4730TIP3   OH235680   3.334   5.373  13.614 -0.1291 -0.1132 -0.2720
 4730TIP3    H135681   3.260   5.394  13.558  0.1421  1.6775 -0.0107
 4730TIP3    H235682   3.300   5.309  13.677 -1.1123 -0.2160 -0.8898
 4731TIP3   OH235683   3.285   0.730   4.509 -0.3147 -0.2253 -0.1683
 4731TIP3    H135684   3.212   0.746   4.570  1.3001  3.7829  1.0534
 4731TIP3    H235685   3.249   0.753   4.423 -1.0798 -0.3884  0.0957
 4732TIP3   OH235686   4.971   3.492  12.429 -0.4518 -0.2729 -0.4836
 4732TIP3    H135687   5.057   3.531  12.442 -0.5035 -0.4896  0.6565
 4732TIP3    H235688   4.932   3.542  12.357  0.5426 -0.0548 -0.8825
 4733TIP3   OH235689   6.388   3.733   4.217  0.1690  0.3558  0.3291
 4733TIP3    H135690   6.372   3.826   4.231 -1.6172 -0.0564  1.3565
 4733TIP3    H235691   6.363   3.692   4.300 -0.7400 -1.1900 -0.6676
 4734TIP3   OH235692   1.862   2.075  15.753  0.5278  0.1233  0.1294
 4734TIP3    H135693   1.916   2.148  15.724  1.6827 -0.4000  0.8999
 4734TIP3    H235694   1.880   2.066  15.846 -0.0877 -0.7440  0.1862
 4735TIP3   OH235695   0.623   4.101  16.998  0.3899 -0.0362 -0.3737
 4735TIP3    H135696   0.539   4.076  16.959  0.0334  1.2916 -0.5017
 4735TIP3    H235697   0.666   4.018  17.017  0.1548 -0.7748 -2.6957
 4736TIP3   OH235698   0.875   0.992  14.476  0.4238 -0.3886 -0.4747
 4736TIP3    H135699   0.908   1.064  14.423 -1.4286  0.3949 -0.6616
 4736TIP3    H235700   0.872   0.917  14.417 -1.0810  0.3354 -1.3869
 4737TIP3   OH235701   1.105   5.860   0.893 -0.0575  0.5300 -0.0432
 4737TIP3    H135702   1.175   5.902   0.843  0.9505 -0.6794  0.3216
 4737TIP3    H235703   1.149   5.796   0.949 -1.4594 -0.4053  0.0533
 4738TIP3   OH235704   2.085   0.222  12.053  0.2061  0.0911 -0.0021
 4738TIP3    H135705   2.100   0.143  12.002 -1.5294 -0.4703  0.2866
 4738TIP3    H235706   2.075   0.190  12.143 -0.3435  0.6480  0.1395
 4739TIP3   OH235707   3.444   2.343  16.827 -0.1391  0.0765 -0.4636
 4739TIP3    H135708   3.520   2.400  16.838  0.8159 -1.0655 -0.9561
 4739TIP3    H235709   3.468   2.284  16.755 -1.2524 -0.6826 -0.2439
 4740TIP3   OH235710   4.783   5.172   1.243 -0.0494 -0.3527  0.1353
 4740TIP3    H135711   4.806   5.265   1.242 -0.3219 -0.2876 -0.7175
 4740TIP3    H235712   4.690   5.170   1.223  0.3928 -0.9094 -2.0934
 4741TIP3   OH235713   6.063   4.370   1.662 -0.4965 -0.3516 -0.2161
 4741TIP3    H135714   6.082   4.282   1.696  0.5586 -0.0464  0.0318
 4741TIP3    H235715   5.980   4.395   1.703  0.7584  0.0521  2.2917
 4742TIP3   OH235716   0.283   1.243  16.951 -0.2492  0.5191 -0.3113
 4742TIP3    H135717   0.349   1.301  16.987  0.3685 -0.5258  0.2993
 4742TIP3    H235718   0.202   1.293  16.955 -0.1038  0.6538  2.0511
 4743TIP3   OH235719   3.671   0.581  11.652  0.0489 -0.2656  0.0348
 4743TIP3    H135720   3.577   0.596  11.652  0.3265  2.0678  1.4966
 4743TIP3    H235721   3.707   0.656  11.604  1.2390  0.1073  1.4264
 4744TIP3   OH235722   4.762   0.770   3.236  0.3759 -0.1548 -0.2260
 4744TIP3    H135723   4.810   0.851   3.223 -0.5431  0.6237  0.9400
 4744TIP3    H235724   4.819   0.717   3.292  1.6003 -0.9521 -2.1349
 4745TIP3   OH235725   3.060   2.857  14.313  0.6861 -0.4503  0.2519
 4745TIP3    H135726   3.020   2.788  14.365 -1.1148  0.3642  0.0528
 4745TIP3    H235727   2.986   2.914  14.290  1.9730  1.0245 -0.3531
 4746TIP3   OH235728   1.039   0.007  14.025 -0.1009 -0.1769  0.1761
 4746TIP3    H135729   0.968   0.063  14.055 -1.2158 -1.4183 -0.0287
 4746TIP3    H235730   1.073  -0.035  14.104 -0.1942 -0.2664  0.1676
 4747TIP3   OH235731   4.448   5.548   6.421  0.1128  0.4364  0.3296
 4747TIP3    H135732   4.456   5.639   6.450 -1.0515  0.4551  0.6277
 4747TIP3    H235733   4.510   5.500   6.475 -2.4751  0.3468  3.4691
 4748TIP3   OH235734   6.698   5.685   3.839  0.1115  0.0005 -0.4918
 4748TIP3    H135735   6.606   5.669   3.816 -0.0821 -0.6753  0.6248
 4748TIP3    H235736   6.748   5.651   3.765 -0.5503  1.6748 -1.7676
 4749TIP3   OH235737   1.241   1.984  14.036  0.0101  0.3026 -0.0651
 4749TIP3    H135738   1.206   2.054  13.981 -1.9199  0.1827  0.9504
 4749TIP3    H235739   1.198   1.995  14.120  1.2038 -0.8987  0.7556
 4750TIP3   OH235740   5.010   3.552   1.634  0.0302  0.0754 -0.5409
 4750TIP3    H135741   4.925   3.525   1.670 -0.4141  1.9948 -0.0054
 4750TIP3    H235742   5.001   3.540   1.539 -0.3474 -0.9712 -0.3848
 4751TIP3   OH235743   5.702   3.033  11.860  0.6514  0.4795 -0.2656
 4751TIP3    H135744   5.786   3.042  11.906 -0.1374  1.1887  1.1011
 4751TIP3    H235745   5.682   3.122  11.830  0.3600  0.3240 -0.5306
 4752TIP3   OH235746   2.605   4.526   2.045 -0.1694 -0.0210  0.1505
 4752TIP3    H135747   2.611   4.563   1.957  0.8531  0.9883  0.6078
 4752TIP3    H235748   2.534   4.575   2.087 -0.1731  0.0057  0.1128
 4753TIP3   OH235749   1.742   6.744  10.841  0.3562 -0.3921 -0.5346
 4753TIP3    H135750   1.714   6.728  10.932 -1.3892 -0.0014 -0.9584
 4753TIP3    H235751   1.818   6.688  10.830  0.2728 -0.8817  1.0091
 4754TIP3   OH235752   1.482   0.457   1.582  0.4085  0.6374  0.0209
 4754TIP3    H135753   1.493   0.362   1.585  1.0938  0.6994 -0.2903
 4754TIP3    H235754   1.543   0.490   1.648  2.2443  0.9905 -1.7320
 4755TIP3   OH235755   6.471   3.956   0.306  0.3178  0.0060 -0.1169
 4755TIP3    H135756   6.410   3.965   0.379  0.2332  0.9599 -0.2829
 4755TIP3    H235757   6.431   3.892   0.248 -1.6645  2.1322 -1.2867
 4756TIP3   OH235758   2.491   6.227   0.212  0.2438 -0.4646 -0.2292
 4756TIP3    H135759   2.547   6.164   0.167  0.2866 -0.2294 -0.5090
 4756TIP3    H235760   2.411   6.229   0.160  0.4878  0.1841 -0.5890
 4757TIP3   OH235761   0.545   4.030  13.275  0.2577 -0.2127 -0.1052
 4757TIP3    H135762   0.512   3.972  13.345  0.2225  0.9342  0.8529
 4757TIP3    H235763   0.468   4.047  13.221  0.4967 -1.9362 -1.0745
 4758TIP3   OH235764   2.932   5.129  11.651 -0.1368  0.0644  0.6233
 4758TIP3    H135765   2.967   5.196  11.711  1.1804 -0.4426  0.4571
 4758TIP3    H235766   3.004   5.113  11.590 -0.8262 -0.7402  0.0142
 4759TIP3   OH235767   1.639   0.582  13.684  0.3126 -0.4283  0.4929
 4759TIP3    H135768   1.726   0.618  13.670  0.6577 -1.4450 -0.0425
 4759TIP3    H235769   1.579   0.653  13.661  0.9957  0.3656  1.1437
 4760TIP3   OH235770   0.563   6.605  14.410  0.3578 -0.3602 -0.0801
 4760TIP3    H135771   0.476   6.588  14.445  0.6204 -0.5472  0.4963
 4760TIP3    H235772   0.550   6.672  14.343 -0.4707 -1.6164 -1.2191
 4761TIP3   OH235773   5.050   2.118  15.063 -0.6611 -0.8125  0.3784
 4761TIP3    H135774   5.102   2.198  15.051 -0.8282 -0.8199 -0.4679
 4761TIP3    H235775   5.112   2.053  15.093  0.8499 -1.9573 -4.3073
 4762TIP3   OH235776   0.079   2.233  13.386 -0.4334  0.1405  0.1091
 4762TIP3    H135777   0.026   2.201  13.459 -0.1066 -0.5079  0.0757
 4762TIP3    H235778   0.021   2.226  13.310 -0.7627  0.7859  0.2920
 4763TIP3   OH235779   5.760   0.485   2.400 -0.3680 -0.0441  0.2110
 4763TIP3    H135780   5.830   0.542   2.368  0.0233 -0.6309 -0.0113
 4763TIP3    H235781   5.735   0.432   2.323 -1.5636  0.6535  0.1010
 4764TIP3   OH235782   1.557   1.072  11.560 -0.3184  0.2109 -0.2781
 4764TIP3    H135783   1.472   1.049  11.523 -0.5525 -1.0912  0.9829
 4764TIP3    H235784   1.543   1.070  11.655  0.9218  0.7805 -0.0633
 4765TIP3   OH235785   5.195   5.908   2.377 -0.5784  0.2956 -0.6236
 4765TIP3    H135786   5.152   5.994   2.367  1.5203  1.6161  0.8464
 4765TIP3    H235787   5.205   5.898   2.471  2.5133  0.2204 -0.8865
 4766TIP3   OH235788   0.227   0.900  10.937  0.3504 -0.3590 -0.2549
 4766TIP3    H135789   0.197   0.889  10.847  1.2846 -0.1951 -0.5953
 4766TIP3    H235790   0.229   0.995  10.950 -2.9335 -0.3402  1.0502
 4767TIP3   OH235791   6.401   1.307  13.944 -0.0616  0.1465  0.6390
 4767TIP3    H135792   6.329   1.340  13.998  0.6142 -1.8217  2.9171
 4767TIP3    H235793   6.359   1.247  13.882 -0.5161 -0.0566  1.1391
 4768TIP3   OH235794   3.240   3.589   3.911  0.2649  0.0385  0.1322
 4768TIP3    H135795   3.153   3.611   3.877  0.2757 -0.9464 -0.5468
 4768TIP3    H235796   3.287   3.672   3.910 -0.4495  0.4535 -0.1201
 4769TIP3   OH235797   3.859   3.018  13.999  0.2347 -0.4922 -0.1677
 4769TIP3    H135798   3.932   3.063  14.041 -0.2977  1.0613 -0.7992
 4769TIP3    H235799   3.797   3.001  14.071  0.5570 -0.4553  0.1237
 4770TIP3   OH235800   4.358   2.706  12.201 -0.1464 -0.0953 -0.2588
 4770TIP3    H135801   4.438   2.660  12.178 -0.0896 -0.8429  1.3156
 4770TIP3    H235802   4.291   2.637  12.205 -0.4239  0.2027  0.4293
 4771TIP3   OH235803   4.087   1.698   3.030  0.0085 -0.1917 -0.0892
 4771TIP3    H135804   4.020   1.714   3.097  0.3603  0.2327  0.1655
 4771TIP3    H235805   4.127   1.783   3.015  0.2810 -0.3839 -0.4734
 4772TIP3   OH235806   3.892   6.370  12.240 -0.2497 -0.2972  0.0713
 4772TIP3    H135807   3.985   6.390  12.228 -0.0482 -0.7561  0.8289
 4772TIP3    H235808   3.876   6.385  12.333 -1.0951  0.3998 -0.1628
 4773TIP3   OH235809   6.110   6.687   3.217 -0.3153  0.7754  0.0511
 4773TIP3    H135810   6.082   6.664   3.306  1.9246  0.0064  0.6482
 4773TIP3    H235811   6.115   6.602   3.172  0.4580  0.9328 -0.1739
 4774TIP3   OH235812   1.316   1.363   1.465 -0.3551  0.1914  0.0213
 4774TIP3    H135813   1.304   1.345   1.558  0.3071  0.2675  0.1270
 4774TIP3    H235814   1.367   1.444   1.462  0.0951 -0.1018 -0.3970
 4775TIP3   OH235815   1.042   0.492  11.865 -0.2487  0.0525 -0.1220
 4775TIP3    H135816   0.973   0.437  11.828 -1.7855  1.9152 -0.1446
 4775TIP3    H235817   1.081   0.437  11.933 -1.3003 -1.2775 -0.5277
 4776TIP3   OH235818   2.391   0.457  13.091  0.1344  0.5739  0.1657
 4776TIP3    H135819   2.463   0.519  13.095  0.5199  0.1960 -0.7910
 4776TIP3    H235820   2.395   0.410  13.175  0.3052  1.3139  0.5738
 4777TIP3   OH235821   6.191   3.286   5.740 -0.7458 -0.7184 -0.0376
 4777TIP3    H135822   6.185   3.250   5.651 -1.6648 -1.5737  0.3569
 4777TIP3    H235823   6.237   3.370   5.729  2.0583 -2.2645 -0.8965
 4778TIP3   OH235824   3.112   5.304   4.885 -0.0657  0.0545 -0.1828
 4778TIP3    H135825   3.188   5.338   4.933 -0.0301 -0.9926  0.5255
 4778TIP3    H235826   3.037   5.347   4.925  0.0332 -0.1439  0.2204
 4779TIP3   OH235827   5.640   4.921   2.296  0.2966  0.4528  0.4099
 4779TIP3    H135828   5.684   4.986   2.242 -1.4831  0.9261 -0.5547
 4779TIP3    H235829   5.708   4.858   2.319  1.3628  0.8866 -1.4076
 4780TIP3   OH235830   5.268   0.925   3.963 -0.6360  0.3795  0.2316
 4780TIP3    H135831   5.245   1.016   3.983 -0.0792  1.1837 -2.3613
 4780TIP3    H235832   5.305   0.890   4.044 -0.5926  2.5478  1.2032
 4781TIP3   OH235833   3.978   3.998   5.544  0.2261  0.0672  0.5053
 4781TIP3    H135834   4.003   4.075   5.494 -0.6132 -0.0414 -0.1065
 4781TIP3    H235835   3.983   4.026   5.635  1.2967  0.4131  0.3542
 4782TIP3   OH235836   2.299   4.384   0.878  0.3174 -0.8658 -0.2568
 4782TIP3    H135837   2.234   4.345   0.937  0.4626 -1.3708 -0.4245
 4782TIP3    H235838   2.368   4.416   0.937 -0.5744  0.6491 -0.0007
 4783TIP3   OH235839   5.136   1.551   0.906  0.2171 -0.3215 -0.4402
 4783TIP3    H135840   5.100   1.638   0.924 -0.4826 -1.0191  1.8600
 4783TIP3    H235841   5.107   1.497   0.980  4.0143 -1.5283  0.3973
 4784TIP3   OH235842   3.347   5.400  11.260  0.6857 -0.3218 -0.4297
 4784TIP3    H135843   3.384   5.484  11.235 -0.8048  0.2355 -0.8410
 4784TIP3    H235844   3.289   5.420  11.333  0.5538 -1.0508 -0.3218
 4785TIP3   OH235845   0.681   2.799   2.399  0.4042 -0.2014 -0.3885
 4785TIP3    H135846   0.684   2.731   2.467 -0.6163 -0.8467 -0.9571
 4785TIP3    H235847   0.689   2.882   2.448  1.1230 -0.6935  0.3659
 4786TIP3   OH235848   0.601   5.011   2.617  0.2431 -0.5203  0.0579
 4786TIP3    H135849   0.643   4.984   2.536  0.3783 -0.6608  0.1751
 4786TIP3    H235850   0.657   5.081   2.651 -0.8449  0.9164 -0.9605
 4787TIP3   OH235851   6.353   5.886  16.451  0.0272 -0.0387 -0.5645
 4787TIP3    H135852   6.378   5.831  16.526 -1.4248 -1.2398 -0.9065
 4787TIP3    H235853   6.432   5.936  16.431  1.3444 -1.7672 -0.0044
 4788TIP3   OH235854   6.134   1.692   5.665  0.2580  0.0659 -0.8018
 4788TIP3    H135855   6.159   1.758   5.730 -0.7395 -0.2888 -0.0338
 4788TIP3    H235856   6.216   1.647   5.644  0.4626 -0.4242  0.9053
 4789TIP3   OH235857   0.657   1.889   0.701  0.1058 -0.1657  0.1947
 4789TIP3    H135858   0.678   1.809   0.654  0.1827  0.1894 -0.3941
 4789TIP3    H235859   0.561   1.894   0.699  0.0617 -0.6224  0.8914
 4790TIP3   OH235860   6.580   2.905  16.948 -0.0416 -0.5139  0.3805
 4790TIP3    H135861   6.644   2.948  17.006  0.1395  0.6237 -0.6322
 4790TIP3    H235862   6.581   2.813  16.977 -0.9491  0.2284  3.0547
 4791TIP3   OH235863   3.488   4.768   2.729  0.4300 -0.0376 -0.2596
 4791TIP3    H135864   3.558   4.779   2.665 -1.3072 -0.8332 -2.4466
 4791TIP3    H235865   3.438   4.849   2.724  0.3528 -0.0537  0.2093
 4792TIP3   OH235866   0.961   5.567  12.569 -0.5447  0.0949 -0.3295
 4792TIP3    H135867   0.990   5.659  12.572 -1.1229  0.2663  0.2074
 4792TIP3    H235868   0.866   5.571  12.577 -0.4572 -0.6280  1.6542
 4793TIP3   OH235869   3.351   1.795  16.698  0.4397 -0.2797 -0.4482
 4793TIP3    H135870   3.398   1.846  16.631 -1.1196 -0.6927 -1.9365
 4793TIP3    H235871   3.315   1.861  16.757  1.7386  0.0988 -0.0375
 4794TIP3   OH235872   4.813   2.994   0.422  0.4146 -0.7723 -0.2330
 4794TIP3    H135873   4.854   2.925   0.473 -0.5163 -0.3246  1.1813
 4794TIP3    H235874   4.761   2.947   0.356  0.4026 -1.4102  0.2212
 4795TIP3   OH235875   6.803   0.978   3.826 -0.4751  0.0718  0.0718
 4795TIP3    H135876   6.809   0.885   3.806  2.5435 -0.1398  1.3904
 4795TIP3    H235877   6.843   1.022   3.751  1.0306  0.0315  0.8196
 4796TIP3   OH235878   1.857   0.209  16.078 -0.3258 -0.2088  0.0827
 4796TIP3    H135879   1.858   0.302  16.098  0.9554  0.4061 -2.4033
 4796TIP3    H235880   1.888   0.166  16.158  1.1713  1.6970  0.5879
 4797TIP3   OH235881   6.438   5.948   1.712 -0.0745  0.5004 -0.2850
 4797TIP3    H135882   6.406   6.018   1.769 -0.7010  1.3716 -1.6534
 4797TIP3    H235883   6.533   5.953   1.718 -0.1213  1.0709  0.0809
 4798TIP3   OH235884   4.589   4.699   0.130  0.0265  0.2923 -0.0886
 4798TIP3    H135885   4.513   4.715   0.075  2.4641  0.8045 -3.6700
 4798TIP3    H235886   4.604   4.782   0.175 -2.6388 -0.4559  2.4591
 4799TIP3   OH235887   5.615   1.255  11.340 -0.2539 -0.5159  0.3546
 4799TIP3    H135888   5.553   1.206  11.285 -1.8886  0.8712  0.8811
 4799TIP3    H235889   5.658   1.315  11.281 -0.2464 -0.6973  0.1759
 4800TIP3   OH235890   4.294   5.719  15.433  0.1536 -0.2134 -0.1188
 4800TIP3    H135891   4.300   5.673  15.349  1.3420  0.6599 -0.5377
 4800TIP3    H235892   4.297   5.649  15.498 -0.5540 -0.8907 -0.7857
 4801TIP3   OH235893   0.091   3.257  13.993  0.3090 -0.3586  0.1077
 4801TIP3    H135894   0.113   3.168  14.019 -2.3066 -1.7842 -2.1849
 4801TIP3    H235895   0.044   3.293  14.068  0.4999 -1.2399  0.6581
 4802TIP3   OH235896   1.703   1.311  11.628  0.7039  0.8132 -0.4059
 4802TIP3    H135897   1.618   1.354  11.614 -1.1347 -1.3970  2.6201
 4802TIP3    H235898   1.681   1.219  11.641  3.7909 -0.1031 -0.9316
 4803TIP3   OH235899   3.866   5.738   0.184 -0.4925 -0.2094 -0.1090
 4803TIP3    H135900   3.914   5.727   0.266  2.4817 -0.7057 -1.7731
 4803TIP3    H235901   3.884   5.829   0.158 -1.1162 -0.1672 -0.4054
 4804TIP3   OH235902   1.104   5.261   1.670  0.6453  0.4160  0.5520
 4804TIP3    H135903   1.013   5.289   1.670  0.0823 -0.9872 -2.2402
 4804TIP3    H235904   1.103   5.175   1.627  3.1743 -0.1282  1.3755
 4805TIP3   OH235905   5.490   4.467   3.705  0.3872 -1.2090 -0.2062
 4805TIP3    H135906   5.550   4.479   3.631  1.4096  1.1087  0.9167
 4805TIP3    H235907   5.407   4.503   3.674  0.7897 -0.3200 -0.2745
 4806TIP3   OH235908   0.293   3.395  10.707 -0.1484  0.1732  0.4195
 4806TIP3    H135909   0.316   3.460  10.641 -0.5526  1.3294  1.3759
 4806TIP3    H235910   0.378   3.362  10.738  0.0374 -1.2721 -1.4708
 4807TIP3   OH235911   4.503   0.685   3.183 -0.1527  0.0417  0.3875
 4807TIP3    H135912   4.598   0.692   3.195  0.3244 -2.3368 -1.2017
 4807TIP3    H235913   4.473   0.776   3.175  2.4665  0.8467 -2.1008
 4808TIP3   OH235914   0.238   3.794   4.512  0.0320 -0.0441  0.0043
 4808TIP3    H135915   0.204   3.780   4.600  1.0619 -0.1655  0.3943
 4808TIP3    H235916   0.331   3.814   4.525  0.4229 -1.0468 -1.1189
 4809TIP3   OH235917   5.894   4.715   5.539 -0.2097 -0.4686 -0.2153
 4809TIP3    H135918   5.919   4.792   5.489 -0.0249  0.1704  0.8366
 4809TIP3    H235919   5.923   4.733   5.629  1.4974 -2.5308 -0.2709
 4810TIP3   OH235920   0.022   1.836  13.228  0.2196  0.0089 -0.2726
 4810TIP3    H135921  -0.043   1.893  13.268 -0.4570 -2.2018  2.0196
 4810TIP3    H235922   0.000   1.836  13.135 -1.0107  1.8132 -0.0322
 4811TIP3   OH235923   3.014   3.578   0.287  0.0699 -0.7458  0.3277
 4811TIP3    H135924   2.919   3.581   0.277  0.1795  1.3756 -0.9166
 4811TIP3    H235925   3.029   3.574   0.381 -1.2393 -1.7413  0.5103
 4812TIP3   OH235926   2.491   6.431   5.890 -0.0800 -0.8163  0.1216
 4812TIP3    H135927   2.461   6.454   5.802  1.7606  2.4718  0.1882
 4812TIP3    H235928   2.539   6.349   5.879 -0.6472 -0.9425 -1.7483
 4813TIP3   OH235929   4.168   4.233   6.361 -0.2047 -0.5091  0.3615
 4813TIP3    H135930   4.101   4.204   6.423  0.0625 -1.2012  0.3380
 4813TIP3    H235931   4.123   4.294   6.303 -0.6321 -0.4069  0.7929
 4814TIP3   OH235932   6.072   5.997   1.920 -0.1742 -0.3164  0.4689
 4814TIP3    H135933   6.095   5.946   1.842 -1.0230  0.0618 -0.0429
 4814TIP3    H235934   5.990   6.041   1.897 -0.3533 -0.0654  1.5180
 4815TIP3   OH235935   6.058   0.454   3.085  0.0328  0.0761  0.3424
 4815TIP3    H135936   6.049   0.519   3.155  0.4451 -0.1823  0.6382
 4815TIP3    H235937   5.967   0.434   3.061 -0.0931  0.9459  0.0665
 4816TIP3   OH235938   4.755   2.795  11.053 -0.5679 -0.0676  0.1048
 4816TIP3    H135939   4.784   2.869  10.998  1.8253 -1.9132 -1.3193
 4816TIP3    H235940   4.707   2.738  10.992  0.0552 -1.0032  0.4666
 4817TIP3   OH235941   4.951   2.794  11.589  0.6032  0.1853 -0.1370
 4817TIP3    H135942   4.984   2.833  11.669  0.4955 -1.0214  0.5166
 4817TIP3    H235943   4.875   2.848  11.565  2.3144  2.3318 -1.0782
 4818TIP3   OH235944   1.269   2.897   1.281  0.3680  0.3512  0.0540
 4818TIP3    H135945   1.192   2.856   1.241 -0.7930  0.2633  2.1701
 4818TIP3    H235946   1.242   2.987   1.297 -0.1087 -0.1485  2.5438
 4819TIP3   OH235947   1.637   3.500   6.737  0.1082  0.0503 -0.0073
 4819TIP3    H135948   1.679   3.576   6.777  0.8237 -1.2213  1.8150
 4819TIP3    H235949   1.570   3.536   6.680  0.7246  2.0503  0.4726
 4820TIP3   OH235950   2.982   6.795  13.693  0.2764 -0.5288 -0.6307
 4820TIP3    H135951   3.023   6.845  13.763 -1.8553  0.4450  0.0244
 4820TIP3    H235952   2.940   6.721  13.738 -0.3244 -0.4121 -0.9856
 4821TIP3   OH235953   6.751   0.143   0.006  0.5953 -1.0434 -0.2608
 4821TIP3    H135954   6.772   0.190  -0.075 -0.2034  0.4357  0.3637
 4821TIP3    H235955   6.837   0.128   0.047  0.8516  3.1850  1.2918
 4822TIP3   OH235956   5.191   4.851   5.586 -0.3078 -0.5293  0.5246
 4822TIP3    H135957   5.274   4.897   5.603  1.3448 -3.0767 -0.1376
 4822TIP3    H235958   5.145   4.907   5.524  0.5736  1.3030  1.4475
 4823TIP3   OH235959   3.331   5.008  16.650  0.3259 -0.6892 -0.2636
 4823TIP3    H135960   3.338   5.063  16.729  0.8561 -1.0640 -0.0424
 4823TIP3    H235961   3.300   5.068  16.583  1.3055  0.0057 -0.1311
 4824TIP3   OH235962   0.649   2.710  13.428  0.3921  0.3466 -0.1361
 4824TIP3    H135963   0.584   2.661  13.378  0.1434  1.7116 -1.2249
 4824TIP3    H235964   0.598   2.767  13.485  0.6319  0.6683 -0.2343
 4825TIP3   OH235965   2.078   5.002   4.667 -0.1705 -0.0265  0.2198
 4825TIP3    H135966   2.021   5.079   4.653 -3.5096 -1.8465  2.4186
 4825TIP3    H235967   2.052   4.941   4.597  0.7506 -0.0534 -0.1041
 4826TIP3   OH235968   2.864   4.933   2.928 -0.5836  0.1702 -0.7884
 4826TIP3    H135969   2.878   4.915   3.021  0.0967 -0.6547 -1.0345
 4826TIP3    H235970   2.775   4.902   2.911 -1.4524  2.0950 -0.0104
 4827TIP3   OH235971   1.694   6.011   2.158 -0.6638 -0.6514  0.0587
 4827TIP3    H135972   1.688   5.926   2.201  1.8708 -0.5747  0.7499
 4827TIP3    H235973   1.705   6.074   2.230 -2.4367  0.3123 -0.4429
 4828TIP3   OH235974   5.796   4.505  13.979 -0.3488  0.0262  0.0164
 4828TIP3    H135975   5.849   4.549  14.045 -0.5769  0.5316 -0.1337
 4828TIP3    H235976   5.835   4.418  13.972 -0.4608 -0.1073  0.9662
 4829TIP3   OH235977   1.242   3.519   0.934 -0.4659  0.5342 -0.3592
 4829TIP3    H135978   1.255   3.450   0.869  2.3432 -0.0398  0.6656
 4829TIP3    H235979   1.280   3.483   1.015  0.3421  2.9278  0.4156
 4830TIP3   OH235980   0.982   2.984  12.131  0.4706 -0.0908  0.3625
 4830TIP3    H135981   0.937   2.966  12.213  0.5141  2.6377  1.0961
 4830TIP3    H235982   1.021   3.071  12.144 -0.5391  1.0039 -2.9478
 4831TIP3   OH235983   2.532   1.521  16.841  0.2538 -0.6071 -0.2075
 4831TIP3    H135984   2.544   1.614  16.857  0.1564 -0.4985 -0.7270
 4831TIP3    H235985   2.613   1.494  16.796  0.6746 -0.9772  0.7610
 4832TIP3   OH235986   6.732   2.277   5.303 -0.2596 -0.1325 -0.2665
 4832TIP3    H135987   6.704   2.349   5.247 -0.0426 -0.5359 -0.9003
 4832TIP3    H235988   6.656   2.259   5.358  0.1922  1.6137  1.0075
 4833TIP3   OH235989   3.806   3.351  17.273 -0.1260  0.6721 -0.3311
 4833TIP3    H135990   3.882   3.295  17.256 -0.7081 -0.7337  1.3683
 4833TIP3    H235991   3.737   3.314  17.217  0.1715  1.3574 -1.1668
 4834TIP3   OH235992   1.328   5.968  12.671  0.0495 -0.0287 -0.3841
 4834TIP3    H135993   1.417   5.937  12.693 -0.5611 -0.2042  2.2264
 4834TIP3    H235994   1.271   5.913  12.725 -1.6229  0.5285 -1.5316
 4835TIP3   OH235995   0.675   0.562  12.139  0.1697 -1.0490 -0.2295
 4835TIP3    H135996   0.673   0.485  12.196  0.3392 -3.2548 -2.9892
 4835TIP3    H235997   0.763   0.560  12.100 -0.0650  0.1458 -0.8614
 4836TIP3   OH235998   3.500   5.420  15.799 -0.1592 -0.4228 -0.1673
 4836TIP3    H135999   3.532   5.362  15.869  1.7654 -0.5093 -1.0404
 4836TIP3    H236000   3.576   5.473  15.776 -1.3457  1.0760 -0.7833
 4837TIP3   OH236001   3.968   2.891   6.010 -0.1195 -0.1859 -0.4155
 4837TIP3    H136002   4.006   2.933   6.088 -2.0135  0.4549  0.2097
 4837TIP3    H236003   3.978   2.955   5.940  0.3600 -0.2195 -0.3825
 4838TIP3   OH236004   5.327   2.403  13.368 -0.1480  0.1283  1.0813
 4838TIP3    H136005   5.398   2.377  13.310 -2.4192 -0.4761 -1.6738
 4838TIP3    H236006   5.286   2.320  13.395 -0.1882  0.4802  2.1572
 4839TIP3   OH236007   2.904   0.140  12.171  0.0619 -0.3194  0.0669
 4839TIP3    H136008   2.865   0.063  12.129 -0.6166  0.3467 -0.5506
 4839TIP3    H236009   2.927   0.197  12.098  0.8433 -0.0590  0.5055
 4840TIP3   OH236010   2.069   3.494   2.288  0.3673  0.3841  0.5230
 4840TIP3    H136011   2.128   3.554   2.335  0.3382  0.1263  0.8946
 4840TIP3    H236012   1.995   3.549   2.263  0.4382  0.5541  0.6810
 4841TIP3   OH236013   3.394   0.233   5.442 -0.1905 -0.1965 -0.0910
 4841TIP3    H136014   3.467   0.290   5.419  0.3617  0.3469  2.6854
 4841TIP3    H236015   3.331   0.245   5.370  0.8666  2.1754 -0.7361
 4842TIP3   OH236016   0.797   0.535  16.873 -0.1296  0.3405 -0.0776
 4842TIP3    H136017   0.777   0.617  16.828 -1.5923  1.0612  1.7864
 4842TIP3    H236018   0.803   0.470  16.803 -0.1276  1.7974 -1.4800
 4843TIP3   OH236019   6.083   0.723   2.332  0.3626  0.0860  0.2120
 4843TIP3    H136020   6.016   0.741   2.267  2.0359 -0.0105 -1.6074
 4843TIP3    H236021   6.115   0.635   2.311  0.8396 -0.0103  1.2559
 4844TIP3   OH236022   4.107   2.564  14.623 -0.5397  0.4542 -0.1192
 4844TIP3    H136023   4.119   2.590  14.532 -0.3674 -0.5995 -0.4044
 4844TIP3    H236024   4.016   2.586  14.643 -0.6463  0.4622 -0.6149
 4845TIP3   OH236025   2.567   1.079  15.835  0.2193 -0.2592 -0.0461
 4845TIP3    H136026   2.652   1.112  15.865 -0.1365 -1.1215  2.0753
 4845TIP3    H236027   2.589   1.008  15.774  0.9722  2.3111 -3.0350
 4846TIP3   OH236028   2.349   1.112  13.041  0.8186 -0.1547  0.1875
 4846TIP3    H136029   2.261   1.130  13.010  1.2111  2.3292  0.3199
 4846TIP3    H236030   2.349   1.138  13.133  1.8157  0.3942  0.0483
 4847TIP3   OH236031   2.481   6.318  15.466  0.2936  0.2884 -0.4009
 4847TIP3    H136032   2.449   6.391  15.518 -0.6373  0.6111 -1.3761
 4847TIP3    H236033   2.416   6.308  15.396  1.6222  0.0444 -1.6587
 4848TIP3   OH236034   1.566   0.014   3.967 -0.1014  0.0976  0.0372
 4848TIP3    H136035   1.575   0.107   3.943  1.1320  0.3027  1.1586
 4848TIP3    H236036   1.655  -0.021   3.962 -0.5728 -1.0580 -0.4505
 4849TIP3   OH236037   1.099   0.734   0.570 -0.0942 -0.5995  0.1455
 4849TIP3    H136038   1.040   0.669   0.531  0.7341 -1.2030 -0.1278
 4849TIP3    H236039   1.152   0.764   0.497 -1.0660  1.0741  0.0856
 4850TIP3   OH236040   1.699   0.517   0.196 -0.0817  0.5250 -0.2131
 4850TIP3    H136041   1.703   0.467   0.277 -1.9319  1.9741  0.8629
 4850TIP3    H236042   1.693   0.608   0.225  0.2708  1.1683 -2.0339
 4851TIP3   OH236043   3.684   6.361  10.780 -0.0048  0.6493 -0.2628
 4851TIP3    H136044   3.623   6.388  10.849  0.3911  0.2199  0.2721
 4851TIP3    H236045   3.716   6.275  10.809 -1.3172 -0.4602 -1.9593
 4852TIP3   OH236046   6.009   2.438  13.404  0.2843  0.1979 -0.4630
 4852TIP3    H136047   6.033   2.485  13.324  1.6103  2.0230  0.9128
 4852TIP3    H236048   6.050   2.352  13.394 -1.9699 -0.7370 -2.9259
 4853TIP3   OH236049   0.254   4.834  11.809  0.1423  0.3456  0.4843
 4853TIP3    H136050   0.300   4.751  11.797  0.6905  0.8068 -0.7789
 4853TIP3    H236051   0.258   4.877  11.724 -0.5950  1.4482  0.9694
 4854TIP3   OH236052   4.998   3.831   3.362  0.0718 -0.0644 -0.3554
 4854TIP3    H136053   4.994   3.748   3.409 -0.4213 -0.6118 -1.3536
 4854TIP3    H236054   4.907   3.849   3.337  0.3800 -0.0187 -1.4975
 4855TIP3   OH236055   2.163   6.281  12.352 -0.1775  0.2831 -0.1005
 4855TIP3    H136056   2.218   6.204  12.362 -1.8209 -0.9536 -0.1647
 4855TIP3    H236057   2.224   6.355  12.351  1.7218 -1.1488 -2.6434
 4856TIP3   OH236058   0.278   0.023  16.772 -0.0850  0.0621  0.3047
 4856TIP3    H136059   0.287  -0.057  16.824  0.1568 -1.2406 -1.6494
 4856TIP3    H236060   0.185   0.031  16.754 -0.0118 -0.3036 -0.2607
 4857TIP3   OH236061   6.629   1.262   0.849  0.0013  0.3767  0.0062
 4857TIP3    H136062   6.581   1.260   0.932 -1.5168 -1.7182 -0.8339
 4857TIP3    H236063   6.592   1.337   0.802 -0.9913  0.0481  0.2271
 4858TIP3   OH236064   6.566   3.510  12.387  0.2061  0.1103  0.5955
 4858TIP3    H136065   6.574   3.553  12.302  1.7638  0.3813  0.8315
 4858TIP3    H236066   6.596   3.421  12.371 -0.7578 -0.2220  0.5996
 4859TIP3   OH236067   4.002   4.270   1.575  0.6105  0.0795 -0.2561
 4859TIP3    H136068   4.035   4.183   1.598  1.0405  0.5999  1.2254
 4859TIP3    H236069   4.073   4.330   1.600 -1.3954  1.2594  3.3231
 4860TIP3   OH236070   2.572   4.371   5.199 -0.1376 -0.0486 -0.1058
 4860TIP3    H136071   2.561   4.437   5.268  1.4686 -0.1671  0.2902
 4860TIP3    H236072   2.543   4.416   5.119 -1.5697  0.2417  0.5421
 4861TIP3   OH236073   6.404   3.278   4.997  0.0933 -0.4949  0.2516
 4861TIP3    H136074   6.391   3.190   5.033 -1.8845 -1.1821 -1.9095
 4861TIP3    H236075   6.316   3.307   4.971  0.8362  1.7166 -0.0211
 4862TIP3   OH236076   1.072   3.615  14.102 -0.3302  0.6600 -0.3823
 4862TIP3    H136077   1.003   3.610  14.168 -2.4697  0.2032 -2.5133
 4862TIP3    H236078   1.074   3.707  14.076  0.6025  0.8655  0.3687
 4863TIP3   OH236079   2.227   3.389   5.178 -0.6508  0.0738 -0.1756
 4863TIP3    H136080   2.300   3.408   5.237 -0.3325 -1.5139 -0.0280
 4863TIP3    H236081   2.155   3.444   5.211 -0.5580 -0.9347  1.8669
 4864TIP3   OH236082   0.705   5.311  11.672  0.3296  0.4468 -0.1270
 4864TIP3    H136083   0.643   5.322  11.744 -0.9727 -0.5046 -1.0577
 4864TIP3    H236084   0.775   5.257  11.709  0.1367  0.7158  0.6622
 4865TIP3   OH236085   2.114   2.691   4.760 -0.0943  0.5653  0.6483
 4865TIP3    H136086   2.207   2.693   4.740 -0.0919 -0.2059  0.5420
 4865TIP3    H236087   2.078   2.769   4.717  0.3247  0.2948 -0.2041
 4866TIP3   OH236088   4.730   1.278   2.420  0.5741 -0.2575  0.2540
 4866TIP3    H136089   4.751   1.231   2.501 -3.2992  0.7914  2.1232
 4866TIP3    H236090   4.699   1.211   2.360  0.6233 -0.7158  0.7337
 4867TIP3   OH236091   4.809   3.568  15.475 -0.2010  0.7397  0.1502
 4867TIP3    H136092   4.852   3.564  15.389  0.3812 -2.8598  0.4666
 4867TIP3    H236093   4.880   3.583  15.537  0.2174 -1.6263  0.3453
 4868TIP3   OH236094   4.398   3.003  16.344 -0.0781 -0.5688  0.0220
 4868TIP3    H136095   4.468   2.956  16.390 -1.3704 -0.9658  1.6972
 4868TIP3    H236096   4.443   3.073  16.296  1.6739 -2.1355 -0.7603
 4869TIP3   OH236097   2.078   2.277  12.680  0.3285  0.1281 -0.2103
 4869TIP3    H136098   2.089   2.363  12.640  1.0637 -0.7921 -2.1191
 4869TIP3    H236099   2.096   2.215  12.609 -1.4822 -1.6049  0.7425
 4870TIP3   OH236100   2.980   0.835  12.447 -0.0752 -0.0631  0.3872
 4870TIP3    H136101   3.017   0.864  12.363 -0.3569 -0.5918  0.0703
 4870TIP3    H236102   3.045   0.861  12.512 -0.6828  2.0240  0.2391
 4871TIP3   OH236103   0.190   2.854   2.574  0.2809  0.8423 -0.6374
 4871TIP3    H136104   0.216   2.944   2.590  3.1765  0.2850 -1.6329
 4871TIP3    H236105   0.220   2.835   2.485 -1.0119 -0.8841 -0.7635
 4872TIP3   OH236106   2.120   4.510   1.366  0.2201 -0.1076 -0.9686
 4872TIP3    H136107   2.206   4.479   1.338  0.6051  0.9632 -1.0369
 4872TIP3    H236108   2.114   4.598   1.329 -1.1911 -0.4138 -1.5402
 4873TIP3   OH236109   1.649   5.788   2.301 -0.5781  0.0813 -0.3601
 4873TIP3    H136110   1.590   5.737   2.357 -1.6412  2.4261  0.8249
 4873TIP3    H236111   1.729   5.797   2.353 -0.1026 -0.9196 -0.8816
 4874TIP3   OH236112   3.526   1.844   6.266  0.2487  0.2160 -0.2814
 4874TIP3    H136113   3.525   1.769   6.326 -1.5380 -0.2688 -0.8492
 4874TIP3    H236114   3.434   1.862   6.249  0.6612  2.1684 -0.6671
 4875TIP3   OH236115   1.531   4.539   0.447 -0.1720 -0.3372  0.1696
 4875TIP3    H136116   1.506   4.626   0.415 -0.5392  0.1177  1.6229
 4875TIP3    H236117   1.485   4.478   0.391 -0.6885  0.4271 -0.2510
 4876TIP3   OH236118   2.474   4.907   3.616  0.1560  0.6277  0.5109
 4876TIP3    H136119   2.554   4.890   3.567 -0.1838  0.3802  0.0332
 4876TIP3    H236120   2.471   4.837   3.682  1.7510  2.1949  2.3859
 4877TIP3   OH236121   5.583   4.891  11.185 -0.0039  0.1803  0.0204
 4877TIP3    H136122   5.491   4.864  11.197  0.0417 -0.9440 -1.7552
 4877TIP3    H236123   5.581   4.986  11.191 -1.2753  0.1666  0.1296
 4878TIP3   OH236124   6.069   5.577  17.215  0.4201  0.4442  0.4928
 4878TIP3    H136125   6.086   5.667  17.244 -0.4429  0.7473  0.1030
 4878TIP3    H236126   6.014   5.587  17.137  2.9674 -0.3196 -1.5431
 4879TIP3   OH236127   6.594   1.954   3.963  0.0190 -0.0337  0.0633
 4879TIP3    H136128   6.565   1.992   4.046  0.4175 -0.1960  0.2806
 4879TIP3    H236129   6.574   1.861   3.972  0.8216 -0.1866  0.3133
 4880TIP3   OH236130   6.608   2.155   2.565 -0.1407 -0.2285  0.1262
 4880TIP3    H136131   6.640   2.239   2.532 -1.1684 -0.7391 -2.3521
 4880TIP3    H236132   6.521   2.145   2.525 -0.4796 -2.0119  1.1947
 4881TIP3   OH236133   2.685   3.657  14.703 -0.3966 -0.0910 -0.3195
 4881TIP3    H136134   2.703   3.686  14.792  1.9969 -0.6501 -0.5450
 4881TIP3    H236135   2.620   3.719  14.670 -0.4708  0.8237  1.4275
 4882TIP3   OH236136   4.037   6.527   1.705 -0.3233  0.2945  0.1587
 4882TIP3    H136137   4.096   6.458   1.674  0.3625  1.3153 -0.9127
 4882TIP3    H236138   4.061   6.539   1.797  0.5509  0.0700 -0.0256
 4883TIP3   OH236139   0.289   6.747   0.539  0.6310  0.1985 -0.5169
 4883TIP3    H136140   0.305   6.666   0.490  1.9270 -2.0031  3.1717
 4883TIP3    H236141   0.195   6.762   0.530  0.5948 -0.8219 -2.4630
 4884TIP3   OH236142   5.201   4.925   3.935  0.2515  0.0178  0.8682
 4884TIP3    H136143   5.119   4.901   3.978  0.4388  1.2175  1.9345
 4884TIP3    H236144   5.239   4.842   3.909 -0.7470 -0.6280  1.3926
 4885TIP3   OH236145   2.083   3.526   0.272  0.0414  0.7274  0.1121
 4885TIP3    H136146   2.073   3.614   0.237  0.5273  0.5000 -0.6462
 4885TIP3    H236147   2.117   3.475   0.198  1.5369  0.3093  1.0437
 4886TIP3   OH236148   6.377   1.915   5.603  0.1379  0.1206 -0.6880
 4886TIP3    H136149   6.354   1.838   5.551 -0.2744 -0.2015 -0.0397
 4886TIP3    H236150   6.342   1.897   5.690 -0.4579  1.2917 -0.6701
 4887TIP3   OH236151   1.299   3.819   2.637 -0.1639 -0.6526  0.1733
 4887TIP3    H136152   1.219   3.788   2.680  0.5072 -1.0611  1.1567
 4887TIP3    H236153   1.317   3.753   2.569 -0.7785 -0.4372 -0.2070
 4888TIP3   OH236154   4.320   3.567   4.742  0.2431 -0.4905 -0.0876
 4888TIP3    H136155   4.259   3.639   4.727  0.6335 -0.3012 -0.7715
 4888TIP3    H236156   4.405   3.601   4.718  0.4562 -1.1276 -0.2624
 4889TIP3   OH236157   5.226   3.437  15.586 -0.0396  0.1503 -0.3351
 4889TIP3    H136158   5.220   3.458  15.679 -0.9560 -0.5986 -0.2095
 4889TIP3    H236159   5.254   3.346  15.584  1.3128  0.5564 -0.8273
 4890TIP3   OH236160   4.001   1.149  15.608  0.0455 -0.6992  0.0167
 4890TIP3    H136161   4.094   1.128  15.600  0.0781 -0.3916 -0.4685
 4890TIP3    H236162   3.962   1.072  15.648  0.0824 -1.9031 -2.1134
 4891TIP3   OH236163   3.756   0.913  11.222  0.4073 -0.2178 -0.6781
 4891TIP3    H136164   3.692   0.982  11.205  0.4915 -0.1773 -0.8332
 4891TIP3    H236165   3.778   0.923  11.315  2.8035  2.0320 -1.3780
 4892TIP3   OH236166   2.566   4.902  13.605  0.2136  0.3947  0.5681
 4892TIP3    H136167   2.617   4.839  13.555  0.1578  0.5744  0.2788
 4892TIP3    H236168   2.521   4.954  13.538  0.5972  1.0215  0.7901
 4893TIP3   OH236169   2.094   4.148   0.659 -0.2102 -0.2994 -0.0509
 4893TIP3    H136170   2.047   4.229   0.639 -0.6636 -0.3962  0.5640
 4893TIP3    H236171   2.186   4.168   0.642 -0.1447  0.8080  1.4337
 4894TIP3   OH236172   4.515   5.452   3.391  0.3436 -0.2061  0.1555
 4894TIP3    H136173   4.442   5.505   3.423  1.2874  1.2974 -0.0815
 4894TIP3    H236174   4.568   5.435   3.469  1.0609  0.8962 -0.0671
 4895TIP3   OH236175   6.002   5.088  11.659 -0.0170  0.3486 -0.0805
 4895TIP3    H136176   6.035   5.025  11.595  0.2492  0.5377 -0.1284
 4895TIP3    H236177   5.943   5.037  11.714 -0.9093  0.3529 -0.9852
 4896TIP3   OH236178   1.348   2.326  11.229  0.0323  0.1289  0.0976
 4896TIP3    H136179   1.355   2.266  11.303  0.6039 -0.2267 -0.2332
 4896TIP3    H236180   1.329   2.411  11.268  0.1917 -0.0825  0.6466
 4897TIP3   OH236181   0.699   1.159   4.521  0.3355 -0.2167  0.1853
 4897TIP3    H136182   0.620   1.121   4.558  0.9050 -1.6102  0.0402
 4897TIP3    H236183   0.679   1.253   4.512 -1.2268 -0.5139  0.2755
 4898TIP3   OH236184   1.448   3.847   3.269 -0.1447  0.0902  0.7482
 4898TIP3    H136185   1.383   3.823   3.204  0.5220  1.5016 -0.5106
 4898TIP3    H236186   1.414   3.926   3.311 -0.0283 -0.1504  1.3204
 4899TIP3   OH236187   0.681   3.306  11.399 -0.2253 -0.4119  0.1977
 4899TIP3    H136188   0.650   3.266  11.317  0.0308 -1.1072  0.4341
 4899TIP3    H236189   0.611   3.368  11.423  0.0226  0.3330 -0.9146
 4900TIP3   OH236190   3.271   6.277  11.160 -0.9211 -0.7026  0.3440
 4900TIP3    H136191   3.252   6.258  11.068  0.5024 -1.1953  0.1177
 4900TIP3    H236192   3.246   6.369  11.172  0.4946 -0.0942 -1.0366
 4901TIP3   OH236193   1.505   0.266  14.412  0.1329 -0.7343  0.2250
 4901TIP3    H136194   1.493   0.347  14.463  0.0834  0.0776 -1.0389
 4901TIP3    H236195   1.591   0.275  14.372  0.0201 -1.1941 -0.1272
 4902TIP3   OH236196   2.304   1.363  16.823 -0.2818 -0.0300 -0.7490
 4902TIP3    H136197   2.326   1.272  16.843 -1.6151  0.1840  2.3386
 4902TIP3    H236198   2.388   1.410  16.831  0.2464 -0.8402 -1.3917
 4903TIP3   OH236199   2.420   5.557  11.912  0.0681 -0.0671 -0.4535
 4903TIP3    H136200   2.359   5.618  11.871 -0.3951 -0.2517 -0.0503
 4903TIP3    H236201   2.373   5.473  11.912  0.7993 -0.5097 -1.2662
 4904TIP3   OH236202   3.462   1.825   0.873 -0.0712 -0.0660  0.0655
 4904TIP3    H136203   3.468   1.766   0.798  0.2035  0.2354 -0.1555
 4904TIP3    H236204   3.419   1.904   0.839  0.8362  0.4210 -0.0089
 4905TIP3   OH236205   0.120   0.695   3.137  0.2863 -0.0157 -0.6081
 4905TIP3    H136206   0.084   0.765   3.191  1.6130 -0.6282  1.1284
 4905TIP3    H236207   0.161   0.740   3.063 -2.3298  0.7905 -1.7157
 4906TIP3   OH236208   5.484   1.687   1.533  0.4212 -0.2139 -0.3647
 4906TIP3    H136209   5.407   1.708   1.585  1.6217  1.9965  0.6893
 4906TIP3    H236210   5.449   1.652   1.451 -1.6655  0.1081  0.3242
 4907TIP3   OH236211   5.478   1.318   0.900 -0.2604  0.7479 -0.0869
 4907TIP3    H136212   5.528   1.247   0.860 -1.8813  0.3218 -1.4863
 4907TIP3    H236213   5.536   1.394   0.898  0.8074 -0.0597 -0.3442
 4908TIP3   OH236214   2.834   1.081  11.317 -0.1034  0.9039 -0.5618
 4908TIP3    H136215   2.760   1.139  11.334  0.3677  1.3148  0.0987
 4908TIP3    H236216   2.794   0.993  11.314 -0.5120  1.0388  0.5521
 4909TIP3   OH236217   4.708   3.838  15.527  0.0607  0.6815 -0.4628
 4909TIP3    H136218   4.775   3.771  15.537  0.5883  1.2559 -0.0674
 4909TIP3    H236219   4.683   3.859  15.617  1.6526  2.7381 -0.4313
 4910TIP3   OH236220   0.903   6.039   3.260  0.2002 -0.4147 -0.1959
 4910TIP3    H136221   0.894   6.068   3.350 -1.0727 -1.7444  0.1450
 4910TIP3    H236222   0.993   6.061   3.236  0.2380  0.8897  1.0318
 4911TIP3   OH236223   3.683   1.839   4.723 -0.1725 -0.1238  0.3277
 4911TIP3    H136224   3.752   1.776   4.745 -0.1160 -0.0233  0.4370
 4911TIP3    H236225   3.613   1.786   4.684 -0.7045 -0.4579  1.6596
 4912TIP3   OH236226   0.934   4.039   3.453  0.0107 -1.3856  0.0424
 4912TIP3    H136227   0.898   3.953   3.431 -0.6509 -0.9584 -0.5737
 4912TIP3    H236228   0.878   4.072   3.523  0.2591 -1.4498  0.2731
 4913TIP3   OH236229   1.690   5.600   4.618 -0.0619 -0.1051 -0.0245
 4913TIP3    H136230   1.676   5.531   4.553 -0.9804  0.3342 -0.3015
 4913TIP3    H236231   1.767   5.648   4.586  1.1479 -1.5169  0.6370
 4914TIP3   OH236232   0.791   0.871  15.983  0.0584  0.2233 -0.5888
 4914TIP3    H136233   0.840   0.858  16.065  0.3199  1.2441 -0.5709
 4914TIP3    H236234   0.770   0.782  15.954  0.7446 -0.1903  0.1190
 4915TIP3   OH236235   4.120   0.063   2.292 -0.6058  0.6081 -0.1973
 4915TIP3    H136236   4.210   0.034   2.307 -0.1037  1.3372 -1.5930
 4915TIP3    H236237   4.125   0.158   2.294 -1.5421  0.6485  0.6655
 4916TIP3   OH236238   1.725   4.644   1.333 -0.1328  0.2506  0.3203
 4916TIP3    H136239   1.766   4.652   1.419 -1.4273  0.4078  0.9498
 4916TIP3    H236240   1.678   4.726   1.320 -0.6956 -0.1323 -0.1357
 4917TIP3   OH236241   0.072   3.370  15.272 -0.4826  0.6357 -0.2512
 4917TIP3    H136242   0.041   3.460  15.264 -0.4421  0.6241 -0.5676
 4917TIP3    H236243   0.045   3.343  15.359 -0.2902  1.0335 -0.0619
 4918TIP3   OH236244   2.252   0.917   3.206 -0.6024 -1.0046  0.3823
 4918TIP3    H136245   2.176   0.967   3.236  0.2799  0.2861  0.5456
 4918TIP3    H236246   2.257   0.935   3.112 -0.1158 -0.5667  0.4935
 4919TIP3   OH236247   6.573   1.132   1.586 -0.5404  0.5393 -0.0307
 4919TIP3    H136248   6.623   1.054   1.609 -1.5025  0.5080  2.2423
 4919TIP3    H236249   6.638   1.201   1.578  0.0807  0.0655  0.7609
 4920TIP3   OH236250   2.709   0.627  15.459 -0.3504 -0.1086  0.2047
 4920TIP3    H136251   2.639   0.634  15.394 -0.4505 -0.0345  0.3176
 4920TIP3    H236252   2.675   0.567  15.525 -0.5036  0.2889  0.4982
 4921TIP3   OH236253   0.904   0.137   1.104 -0.3359 -0.2990  0.0079
 4921TIP3    H136254   0.963   0.088   1.047 -1.8682 -1.2690 -0.8192
 4921TIP3    H236255   0.876   0.211   1.051  0.3787  0.3508  0.5219
 4922TIP3   OH236256   0.801   2.818   6.782 -0.2225  0.1349 -0.2346
 4922TIP3    H136257   0.865   2.768   6.732  2.3888  2.6327  0.3305
 4922TIP3    H236258   0.732   2.755   6.803  1.1343 -2.2784 -2.4310
 4923TIP3   OH236259   5.738   0.850  12.562 -0.6159 -0.2294 -0.4594
 4923TIP3    H136260   5.714   0.903  12.486 -3.0057 -1.2150 -0.4619
 4923TIP3    H236261   5.655   0.828  12.603  0.5390 -1.0328  1.5635
 4924TIP3   OH236262   0.165   0.113  13.293 -0.6084 -0.7073  0.5348
 4924TIP3    H136263   0.223   0.164  13.349  0.2646 -0.2851 -0.7062
 4924TIP3    H236264   0.195   0.022  13.304 -0.5839 -0.6542  0.9145
 4925TIP3   OH236265   0.210   3.466   4.527 -0.5642 -0.4434  0.0682
 4925TIP3    H136266   0.159   3.415   4.465 -1.7203  0.1695  0.4958
 4925TIP3    H236267   0.295   3.422   4.531 -1.1417 -1.6234 -0.4526
 4926TIP3   OH236268   0.425   2.441   2.831  0.1702 -0.0175 -0.0610
 4926TIP3    H136269   0.406   2.453   2.737  0.2343  0.8726  0.0356
 4926TIP3    H236270   0.365   2.501   2.875  1.3711  0.9022  0.3746
 4927TIP3   OH236271   6.244   6.689   1.594  0.2071  0.4620  0.2440
 4927TIP3    H136272   6.305   6.679   1.668 -1.1246  0.5398  1.4022
 4927TIP3    H236273   6.157   6.691   1.635 -0.6499 -0.5706 -1.4371
 4928TIP3   OH236274   3.000   4.812   5.169  0.1800  0.5026  0.1763
 4928TIP3    H136275   2.932   4.746   5.153  1.0575 -0.2435 -0.5949
 4928TIP3    H236276   3.003   4.862   5.087  0.2701  0.8121  0.3675
 4929TIP3   OH236277   5.962   3.200  10.989 -0.3507 -0.2779  0.0131
 4929TIP3    H136278   5.875   3.165  10.971  0.4230 -2.7117  0.5969
 4929TIP3    H236279   5.998   3.221  10.902 -1.5553  0.9464 -0.2159
 4930TIP3   OH236280   5.304   2.041   4.100  0.1031 -0.1963 -0.2464
 4930TIP3    H136281   5.268   1.970   4.154 -0.1959 -0.3573 -0.6514
 4930TIP3    H236282   5.284   2.121   4.149  0.4210 -0.3895  0.2032
 4931TIP3   OH236283   2.888   1.908   3.345 -0.0896  0.1245  0.9522
 4931TIP3    H136284   2.945   1.972   3.387  0.4425 -0.0477  0.5150
 4931TIP3    H236285   2.943   1.830   3.335  0.2380  0.5554 -1.1730
 4932TIP3   OH236286   1.630   5.746  12.093  0.0926 -0.3173 -0.1839
 4932TIP3    H136287   1.713   5.771  12.133  0.1800 -1.2053  0.1994
 4932TIP3    H236288   1.565   5.762  12.162  0.2934 -2.2514  0.5082
 4933TIP3   OH236289   0.383   0.359  13.244  0.8120 -0.5605  0.5043
 4933TIP3    H136290   0.472   0.329  13.226  1.0773  1.4250 -2.0800
 4933TIP3    H236291   0.351   0.393  13.160 -2.1075 -0.4576  1.5302
 4934TIP3   OH236292   6.037   3.104  11.857  0.4451  0.5711  0.0444
 4934TIP3    H136293   6.122   3.061  11.853  0.5066  0.2435  2.7073
 4934TIP3    H236294   5.981   3.042  11.903 -1.1947  0.9025 -1.4107
 4935TIP3   OH236295   1.082   5.945  15.316 -0.1291 -0.1796 -0.6502
 4935TIP3    H136296   1.018   6.014  15.295  0.2378  0.1831 -0.5779
 4935TIP3    H236297   1.098   5.955  15.410  1.6385  1.1170 -1.0486
 4936TIP3   OH236298   1.568   4.617   5.006  0.0897  0.5231 -0.2579
 4936TIP3    H136299   1.640   4.599   4.945 -0.0259  0.5422 -0.4005
 4936TIP3    H236300   1.590   4.702   5.044  1.2766 -0.4416  1.3366
 4937TIP3   OH236301   2.502   6.680   4.720  0.4052  0.3980 -0.4755
 4937TIP3    H136302   2.430   6.672   4.783 -0.4729 -0.4153 -1.5450
 4937TIP3    H236303   2.569   6.729   4.767 -0.2210 -0.1736  1.0966
 4938TIP3   OH236304   4.381   1.722  11.278  0.2020  1.1356 -0.3168
 4938TIP3    H136305   4.286   1.727  11.274  0.0963 -0.7040 -0.7374
 4938TIP3    H236306   4.411   1.777  11.206 -0.4905  2.3954  0.3282
 4939TIP3   OH236307   1.639   6.410  11.695  0.7369  0.4750 -0.5189
 4939TIP3    H136308   1.580   6.422  11.620  0.4644  0.8495 -0.2459
 4939TIP3    H236309   1.700   6.483  11.688  0.0964  1.0907  0.1940
 4940TIP3   OH236310   6.564   3.796   6.658 -0.4305 -0.0790 -0.2818
 4940TIP3    H136311   6.482   3.810   6.705  0.6985  0.7044  1.5779
 4940TIP3    H236312   6.560   3.858   6.584 -0.5098  1.7914  1.2023
 4941TIP3   OH236313   4.474   0.386  13.975 -0.0991  0.0211 -0.6183
 4941TIP3    H136314   4.535   0.313  13.978  0.4137  0.4602 -0.0244
 4941TIP3    H236315   4.498   0.433  13.895  1.4208  1.0759  0.3997
 4942TIP3   OH236316   6.670   5.075  14.525  0.2139 -0.5981  0.1904
 4942TIP3    H136317   6.642   5.073  14.434  0.7907 -2.0469  0.0323
 4942TIP3    H236318   6.672   5.169  14.547 -1.0606 -0.2850 -0.9105
 4943TIP3   OH236319   5.796   0.781  12.234  0.2743 -0.4123  0.0109
 4943TIP3    H136320   5.703   0.763  12.243  0.3262 -0.4757  0.4365
 4943TIP3    H236321   5.805   0.817  12.145  0.0216 -1.5039 -0.4756
 4944TIP3   OH236322   1.819   3.943   1.191  0.6916 -0.6325  0.0909
 4944TIP3    H136323   1.868   4.001   1.132  1.8870 -0.0538  1.6011
 4944TIP3    H236324   1.883   3.879   1.220 -0.3800 -2.1662 -0.7585
 4945TIP3   OH236325   3.140   5.332   5.493  0.3205  0.4363 -0.5185
 4945TIP3    H136326   3.186   5.412   5.516  0.0284  0.2810  0.6604
 4945TIP3    H236327   3.073   5.322   5.560 -0.2185 -0.3409 -1.1410
 4946TIP3   OH236328   1.279   2.038   0.633  0.5429 -0.1665 -0.2392
 4946TIP3    H136329   1.221   1.963   0.643  0.5139 -0.0883  0.2128
 4946TIP3    H236330   1.268   2.088   0.714  0.0429  0.6919 -0.8106
 4947TIP3   OH236331   0.993   2.947   3.868 -1.0642 -0.2761 -0.3406
 4947TIP3    H136332   1.082   2.975   3.890 -1.5856  0.0090  1.6716
 4947TIP3    H236333   0.973   2.991   3.785  0.9176 -0.9594 -1.2399
 4948TIP3   OH236334   2.775   3.918  10.580 -0.0513 -0.4955 -0.4575
 4948TIP3    H136335   2.785   3.839  10.527  0.4703  0.1334 -1.3281
 4948TIP3    H236336   2.736   3.888  10.661 -1.1873 -1.4475 -1.3274
 4949TIP3   OH236337   4.916   4.441   5.248 -0.0763 -0.0341  0.3327
 4949TIP3    H136338   4.843   4.469   5.192  0.3449  2.0221  0.7220
 4949TIP3    H236339   4.983   4.413   5.186  0.3414  2.1014 -0.2792
 4950TIP3   OH236340   5.211   0.728   4.813  0.0048  0.0437  0.7177
 4950TIP3    H136341   5.185   0.651   4.863  1.2099 -1.5653 -1.0054
 4950TIP3    H236342   5.297   0.705   4.777 -0.1729  1.6911 -0.9022
 4951TIP3   OH236343   4.975   3.424  14.974  0.4370  0.4411  0.6739
 4951TIP3    H136344   4.998   3.331  14.966  0.1332  0.3557  0.7874
 4951TIP3    H236345   4.903   3.426  15.037  1.0997  0.8585  1.4293
 4952TIP3   OH236346   4.610   1.425   0.309  0.1307  0.4508 -0.3968
 4952TIP3    H136347   4.678   1.460   0.366  0.1997  1.3777 -1.0234
 4952TIP3    H236348   4.633   1.458   0.222 -0.2957 -0.4584 -0.8698
 4953TIP3   OH236349   1.363   6.172  15.991 -0.3474  0.7245  0.5713
 4953TIP3    H136350   1.295   6.169  16.058 -0.4766  2.2889  0.5563
 4953TIP3    H236351   1.361   6.263  15.960  1.6030  0.7421  0.4163
 4954TIP3   OH236352   4.474   6.338   0.789 -0.5020 -0.1043  0.2795
 4954TIP3    H136353   4.439   6.423   0.816  0.6653  0.4258  0.1809
 4954TIP3    H236354   4.560   6.334   0.831 -0.9391 -1.6803  1.0864
 4955TIP3   OH236355   2.556   4.180   1.246  0.1445  0.1032 -0.0229
 4955TIP3    H136356   2.605   4.159   1.325 -1.1289 -0.0260  0.7598
 4955TIP3    H236357   2.492   4.245   1.274  0.1944  0.6536 -1.1290
 4956TIP3   OH236358   5.323   4.322   4.649 -0.5600 -0.4508 -0.1676
 4956TIP3    H136359   5.416   4.306   4.638 -0.3207  0.6813  0.1471
 4956TIP3    H236360   5.315   4.363   4.735 -1.0006  1.9729 -1.2698
 4957TIP3   OH236361   4.434   0.512  12.087 -0.0962  0.3839  0.2536
 4957TIP3    H136362   4.495   0.483  12.019 -1.3786 -0.3785 -0.6229
 4957TIP3    H236363   4.353   0.464  12.068 -0.3945 -0.0950  2.5289
 4958TIP3   OH236364   0.581   0.444   5.298 -0.0397  0.0121  1.0067
 4958TIP3    H136365   0.596   0.504   5.226 -2.4731 -0.7649 -0.2626
 4958TIP3    H236366   0.641   0.473   5.367 -0.6091  3.4383  0.2291
 4959TIP3   OH236367   2.981   3.415   3.092  0.4292 -0.2605 -0.1249
 4959TIP3    H136368   2.914   3.453   3.148 -0.2134 -0.2870 -0.8583
 4959TIP3    H236369   3.050   3.388   3.152 -0.5247 -0.8771  0.7250
 4960TIP3   OH236370   5.715   6.756  15.648  0.3639 -0.5183 -0.2535
 4960TIP3    H136371   5.690   6.670  15.682  1.2975 -1.2777 -1.4196
 4960TIP3    H236372   5.654   6.771  15.575  0.7799 -0.5952 -0.6167
 4961TIP3   OH236373   6.783   4.536  16.530 -1.0200  0.1523 -0.4864
 4961TIP3    H136374   6.874   4.563  16.538 -1.1104  0.1685  0.7690
 4961TIP3    H236375   6.733   4.617  16.543 -1.2299 -0.0662  0.0878
 4962TIP3   OH236376   3.126   3.748   0.852 -0.1359 -0.3499 -0.2350
 4962TIP3    H136377   3.103   3.840   0.861  2.2036  0.2451  0.3420
 4962TIP3    H236378   3.125   3.732   0.757 -0.3392  0.3250 -0.3500
 4963TIP3   OH236379   6.713   0.089  13.847  0.0167  0.3732 -0.5279
 4963TIP3    H136380   6.706   0.002  13.887 -0.2238  0.5740 -0.1258
 4963TIP3    H236381   6.729   0.147  13.921 -1.0831  0.8370 -0.6420
 4964TIP3   OH236382   1.136   6.512  14.506  0.0441 -0.1267  0.0026
 4964TIP3    H136383   1.143   6.477  14.595  0.3979 -0.6976 -0.2439
 4964TIP3    H236384   1.046   6.493  14.480  0.3453 -1.2473 -0.2781
 4965TIP3   OH236385   1.701   5.093  10.449  0.3433 -0.3349 -0.3480
 4965TIP3    H136386   1.771   5.137  10.497  0.5945 -0.5521 -0.5092
 4965TIP3    H236387   1.620   5.127  10.487  0.5180  0.7629 -0.9074
 4966TIP3   OH236388   3.890   3.619   0.052 -0.2462  0.3003 -0.1608
 4966TIP3    H136389   3.859   3.542   0.004 -2.0700  0.8263  0.0724
 4966TIP3    H236390   3.813   3.676   0.057  0.5350  1.2888  1.3477
 4967TIP3   OH236391   3.155   6.629  15.850 -0.2169 -0.3881  0.0031
 4967TIP3    H136392   3.190   6.701  15.798  0.7487 -1.6097 -1.1152
 4967TIP3    H236393   3.154   6.662  15.940 -1.4386  1.5901 -0.6712
 4968TIP3   OH236394   2.087   1.669   6.111  0.7509 -0.4664  0.1430
 4968TIP3    H136395   2.037   1.725   6.170  0.2954  0.0090 -0.6727
 4968TIP3    H236396   2.149   1.623   6.168 -0.5416 -1.0070  1.1772
 4969TIP3   OH236397   1.531   5.160  12.379 -0.7590  0.2200  0.5328
 4969TIP3    H136398   1.602   5.096  12.380 -1.3592 -0.4668 -0.1652
 4969TIP3    H236399   1.575   5.243  12.358 -0.0387 -0.0224  1.0354
 4970TIP3   OH236400   5.484   6.346  13.364 -0.4036 -0.9323 -0.3245
 4970TIP3    H136401   5.410   6.360  13.305 -0.5775  0.3272  0.1625
 4970TIP3    H236402   5.448   6.361  13.451  0.8746  1.9967 -0.1905
 4971TIP3   OH236403   3.182   1.591   4.765  0.5803  0.0585 -0.2240
 4971TIP3    H136404   3.159   1.542   4.843  0.8889  0.1631 -0.0644
 4971TIP3    H236405   3.205   1.524   4.700  2.3352 -0.0008  0.4129
 4972TIP3   OH236406   0.132   2.736   1.650 -0.2892 -0.0506  0.4356
 4972TIP3    H136407   0.059   2.742   1.590  0.3385 -0.9051 -0.4489
 4972TIP3    H236408   0.094   2.748   1.737 -1.4058 -0.0964 -0.0415
 4973TIP3   OH236409   3.997   1.643   1.685 -0.0581 -0.0537  0.0434
 4973TIP3    H136410   4.082   1.624   1.645 -0.4322  1.2079 -1.4377
 4973TIP3    H236411   3.948   1.561   1.676 -0.1604  0.1866 -2.2744
 4974TIP3   OH236412   6.178   4.655  16.038 -0.2463 -0.2853 -0.2200
 4974TIP3    H136413   6.174   4.739  16.084  0.2819  0.0022 -0.6920
 4974TIP3    H236414   6.175   4.678  15.945 -0.1218 -0.7896 -0.3537
 4975TIP3   OH236415   5.259   0.252   4.092  0.0565  0.2611  0.4186
 4975TIP3    H136416   5.235   0.278   4.181  0.2809  0.8956  0.3023
 4975TIP3    H236417   5.190   0.290   4.037  0.3320  0.5324  0.2556
 4976TIP3   OH236418   6.730   4.449   2.586 -0.1624 -0.0773 -0.0617
 4976TIP3    H136419   6.694   4.432   2.673  0.7428 -1.1055  0.1442
 4976TIP3    H236420   6.705   4.539   2.566  2.0321  1.2496  2.5172
 4977TIP3   OH236421   0.097   0.991   5.140  1.2644 -0.2887 -0.0546
 4977TIP3    H136422   0.078   0.976   5.048  0.8248 -0.2382  0.0229
 4977TIP3    H236423   0.154   0.919   5.165  0.0164 -1.2652  0.0555
 4978TIP3   OH236424   2.768   5.892  10.569 -0.4246  0.0609 -0.1774
 4978TIP3    H136425   2.836   5.876  10.504  0.7771  1.9948  0.5253
 4978TIP3    H236426   2.777   5.985  10.590 -0.8550 -0.4702  2.6694
 4979TIP3   OH236427   6.516   3.940  12.557 -0.3419  0.1297  0.3830
 4979TIP3    H136428   6.481   4.015  12.509  1.2911  0.4506 -0.3909
 4979TIP3    H236429   6.598   3.919  12.512 -0.0668 -1.2372  1.4514
 4980TIP3   OH236430   5.895   5.347  16.655  0.3203 -0.1936 -0.4400
 4980TIP3    H136431   5.917   5.254  16.659  1.2409  0.0455  1.9399
 4980TIP3    H236432   5.968   5.391  16.698 -1.4728  1.3206  1.2471
 4981TIP3   OH236433   6.516   1.446   4.768  0.1869 -0.0946  0.4877
 4981TIP3    H136434   6.490   1.532   4.800 -1.4979 -0.7699  1.0204
 4981TIP3    H236435   6.445   1.417   4.711  1.4227 -0.5223 -0.9249
 4982TIP3   OH236436   3.503   2.569  15.170 -0.6105 -0.4963  0.0462
 4982TIP3    H136437   3.551   2.503  15.121  0.0406 -0.7894  1.0476
 4982TIP3    H236438   3.411   2.541  15.165 -0.3743 -1.3305  0.2274
 4983TIP3   OH236439   2.140   2.606  16.964  0.5166 -0.2039 -0.1498
 4983TIP3    H136440   2.116   2.592  16.872  1.6464 -1.2867 -0.3189
 4983TIP3    H236441   2.087   2.543  17.013  1.3599 -1.0428 -0.2906
 4984TIP3   OH236442   1.467   0.232  16.368 -0.1635 -0.0184  0.1309
 4984TIP3    H136443   1.541   0.231  16.428 -1.4471 -2.6032  1.8630
 4984TIP3    H236444   1.411   0.303  16.398 -0.7820 -1.2687  2.1106
 4985TIP3   OH236445   4.187   1.859  14.113  0.1001 -0.3391  0.0651
 4985TIP3    H136446   4.117   1.796  14.097 -1.1054  1.4978 -2.6685
 4985TIP3    H236447   4.212   1.844  14.204  0.5607 -5.2905 -0.6329
 4986TIP3   OH236448   1.511   1.051   3.085 -0.4170 -0.4937  0.1335
 4986TIP3    H136449   1.465   1.011   3.011  0.1386 -2.3595  0.7670
 4986TIP3    H236450   1.460   1.130   3.104 -1.0595 -0.4309 -1.6842
 4987TIP3   OH236451   4.953   4.161   3.457 -0.2810  0.1827  0.0073
 4987TIP3    H136452   4.905   4.084   3.427 -0.5404 -0.1410  1.1937
 4987TIP3    H236453   4.908   4.235   3.416 -1.1290 -0.1884  0.2618
 4988TIP3   OH236454   2.525   1.174   5.259 -0.1785  0.4870 -0.0401
 4988TIP3    H136455   2.551   1.233   5.189  1.0304  0.8102  0.6681
 4988TIP3    H236456   2.474   1.228   5.319  3.1522  1.6148  2.0144
 4989TIP3   OH236457   5.919   5.675   4.498 -0.4739 -0.1599  0.1988
 4989TIP3    H136458   5.908   5.734   4.423 -1.5791 -2.3364 -1.4969
 4989TIP3    H236459   5.914   5.732   4.575 -1.4793  1.9193 -1.2998
 4990TIP3   OH236460   2.644   2.024  11.554 -0.1040 -0.0905 -0.2055
 4990TIP3    H136461   2.575   1.964  11.525 -0.4970  0.5322 -0.5962
 4990TIP3    H236462   2.640   2.021  11.649 -0.0499 -0.7586 -0.2192
 4991TIP3   OH236463   1.164   1.264  15.634  0.1099  0.2889 -0.6261
 4991TIP3    H136464   1.070   1.244  15.629  0.1368 -0.0401  0.1496
 4991TIP3    H236465   1.182   1.310  15.552 -0.6733  0.1254 -0.9032
 4992TIP3   OH236466   4.776   5.222   0.962 -0.2261  0.4370 -0.1151
 4992TIP3    H136467   4.805   5.193   1.048 -1.3572 -0.3460  0.0166
 4992TIP3    H236468   4.698   5.169   0.943 -0.3018  0.9644 -1.3873
 4993TIP3   OH236469   2.559   1.637   2.148  0.4403  0.0121  0.2562
 4993TIP3    H136470   2.624   1.590   2.200 -0.5150 -1.1349  0.4393
 4993TIP3    H236471   2.602   1.720   2.126  1.7430 -0.4771  0.8560
 4994TIP3   OH236472   0.825   1.572   1.435  0.2911 -0.3165 -0.6163
 4994TIP3    H136473   0.917   1.591   1.421  0.1740 -0.5177 -1.7559
 4994TIP3    H236474   0.815   1.480   1.412 -0.0462 -0.5141  0.2793
 4995TIP3   OH236475   2.810   2.001   0.545  0.6489 -0.0688  0.4526
 4995TIP3    H136476   2.855   1.977   0.464 -1.5616 -0.0783 -0.8227
 4995TIP3    H236477   2.783   1.917   0.582 -1.5078  0.0548 -0.7221
 4996TIP3   OH236478   0.952   5.943   1.165 -0.0447 -0.1916 -0.0163
 4996TIP3    H136479   0.976   5.857   1.198  0.7009 -1.3628 -3.2152
 4996TIP3    H236480   1.035   5.987   1.148 -0.3565  0.1340 -0.7688
 4997TIP3   OH236481   3.676   1.554   1.482 -0.3524 -0.6978  0.1910
 4997TIP3    H136482   3.754   1.506   1.507  0.2205 -0.9200 -1.8364
 4997TIP3    H236483   3.644   1.509   1.404 -0.1459  1.7779 -1.4431
 4998TIP3   OH236484   1.872   2.362   4.625  0.4512 -0.8476  0.1035
 4998TIP3    H136485   1.859   2.423   4.553 -0.1745  0.4092  1.2229
 4998TIP3    H236486   1.794   2.307   4.625  0.1507 -0.4237  0.2081
 4999TIP3   OH236487   2.943   3.673  16.509  0.6658 -0.4423 -0.0172
 4999TIP3    H136488   3.007   3.666  16.580  0.9522  0.0582 -0.2213
 4999TIP3    H236489   2.869   3.620  16.538  0.5633  0.1853  0.8891
 5000TIP3   OH236490   2.542   0.467   2.053 -0.3229 -0.5924  0.2881
 5000TIP3    H136491   2.630   0.464   2.091 -0.2962  2.2713  0.6373
 5000TIP3    H236492   2.495   0.531   2.106 -2.4730 -1.6128 -0.2829
 5001TIP3   OH236493   5.048   3.785   5.522 -0.0507 -0.0502  0.7494
 5001TIP3    H136494   5.107   3.793   5.447  1.0230 -0.4970  1.5192
 5001TIP3    H236495   4.990   3.861   5.514  1.6013  1.2908  0.7841
 5002TIP3   OH236496   2.689   6.028   0.514  0.3996 -0.1655  0.3207
 5002TIP3    H136497   2.628   5.969   0.470  1.5774 -0.6368 -0.7714
 5002TIP3    H236498   2.707   6.096   0.449  1.2783 -0.2166  0.5001
 5003TIP3   OH236499   0.744   2.905  17.044 -0.3824  0.0154  0.1322
 5003TIP3    H136500   0.741   2.860  16.959  0.5650 -0.0578  0.1279
 5003TIP3    H236501   0.694   2.985  17.030  0.9155  0.6844 -0.9256
 5004TIP3   OH236502   4.711   2.862   0.177 -0.2526 -0.2944  0.0257
 5004TIP3    H136503   4.667   2.931   0.126 -1.4977  0.3136  1.8270
 5004TIP3    H236504   4.726   2.792   0.114  1.0720  1.5772 -1.8892
 5005TIP3   OH236505   2.610   2.266   5.124 -0.7291 -0.1360 -0.2847
 5005TIP3    H136506   2.550   2.194   5.144  0.1939 -1.0308 -0.6692
 5005TIP3    H236507   2.633   2.303   5.209  0.0317 -1.3392  0.0618
 5006TIP3   OH236508   6.345   0.093  12.912  0.4638 -0.5333  0.3031
 5006TIP3    H136509   6.303   0.179  12.913  0.1470 -0.6868  0.1736
 5006TIP3    H236510   6.305   0.047  12.839  1.5207 -0.3624 -0.4002
 5007TIP3   OH236511   0.755   0.553   2.591  0.2481  0.6086  0.4599
 5007TIP3    H136512   0.804   0.483   2.634  1.2985  0.8174 -0.3728
 5007TIP3    H236513   0.664   0.523   2.594  0.8475 -1.6100 -1.3427
 5008TIP3   OH236514   0.828   2.467  15.309  0.0960 -0.1469 -0.1507
 5008TIP3    H136515   0.752   2.504  15.354 -0.3812  0.5089 -1.4239
 5008TIP3    H236516   0.791   2.405  15.246  0.6886 -0.5051 -0.1588
 5009TIP3   OH236517   1.195   5.163  17.189 -0.3572 -0.2613  0.3247
 5009TIP3    H136518   1.176   5.186  17.280 -0.2018  0.8189  0.0909
 5009TIP3    H236519   1.133   5.215  17.138  0.6581  0.3922 -0.2648
 5010TIP3   OH236520   4.837   0.938  17.033  0.1516 -0.0527 -0.4393
 5010TIP3    H136521   4.925   0.901  17.033 -0.0125 -0.4449 -0.5850
 5010TIP3    H236522   4.844   1.017  17.088  1.1214  1.1834 -2.2373
 5011TIP3   OH236523   4.351   3.309   4.749 -0.2246 -0.2451 -0.6282
 5011TIP3    H136524   4.356   3.402   4.727 -0.9670  0.4935  1.9748
 5011TIP3    H236525   4.275   3.302   4.806  0.8711 -2.1200  0.7171
 5012TIP3   OH236526   5.576   3.060  12.468 -0.1079  0.5555 -0.4340
 5012TIP3    H136527   5.661   3.021  12.489 -0.9146 -0.2640  1.6389
 5012TIP3    H236528   5.536   3.000  12.406  0.0624 -0.1226  0.0947
 5013TIP3   OH236529   1.584   0.665  16.247 -0.2644 -0.1115 -0.5620
 5013TIP3    H136530   1.563   0.737  16.188  0.5439  0.0851 -0.6103
 5013TIP3    H236531   1.583   0.704  16.334 -1.6462 -0.4410 -0.3968
 5014TIP3   OH236532   1.270   2.598  14.896 -0.4694  0.3430 -0.7483
 5014TIP3    H136533   1.197   2.657  14.914 -0.5597  0.0456 -0.1069
 5014TIP3    H236534   1.347   2.646  14.924 -0.6018 -0.0831  0.3865
 5015TIP3   OH236535   2.323   5.272  16.803  0.0741 -0.0816 -0.7799
 5015TIP3    H136536   2.332   5.212  16.878 -0.3024  0.9533  0.1150
 5015TIP3    H236537   2.243   5.321  16.821 -0.3258 -0.2041 -2.1628
 5016TIP3   OH236538   6.463   1.968  16.502 -0.1186 -0.2607  0.1161
 5016TIP3    H136539   6.441   1.953  16.410  1.0538  0.4689 -0.3085
 5016TIP3    H236540   6.509   1.888  16.529  1.0939  0.2079 -0.4722
 5017TIP3   OH236541   2.210   1.813   4.480  0.4331 -0.0207  0.0629
 5017TIP3    H136542   2.276   1.852   4.537  0.6802  2.3111 -1.6761
 5017TIP3    H236543   2.259   1.755   4.423  0.3999 -1.1378  1.1213
 5018TIP3   OH236544   3.859   2.766  12.771 -0.4947 -0.5054 -0.3393
 5018TIP3    H136545   3.779   2.806  12.805 -0.6339  1.2195 -2.4307
 5018TIP3    H236546   3.926   2.834  12.782 -0.0216 -0.8091 -1.2524
 5019TIP3   OH236547   4.333   6.615   2.841 -0.1051 -0.0080 -0.5024
 5019TIP3    H136548   4.427   6.628   2.844  0.1533 -1.4199 -1.3687
 5019TIP3    H236549   4.296   6.698   2.871  1.4112  0.1791  1.0427
 5020TIP3   OH236550   1.103   3.681  15.635 -0.4145  0.2888 -0.0661
 5020TIP3    H136551   1.124   3.615  15.700 -0.0352  1.8643  1.4853
 5020TIP3    H236552   1.045   3.637  15.573  0.5641 -1.7301  0.3744
 5021TIP3   OH236553   5.082   4.124  13.274  0.6854 -0.2213  0.0213
 5021TIP3    H136554   5.117   4.176  13.202 -0.6587  0.6933 -0.0034
 5021TIP3    H236555   5.001   4.086  13.239 -0.6011  1.1550  1.3648
 5022TIP3   OH236556   4.514   4.912   2.450  0.2562  0.4040  0.0491
 5022TIP3    H136557   4.429   4.891   2.411  0.2659 -0.3461  0.4251
 5022TIP3    H236558   4.494   4.936   2.540  0.5273 -0.6763  0.4129
 5023TIP3   OH236559   5.320   4.938  13.347 -0.3505 -0.0388  1.0172
 5023TIP3    H136560   5.279   5.016  13.309 -0.9577 -0.9369 -0.2328
 5023TIP3    H236561   5.378   4.905  13.278  0.7939 -0.0506  1.9621
 5024TIP3   OH236562   6.235   2.290   0.802  0.6418 -0.3069 -0.1221
 5024TIP3    H136563   6.244   2.203   0.763 -0.4149 -1.8004  2.6374
 5024TIP3    H236564   6.282   2.283   0.885 -0.9752  1.1488  0.9802
 5025TIP3   OH236565   4.863   5.548  11.630 -0.4934  0.2408 -0.0694
 5025TIP3    H136566   4.897   5.616  11.688  0.8822 -0.1573 -0.3740
 5025TIP3    H236567   4.828   5.481  11.689 -1.4011  0.9618  0.2377
 5026TIP3   OH236568   5.396   5.757  14.232  0.2078 -0.3616 -0.0078
 5026TIP3    H136569   5.469   5.766  14.171 -0.3660  0.7152 -0.5610
 5026TIP3    H236570   5.421   5.810  14.308 -0.4118  0.8636 -0.6239
 5027TIP3   OH236571   1.977   5.463  17.214  0.6573 -0.2990  0.1521
 5027TIP3    H136572   2.013   5.383  17.175  0.2494 -0.2536 -0.3224
 5027TIP3    H236573   2.022   5.534  17.168 -1.6864 -0.1821 -2.1430
 5028TIP3   OH236574   6.822   2.088  14.572  0.2121  0.8795 -0.0627
 5028TIP3    H136575   6.787   2.026  14.508 -2.3678 -0.1856  2.1498
 5028TIP3    H236576   6.778   2.171  14.553 -0.5969  0.5492  0.3211
 5029TIP3   OH236577   2.641   2.028  16.350  0.2375  0.2827 -0.1174
 5029TIP3    H136578   2.615   1.972  16.423  0.4929  0.5259  0.1642
 5029TIP3    H236579   2.587   2.106  16.360 -1.5294 -0.6873 -1.6358
 5030TIP3   OH236580   3.168   0.358   3.674 -0.2947  0.2199 -0.1892
 5030TIP3    H136581   3.246   0.331   3.627  0.0930  0.4445  0.3205
 5030TIP3    H236582   3.178   0.452   3.686 -0.4302  0.1805  0.2592
 5031TIP3   OH236583   5.476   5.231   2.567 -0.3807  0.9257  0.1131
 5031TIP3    H136584   5.412   5.295   2.599 -3.5005 -0.9280 -1.8690
 5031TIP3    H236585   5.436   5.146   2.587  0.9588 -0.3207 -2.1538
 5032TIP3   OH236586   2.840   6.394   3.096  0.0221 -0.5162  0.2402
 5032TIP3    H136587   2.936   6.387   3.101  0.0414  0.4524  1.6171
 5032TIP3    H236588   2.810   6.303   3.103  0.8338 -0.8325 -0.1858
 5033TIP3   OH236589   1.219   1.873  12.030 -0.0672  0.3643  0.2787
 5033TIP3    H136590   1.286   1.897  12.093  1.0234 -0.5571 -0.4819
 5033TIP3    H236591   1.224   1.777  12.025 -2.1386  0.1742  0.9387
 5034TIP3   OH236592   2.221   4.267   3.654  0.2862  0.1730 -0.0800
 5034TIP3    H136593   2.212   4.173   3.641 -0.0723 -0.0110  1.3605
 5034TIP3    H236594   2.264   4.275   3.739  1.5885  1.2974 -0.8001
 5035TIP3   OH236595   5.843   2.536  16.861 -0.1792 -0.1016 -0.1754
 5035TIP3    H136596   5.818   2.599  16.793 -0.7100  1.3816  1.3361
 5035TIP3    H236597   5.923   2.572  16.899  0.3910 -1.1774 -0.3069
 5036TIP3   OH236598   0.289   0.402  11.416  0.4974  0.2014 -0.0787
 5036TIP3    H136599   0.255   0.312  11.409  1.5004 -0.1249 -1.0297
 5036TIP3    H236600   0.227   0.455  11.366 -0.6045  0.2189  1.2284
 5037TIP3   OH236601   2.597   1.793   2.485  0.2942 -0.1022 -0.5150
 5037TIP3    H136602   2.608   1.727   2.416 -2.3578 -1.0885 -0.0871
 5037TIP3    H236603   2.576   1.743   2.563 -0.1183  1.1938  0.2282
 5038TIP3   OH236604   4.314   1.343  15.634  0.4783  0.3882 -0.0369
 5038TIP3    H136605   4.252   1.406  15.671  0.1597 -0.3529  0.7040
 5038TIP3    H236606   4.385   1.398  15.600  1.4630  1.0867  2.8483
 5039TIP3   OH236607   5.199   0.619  14.390  0.7198 -0.9070 -0.2087
 5039TIP3    H136608   5.283   0.633  14.347  0.9975 -0.0439  0.5817
 5039TIP3    H236609   5.183   0.700  14.439 -0.5374 -1.0821 -0.2930
 5040TIP3   OH236610   5.514   3.739   2.306 -0.4355  0.4385 -0.2469
 5040TIP3    H136611   5.519   3.774   2.395 -1.2334  0.8300 -0.3422
 5040TIP3    H236612   5.593   3.686   2.296 -1.5760 -1.7794  1.6076
 5041TIP3   OH236613   5.545   1.256  14.207 -0.2752 -0.1693  0.3810
 5041TIP3    H136614   5.637   1.256  14.233 -0.0244 -0.9693 -0.5008
 5041TIP3    H236615   5.546   1.248  14.112 -1.2765 -1.2256  0.4426
 5042TIP3   OH236616   6.538   0.664  11.041  0.0802 -0.4981  0.5705
 5042TIP3    H136617   6.607   0.729  11.028  0.0120 -0.3997  0.7001
 5042TIP3    H236618   6.459   0.704  11.005  0.1847 -0.7957  0.0080
 5043TIP3   OH236619   1.939   3.535   1.045 -0.3595 -0.0393 -0.3328
 5043TIP3    H136620   1.890   3.462   1.083 -1.3053  0.0309 -1.3751
 5043TIP3    H236621   2.014   3.547   1.104 -1.5521 -0.1888  1.2581
 5044TIP3   OH236622   2.295   3.948  12.126 -0.3536  0.5910  0.0273
 5044TIP3    H136623   2.324   4.008  12.057 -0.4981 -0.6950 -1.1926
 5044TIP3    H236624   2.348   3.971  12.203 -0.3173  2.1690 -0.4436
 5045TIP3   OH236625   3.088   1.475  14.402  0.6168 -0.4246 -0.1579
 5045TIP3    H136626   3.062   1.491  14.493  0.5766  0.0698 -0.2529
 5045TIP3    H236627   3.179   1.446  14.408  0.8572  0.3271 -0.0108
 5046TIP3   OH236628   1.301   5.797  16.292  0.1271 -0.0631 -0.3634
 5046TIP3    H136629   1.365   5.791  16.363  0.6152 -0.8371 -0.8547
 5046TIP3    H236630   1.221   5.761  16.331 -0.0836  1.0985  0.3149
 5047TIP3   OH236631   0.046   3.831   6.512 -0.2115  0.0755 -0.4134
 5047TIP3    H136632   0.002   3.912   6.538 -3.8226 -1.4360 -1.1817
 5047TIP3    H236633   0.101   3.809   6.588 -1.9788  1.3637  1.3748
 5048TIP3   OH236634   1.208   0.809   4.274  0.5156 -0.8693  0.4278
 5048TIP3    H136635   1.193   0.886   4.220  1.5741 -0.0845  1.2058
 5048TIP3    H236636   1.159   0.826   4.354 -0.3316 -1.6264  0.0851
 5049TIP3   OH236637   2.633   0.517  14.591 -0.1088  0.8453  0.1401
 5049TIP3    H136638   2.660   0.607  14.610  2.2016  0.6419 -1.7597
 5049TIP3    H236639   2.695   0.487  14.524 -0.9102 -2.1113  0.5949
 5050TIP3   OH236640   3.856   5.767  15.307  0.1873  0.0429  0.5491
 5050TIP3    H136641   3.900   5.720  15.378 -0.0627 -0.9806  0.0457
 5050TIP3    H236642   3.920   5.766  15.236 -0.6594 -1.5948 -0.2420
 5051TIP3   OH236643   1.743   3.024  14.525 -0.1680 -0.2086 -0.1165
 5051TIP3    H136644   1.677   3.079  14.567  0.2144 -0.6000  1.0201
 5051TIP3    H236645   1.801   3.086  14.480 -0.1149  0.2833  0.6146
 5052TIP3   OH236646   5.713   3.550   1.719 -0.6477  0.3336  0.1099
 5052TIP3    H136647   5.798   3.533   1.679  0.1279  1.0787  1.4003
 5052TIP3    H236648   5.655   3.568   1.644  0.1569 -0.7989 -0.8194
 5053TIP3   OH236649   5.344   1.922   6.667 -0.4678 -0.1192 -1.1710
 5053TIP3    H136650   5.398   1.845   6.652  0.2800  0.2585 -0.4999
 5053TIP3    H236651   5.399   1.995   6.636  0.0417  0.4146  0.8527
 5054TIP3   OH236652   0.964   1.320   4.421 -0.2747  0.0788 -0.1254
 5054TIP3    H136653   1.043   1.290   4.466 -0.4192 -1.9470 -1.0930
 5054TIP3    H236654   0.895   1.263   4.455 -0.8013  0.0104 -1.2565
 5055TIP3   OH236655   0.911   0.719   0.219 -0.8795  0.2999 -0.6126
 5055TIP3    H136656   1.005   0.729   0.232 -0.7148 -2.2738  0.6970
 5055TIP3    H236657   0.901   0.637   0.171 -2.5107 -0.0859  0.3109
 5056TIP3   OH236658   6.107   4.954   6.174 -0.2913  0.8015  0.7145
 5056TIP3    H136659   6.146   4.881   6.223 -1.4196 -0.4410 -0.1842
 5056TIP3    H236660   6.023   4.971   6.218 -0.0729  1.5454  0.8725
 5057TIP3   OH236661   1.214   5.067  16.826 -0.1129 -0.2365  0.5355
 5057TIP3    H136662   1.211   5.110  16.740 -0.1501  0.5698  0.9260
 5057TIP3    H236663   1.244   4.978  16.808  0.2501  0.0412 -0.2716
 5058TIP3   OH236664   0.903   4.797  13.430 -0.2448 -0.2187  0.5008
 5058TIP3    H136665   0.994   4.767  13.426 -0.4416 -0.6365 -1.6660
 5058TIP3    H236666   0.910   4.890  13.451  0.5579 -0.6105  2.2360
 5059TIP3   OH236667   3.997   4.147   4.988 -0.1016 -0.0599  0.0797
 5059TIP3    H136668   3.919   4.116   4.942 -1.0431 -1.4942  2.4894
 5059TIP3    H236669   4.055   4.178   4.918 -1.8617 -1.1050 -1.9566
 5060TIP3   OH236670   4.539   0.581   4.125  0.1255 -0.5153 -0.0627
 5060TIP3    H136671   4.506   0.653   4.071  0.6042 -0.7898 -0.7407
 5060TIP3    H236672   4.631   0.603   4.140  0.0119 -0.4743  0.5948
 5061TIP3   OH236673   2.592   5.699   5.404  0.1899 -0.5085 -0.3534
 5061TIP3    H136674   2.547   5.704   5.319  0.1258 -0.6154 -0.3257
 5061TIP3    H236675   2.599   5.791   5.432  1.8404 -0.3040 -1.3105
 5062TIP3   OH236676   4.638   2.973   0.960  0.7289 -0.8202 -0.0489
 5062TIP3    H136677   4.552   2.986   0.921 -0.0809 -0.7146  1.6803
 5062TIP3    H236678   4.649   2.878   0.963  0.4172 -0.8497  0.2320
 5063TIP3   OH236679   5.004   4.398   5.773  0.2608  0.0664 -0.4966
 5063TIP3    H136680   5.080   4.348   5.804  1.9265  2.5139 -0.4027
 5063TIP3    H236681   4.935   4.332   5.766  1.9594 -2.0297  0.7953
 5064TIP3   OH236682   0.203   1.738   5.690 -0.2423  1.0378  0.0725
 5064TIP3    H136683   0.122   1.756   5.642  0.6747  1.2982 -1.4564
 5064TIP3    H236684   0.272   1.775   5.634  1.4026 -3.3943 -1.2408
 5065TIP3   OH236685   2.387   2.174   1.460  0.8250  0.1720 -0.7455
 5065TIP3    H136686   2.476   2.141   1.453  0.4545 -0.7895 -0.9970
 5065TIP3    H236687   2.386   2.252   1.404  1.3524 -0.1373 -1.1940
 5066TIP3   OH236688   2.150   4.155  13.781 -0.0258 -0.1100 -0.1562
 5066TIP3    H136689   2.141   4.063  13.806  2.2600 -0.3672 -0.1066
 5066TIP3    H236690   2.243   4.173  13.790 -0.2584  1.8968 -1.2943
 5067TIP3   OH236691   2.471   6.489  12.693 -0.7117 -0.4818  0.0191
 5067TIP3    H136692   2.509   6.564  12.647 -1.6834 -1.6803 -3.0129
 5067TIP3    H236693   2.394   6.523  12.736  0.0402  0.6489  0.5026
 5068TIP3   OH236694   4.706   0.314  10.517 -0.0710 -0.3685 -0.0146
 5068TIP3    H136695   4.751   0.384  10.564 -0.5040  0.0068 -0.1545
 5068TIP3    H236696   4.624   0.354  10.487 -0.5576 -1.0812  0.3422
 5069TIP3   OH236697   6.087   5.561   5.719 -0.4252 -0.5088  0.2194
 5069TIP3    H136698   6.155   5.626   5.732  0.9072 -1.5974 -0.9196
 5069TIP3    H236699   6.126   5.479   5.749 -1.5483 -1.0287  0.3332
 5070TIP3   OH236700   0.301   3.099  11.587 -0.5688 -0.7212 -0.4993
 5070TIP3    H136701   0.299   3.120  11.681  0.6643 -1.7357 -0.2188
 5070TIP3    H236702   0.286   3.004  11.583 -2.9109 -0.3848 -1.5190
 5071TIP3   OH236703   4.371   5.167  12.467  0.2191  0.4099  0.3639
 5071TIP3    H136704   4.368   5.244  12.411  1.2827 -0.2639 -0.6715
 5071TIP3    H236705   4.342   5.198  12.553 -0.9578  1.5765 -0.4222
 5072TIP3   OH236706   3.409   0.417  13.695  0.0472  0.4887 -0.5135
 5072TIP3    H136707   3.464   0.373  13.760 -0.4193  0.2860 -0.2477
 5072TIP3    H236708   3.320   0.387  13.715 -0.1046  0.4600 -1.2226
 5073TIP3   OH236709   4.353   1.157  14.138 -0.0345 -0.1942  0.6167
 5073TIP3    H136710   4.378   1.171  14.229  0.7386  0.7173  0.2796
 5073TIP3    H236711   4.276   1.212  14.126 -0.0120 -0.1503  0.6708
 5074TIP3   OH236712   6.073   2.854  12.939  0.1082 -0.7743 -0.3908
 5074TIP3    H136713   6.057   2.862  12.845  0.3314  1.3036 -0.3089
 5074TIP3    H236714   6.072   2.945  12.970  0.3407 -1.4108  1.5631
 5075TIP3   OH236715   3.197   0.444  17.147 -0.0370 -0.0669 -0.5243
 5075TIP3    H136716   3.251   0.490  17.082  1.2430  0.9647  1.1764
 5075TIP3    H236717   3.256   0.380  17.186 -0.2128  0.5551  0.8267
 5076TIP3   OH236718   3.268   6.084   5.452 -0.6648  0.2338 -0.5125
 5076TIP3    H136719   3.236   6.069   5.541 -2.7480 -0.3237 -1.3085
 5076TIP3    H236720   3.312   6.002   5.428 -0.1526  0.3632 -0.0397
 5077TIP3   OH236721   1.258   2.852   0.228  0.1632  0.4808  0.3727
 5077TIP3    H136722   1.331   2.885   0.280  2.4171 -1.5210 -1.3183
 5077TIP3    H236723   1.273   2.758   0.221 -1.3532  0.3182 -1.9029
 5078TIP3   OH236724   1.816   2.072   4.506 -0.3867  0.7206  0.2810
 5078TIP3    H136725   1.739   2.102   4.457 -0.1718  1.9236  0.6617
 5078TIP3    H236726   1.780   2.035   4.586 -0.5678  1.5670  0.6026
 5079TIP3   OH236727   6.538   1.141   1.101 -0.4558  0.4264  0.5397
 5079TIP3    H136728   6.556   1.180   1.186  0.0349 -0.2524  0.7507
 5079TIP3    H236729   6.599   1.068   1.094  1.2940  1.9208 -1.4490
 5080TIP3   OH236730   0.939   2.748  11.531  0.2365  0.2402  0.5328
 5080TIP3    H136731   1.006   2.687  11.500 -0.5494 -0.7616  0.7677
 5080TIP3    H236732   0.902   2.785  11.451  0.7154  0.4249  0.3902
 5081TIP3   OH236733   3.805   1.171   4.736 -0.0628  0.3221  0.1368
 5081TIP3    H136734   3.737   1.228   4.773  0.3894  1.1084 -0.2184
 5081TIP3    H236735   3.776   1.082   4.759 -1.7760  0.5548 -0.9021
 5082TIP3   OH236736   3.053   1.527  11.059  0.3853 -0.3820 -0.2041
 5082TIP3    H136737   3.041   1.487  10.973  0.7615  0.9292 -0.8941
 5082TIP3    H236738   3.087   1.456  11.114  0.9578 -1.0315 -1.3582
 5083TIP3   OH236739   2.976   1.619   3.416  0.1808 -0.2400  0.2658
 5083TIP3    H136740   2.905   1.643   3.357  2.1494  2.5445 -1.1657
 5083TIP3    H236741   3.005   1.533   3.385 -0.9372 -0.2904 -0.6857
 5084TIP3   OH236742   2.353   1.604  11.403 -0.0948 -0.1176 -0.0421
 5084TIP3    H136743   2.259   1.589  11.395  0.1250 -1.4754 -0.3269
 5084TIP3    H236744   2.387   1.591  11.315  0.2357  1.5535 -0.1965
 5085TIP3   OH236745   3.946   1.630  11.460 -0.0672  0.6673 -0.4773
 5085TIP3    H136746   3.993   1.586  11.532  1.2148  1.7834 -0.5876
 5085TIP3    H236747   3.948   1.566  11.389 -0.5099 -0.0845  0.1727
 5086TIP3   OH236748   2.763   1.316   4.142 -0.5523  0.9023  0.0179
 5086TIP3    H136749   2.810   1.265   4.208  1.4581  1.6390 -0.7423
 5086TIP3    H236750   2.731   1.252   4.079  0.3444  0.4209  0.0360
 5087TIP3   OH236751   6.537   3.433  12.820 -0.4205  0.1998 -0.1453
 5087TIP3    H136752   6.610   3.452  12.879 -0.7767 -0.5452  0.5503
 5087TIP3    H236753   6.541   3.502  12.754  0.4408  0.6119  0.3250
 5088TIP3   OH236754   0.206   2.877   3.973  0.2211 -0.2487 -0.0320
 5088TIP3    H136755   0.254   2.798   3.947  1.4607  0.3136  0.4415
 5088TIP3    H236756   0.266   2.949   3.950 -1.0553  0.5911 -0.8424
 5089TIP3   OH236757   6.024   4.431  13.713  0.1445  0.2267 -0.4747
 5089TIP3    H136758   5.930   4.419  13.701 -0.2271  2.8671 -0.9144
 5089TIP3    H236759   6.055   4.347  13.746 -2.3527 -0.7134 -0.2775
 5090TIP3   OH236760   0.696   1.043  14.173 -0.1059  0.0054 -0.1321
 5090TIP3    H136761   0.756   1.107  14.211  0.8795 -0.3629 -0.9963
 5090TIP3    H236762   0.645   1.093  14.109 -0.3844  0.2272  0.2648
 5091TIP3   OH236763   4.502   0.618   6.372 -0.1565  0.8088 -0.9593
 5091TIP3    H136764   4.579   0.595   6.423 -1.3647  0.8174  0.9796
 5091TIP3    H236765   4.503   0.557   6.298  0.6320 -0.5416  0.1143
 5092TIP3   OH236766   5.251   3.893  14.679 -0.3394 -0.3582  0.4423
 5092TIP3    H136767   5.247   3.988  14.692 -0.2123 -0.1778 -0.7232
 5092TIP3    H236768   5.258   3.882  14.584 -1.0912 -1.5655  0.5057
 5093TIP3   OH236769   0.275   1.250   3.090  0.5980 -0.4428  0.5584
 5093TIP3    H136770   0.264   1.325   3.031 -1.8533 -1.2057 -0.0976
 5093TIP3    H236771   0.299   1.178   3.032  2.5498 -0.3142  1.1366
 5094TIP3   OH236772   2.954   6.054  15.475 -0.1965  0.0798  0.4764
 5094TIP3    H136773   2.945   5.967  15.514  1.0515 -0.2608  0.0567
 5094TIP3    H236774   2.864   6.083  15.459 -0.6613 -2.3267 -1.9409
 5095TIP3   OH236775   2.659   2.517  14.394 -0.2237 -0.1493  0.0738
 5095TIP3    H136776   2.693   2.429  14.376 -0.9909 -0.1837 -1.3827
 5095TIP3    H236777   2.564   2.507  14.387 -0.4012  0.5314  1.2561
 5096TIP3   OH236778   1.004   5.978   6.159  0.0091  0.1748 -0.0823
 5096TIP3    H136779   1.096   5.949   6.159  0.4214  1.1956 -2.7249
 5096TIP3    H236780   1.008   6.066   6.196 -0.2508 -0.4966  1.6364
 5097TIP3   OH236781   0.125   1.642   4.541 -0.0922  0.3832  0.7051
 5097TIP3    H136782   0.162   1.729   4.527  0.9349  0.4887  3.5002
 5097TIP3    H236783   0.042   1.658   4.586 -1.6071 -0.0413 -1.7338
 5098TIP3   OH236784   1.957   1.096   5.548  0.4865  0.5176  0.5876
 5098TIP3    H136785   1.997   1.153   5.615  0.7011  1.6526 -0.4807
 5098TIP3    H236786   2.032   1.064   5.497  0.1599  1.9747 -0.8922
 5099TIP3   OH236787   4.914   3.302   3.372 -0.0162  0.2928 -0.2342
 5099TIP3    H136788   4.958   3.329   3.453 -0.1337 -0.8629  0.2364
 5099TIP3    H236789   4.956   3.220   3.348  0.1519  0.7218 -1.4747
 5100TIP3   OH236790   3.830   0.166  11.052 -0.8369  0.3866  0.8101
 5100TIP3    H136791   3.869   0.237  11.001 -0.5080  0.2234  0.8321
 5100TIP3    H236792   3.738   0.165  11.026 -0.3446 -0.7922 -1.0650
 5101TIP3   OH236793   0.506   4.874   4.764  0.0567 -0.4867 -0.4715
 5101TIP3    H136794   0.601   4.869   4.766  0.0099 -1.1320  1.2065
 5101TIP3    H236795   0.481   4.824   4.686  1.0732 -0.1644 -1.0236
 5102TIP3   OH236796   4.627   5.700  10.982  0.3451 -0.3246 -0.2296
 5102TIP3    H136797   4.636   5.758  10.907  0.9999  0.0133  0.0952
 5102TIP3    H236798   4.533   5.694  10.998  0.2902  1.9586  0.7293
 5103TIP3   OH236799   4.397   0.163   5.362  0.2469  0.0670  0.3108
 5103TIP3    H136800   4.335   0.236   5.353 -0.9715 -1.0149 -0.4678
 5103TIP3    H236801   4.343   0.089   5.387  1.7580 -0.1665  3.2487
 5104TIP3   OH236802   4.859   3.563   6.430  0.1850  0.4394  0.5160
 5104TIP3    H136803   4.863   3.642   6.377  0.4771  1.0346  1.3986
 5104TIP3    H236804   4.770   3.562   6.465 -0.1767 -0.2351 -0.3829
 5105TIP3   OH236805   0.040   2.076   4.657  0.4417  0.1240 -0.5789
 5105TIP3    H136806   0.062   2.054   4.747 -1.6589  2.4913  0.6421
 5105TIP3    H236807   0.074   2.164   4.644  1.7187 -0.5787 -2.5703
 5106TIP3   OH236808   1.419   4.811  14.213  0.3108  0.0278 -0.0759
 5106TIP3    H136809   1.468   4.748  14.266 -1.1967 -1.1820 -0.0706
 5106TIP3    H236810   1.437   4.786  14.123  3.0101  2.1892 -0.2941
 5107TIP3   OH236811   1.764   6.153  16.888 -0.6203  0.4070  0.5574
 5107TIP3    H136812   1.743   6.136  16.796 -0.9238 -1.7010  0.9680
 5107TIP3    H236813   1.679   6.169  16.930 -0.5665  0.5056  0.6281
 5108TIP3   OH236814   3.915   5.117   0.955  0.9340 -0.7170  0.2815
 5108TIP3    H136815   3.970   5.186   0.918  1.6661 -1.7194 -0.5453
 5108TIP3    H236816   3.829   5.133   0.917  0.8787  0.2322  0.7602
 5109TIP3   OH236817   3.936   3.450  16.646  0.0020 -0.0454 -0.4722
 5109TIP3    H136818   3.862   3.393  16.624  0.1684 -0.4045 -0.1248
 5109TIP3    H236819   3.937   3.516  16.577 -0.2510 -0.4115 -0.8332
 5110TIP3   OH236820   3.029   4.443   5.321 -0.1122 -0.0430  0.1930
 5110TIP3    H136821   3.002   4.417   5.409 -1.1420  0.7395  0.1293
 5110TIP3    H236822   2.965   4.509   5.295  0.8130  0.5243 -0.7221
 5111TIP3   OH236823   0.995   1.870   6.040  0.4764  0.4119  0.1368
 5111TIP3    H136824   0.917   1.914   6.004 -0.8491 -1.6925  0.2888
 5111TIP3    H236825   1.068   1.919   6.003 -0.8853  0.8856 -2.1538
 5112TIP3   OH236826   2.445   5.811  17.258 -0.2628 -0.3874 -0.0174
 5112TIP3    H136827   2.480   5.767  17.334  0.2922 -0.8961 -0.5594
 5112TIP3    H236828   2.352   5.788  17.258  0.0337 -1.6621 -0.3495
 5113TIP3   OH236829   0.042   0.271  12.181 -0.0160 -0.7013 -0.3016
 5113TIP3    H136830   0.002   0.188  12.205 -0.0320 -0.5333  0.2701
 5113TIP3    H236831  -0.021   0.337  12.208  0.6162 -0.4342  0.5877
 5114TIP3   OH236832   5.479   6.322   5.588 -0.1271  0.4845  0.4938
 5114TIP3    H136833   5.524   6.385   5.644  0.8259 -1.1031  1.5733
 5114TIP3    H236834   5.450   6.252   5.647  1.0016 -1.2996 -0.9385
 5115TIP3   OH236835   3.235   0.995   2.098  0.9375 -0.3349  0.9390
 5115TIP3    H136836   3.270   1.067   2.151  0.2548  2.2339 -1.8106
 5115TIP3    H236837   3.191   0.938   2.161  0.5930  2.2322  3.1964
 5116TIP3   OH236838   1.384   2.373  15.085  0.2289 -0.1142  0.1989
 5116TIP3    H136839   1.354   2.292  15.042  0.9972 -1.3918  1.9488
 5116TIP3    H236840   1.304   2.411  15.122  0.1542 -1.3883  1.4290
 5117TIP3   OH236841   4.396   6.117   2.147  0.3803 -0.5599  0.1754
 5117TIP3    H136842   4.436   6.066   2.217  1.1815  2.2324  1.9310
 5117TIP3    H236843   4.306   6.131   2.175  0.8958  1.1788  1.1470
 5118TIP3   OH236844   4.857   5.582  13.793 -0.0802  0.5048  0.6732
 5118TIP3    H136845   4.942   5.598  13.833  1.5889 -3.1585 -1.0109
 5118TIP3    H236846   4.874   5.581  13.699 -1.9717 -0.4216  0.2934
 5119TIP3   OH236847   1.093   3.461   2.456  0.4953  0.6386 -0.0073
 5119TIP3    H136848   1.063   3.373   2.433  1.1112  0.2251  0.7586
 5119TIP3    H236849   1.087   3.464   2.552 -0.7644  1.8795 -0.0891
 5120TIP3   OH236850   2.355   4.604   2.175 -0.5305  0.3654  0.1033
 5120TIP3    H136851   2.293   4.670   2.146 -1.3499 -0.4740 -0.1109
 5120TIP3    H236852   2.308   4.553   2.241  0.1814  0.1675  0.4769
 5121TIP3   OH236853   3.030   2.940  12.932  0.0361  0.1755  0.3450
 5121TIP3    H136854   2.974   2.917  12.858 -1.7221  0.1490  1.6208
 5121TIP3    H236855   3.112   2.894  12.915 -0.2351  0.3119 -1.6523
 5122TIP3   OH236856   0.918   4.761   2.452  0.2868  0.0119 -0.5778
 5122TIP3    H136857   0.969   4.731   2.526  3.0508  1.6695 -1.6505
 5122TIP3    H236858   0.983   4.779   2.384 -1.9640  0.1660 -2.8279
 5123TIP3   OH236859   1.131   5.722  10.952 -0.0530  0.5130 -0.3330
 5123TIP3    H136860   1.214   5.706  10.907 -0.0943  1.0520 -0.6042
 5123TIP3    H236861   1.099   5.804  10.916 -1.2309 -0.2055 -0.9907
 5124TIP3   OH236862   0.913   4.664   3.400  0.3794  0.4089  0.4530
 5124TIP3    H136863   0.953   4.746   3.371  1.8754  0.0227  1.3434
 5124TIP3    H236864   0.934   4.658   3.493  4.2407 -3.0449 -0.3503
 5125TIP3   OH236865   0.530   6.404   4.462 -0.2586 -0.3127  0.1538
 5125TIP3    H136866   0.472   6.476   4.435 -1.8498 -1.5944  0.0274
 5125TIP3    H236867   0.581   6.440   4.535 -1.9567  0.5565  0.9634
 5126TIP3   OH236868   5.092   6.395   2.772 -0.1385 -0.2427 -0.2040
 5126TIP3    H136869   5.163   6.432   2.824  1.0428  0.7213 -2.3862
 5126TIP3    H236870   5.097   6.301   2.788  0.2881  0.0025  1.2488
 5127TIP3   OH236871   0.345   5.604  15.660  0.0133  0.5377  0.2641
 5127TIP3    H136872   0.292   5.622  15.737 -0.1766  1.5558 -0.0915
 5127TIP3    H236873   0.327   5.512  15.638  2.5793 -0.9190  3.3670
 5128TIP3   OH236874   5.736   4.353  16.545  0.0493  0.1437  0.4021
 5128TIP3    H136875   5.656   4.303  16.530 -0.2339  0.5202  0.6301
 5128TIP3    H236876   5.749   4.348  16.640  1.6496 -1.9616  0.1415
 5129TIP3   OH236877   5.106   5.160  14.684  0.1972 -0.6076  0.2694
 5129TIP3    H136878   5.068   5.135  14.600 -1.2380  0.2521  0.6420
 5129TIP3    H236879   5.070   5.246  14.702  0.8657 -0.5778  1.5468
 5130TIP3   OH236880   5.185   4.038   3.291  0.6706  0.1509 -0.5465
 5130TIP3    H136881   5.116   3.978   3.318  0.2930  0.1846 -1.3896
 5130TIP3    H236882   5.159   4.123   3.326 -0.0646  0.2938 -1.4070
 5131TIP3   OH236883   6.731   2.693   5.945 -0.7713  0.1434  0.3911
 5131TIP3    H136884   6.738   2.631   5.873 -0.8323 -1.1266  1.4451
 5131TIP3    H236885   6.753   2.778   5.906 -0.8196 -0.5045 -1.1075
 5132TIP3   OH236886   3.656   4.207   3.669 -0.2792  0.2880 -0.0601
 5132TIP3    H136887   3.699   4.289   3.695  1.0017 -0.3840  0.0559
 5132TIP3    H236888   3.704   4.179   3.591 -1.5027  0.2629 -0.8166
 5133TIP3   OH236889   4.167   2.998   5.603  0.1994  0.4983  0.0490
 5133TIP3    H136890   4.196   2.927   5.661 -0.9755 -0.4271 -0.4585
 5133TIP3    H236891   4.231   3.000   5.533  0.8950  0.7318  0.6855
 5134TIP3   OH236892   2.385   1.182  13.295 -1.0470  0.1451  0.0531
 5134TIP3    H136893   2.350   1.271  13.300 -3.4334 -0.8000  1.9638
 5134TIP3    H236894   2.427   1.167  13.380 -0.0139 -0.3365 -0.5196
 5135TIP3   OH236895   1.524   0.313  15.727 -0.1835 -0.5075  0.0955
 5135TIP3    H136896   1.568   0.288  15.646 -0.5020 -2.0494  0.3661
 5135TIP3    H236897   1.577   0.272  15.796 -1.7759 -2.1063  0.4443
 5136TIP3   OH236898   1.665   5.053   5.518  0.0579  0.0297 -0.3890
 5136TIP3    H136899   1.667   5.147   5.535 -0.3182 -0.3351  1.9705
 5136TIP3    H236900   1.576   5.026   5.543  0.8554 -1.2812  1.2277
 5137TIP3   OH236901   4.455   6.324   5.390  0.2738  0.3149  0.1248
 5137TIP3    H136902   4.405   6.304   5.311  0.3760  1.0562 -0.1361
 5137TIP3    H236903   4.505   6.244   5.408  1.5936  0.6761 -1.5746
 5138TIP3   OH236904   4.004   0.672  12.942 -0.2877  0.1627  0.6547
 5138TIP3    H136905   4.076   0.726  12.910 -0.7028  1.4424  1.7735
 5138TIP3    H236906   3.938   0.676  12.873 -0.5297  1.5810  0.9243
 5139TIP3   OH236907   5.556   6.052   2.512 -0.5979 -0.1180  0.3684
 5139TIP3    H136908   5.575   6.059   2.605  1.6482  0.2159 -0.0632
 5139TIP3    H236909   5.610   5.980   2.481 -2.7268 -1.4893 -0.3884
 5140TIP3   OH236910   6.447   5.866   2.958  0.2113  0.2229 -0.9662
 5140TIP3    H136911   6.515   5.891   3.021 -0.0340 -0.5406 -0.3904
 5140TIP3    H236912   6.412   5.949   2.927 -1.3095  0.6695  1.6614
 5141TIP3   OH236913   2.832   3.837   3.757 -0.3730  0.0354 -0.7066
 5141TIP3    H136914   2.758   3.883   3.797  0.4483 -0.9150  2.1923
 5141TIP3    H236915   2.897   3.906   3.741 -0.5390  0.3998  0.1259
 5142TIP3   OH236916   3.860   5.286  11.005 -0.3379  0.1896  0.6879
 5142TIP3    H136917   3.870   5.204  10.956  0.6858  0.3113  0.6591
 5142TIP3    H236918   3.908   5.351  10.953  0.9619  0.2770  1.9296
 5143TIP3   OH236919   0.154   5.357  13.177 -0.4628 -0.3501  0.1170
 5143TIP3    H136920   0.181   5.268  13.199  0.2322 -0.2593 -0.3535
 5143TIP3    H236921   0.233   5.410  13.185  0.0719 -0.4160 -3.2238
 5144TIP3   OH236922   4.298   1.105   0.513 -0.3805  0.3119 -0.0746
 5144TIP3    H136923   4.319   1.160   0.437 -5.2828  1.3023 -1.0355
 5144TIP3    H236924   4.310   1.016   0.481  0.5401  0.7175 -0.9650
 5145TIP3   OH236925   4.737   4.898  16.491  0.5881 -0.2819 -0.1870
 5145TIP3    H136926   4.826   4.871  16.470  2.1611  2.9818  1.4758
 5145TIP3    H236927   4.729   4.986  16.454 -1.6620 -0.1650  0.4249
 5146TIP3   OH236928   0.826   0.068  14.447  0.0763  0.0096  0.0593
 5146TIP3    H136929   0.854   0.004  14.382 -1.4042  0.1661 -0.7743
 5146TIP3    H236930   0.849   0.153  14.410  0.2537  0.0471  0.2548
 5147TIP3   OH236931   5.258   5.979   5.626 -0.0527  0.3245  0.0442
 5147TIP3    H136932   5.270   5.976   5.532 -1.0229 -1.4354 -0.0643
 5147TIP3    H236933   5.336   6.023   5.660  0.1316  1.3140 -1.5769
 5148TIP3   OH236934   2.101   1.867  11.979 -0.5558  0.0941 -0.1234
 5148TIP3    H136935   2.052   1.804  11.925 -2.0905 -1.0376  2.4079
 5148TIP3    H236936   2.176   1.817  12.011 -1.1609 -0.1509  0.9716
 5149TIP3   OH236937   4.910   2.297   3.362  0.6407  0.0888 -0.3111
 5149TIP3    H136938   4.943   2.213   3.330 -1.4660 -0.9272  0.0099
 5149TIP3    H236939   4.816   2.294   3.345  0.5217  2.4368 -0.3529
 5150TIP3   OH236940   3.036   5.650  15.254  0.8119 -0.0197  0.2060
 5150TIP3    H136941   3.107   5.696  15.298  0.5590 -0.9827  1.6896
 5150TIP3    H236942   3.079   5.602  15.183  1.7000 -0.7756  1.2228
 5151TIP3   OH236943   4.736   0.980  12.455 -0.2696 -0.3149  0.0284
 5151TIP3    H136944   4.817   1.024  12.480 -0.5073  0.5454 -0.6466
 5151TIP3    H236945   4.737   0.982  12.359 -0.7140 -1.0155  0.0029
 5152TIP3   OH236946   4.739   2.281   3.624  0.3762  0.5504 -0.0180
 5152TIP3    H136947   4.720   2.287   3.530 -1.8950 -0.0075  0.3360
 5152TIP3    H236948   4.734   2.188   3.643  0.9977  0.6451  0.6320
 5153TIP3   OH236949   2.614   2.296   3.828  0.0682 -0.8708  0.0909
 5153TIP3    H136950   2.617   2.387   3.800  0.7972 -0.9496 -0.1159
 5153TIP3    H236951   2.630   2.298   3.922  1.7978 -0.8941 -0.1789
 5154TIP3   OH236952   2.056   5.180   5.329 -0.6003  0.2732 -0.3757
 5154TIP3    H136953   1.989   5.248   5.327 -0.7415  0.1249 -1.0747
 5154TIP3    H236954   2.015   5.106   5.374 -1.1022 -0.0035 -1.2567
 5155TIP3   OH236955   0.385   0.095  17.080 -0.2487 -0.0195  0.4622
 5155TIP3    H136956   0.404   0.183  17.049  1.4222  0.0591  1.5705
 5155TIP3    H236957   0.429   0.037  17.017  0.9618  0.0651  1.1821
 5156TIP3   OH236958   6.536   5.992  15.251 -0.3631 -0.1761 -0.0330
 5156TIP3    H136959   6.479   5.926  15.211  0.2183 -0.2902 -0.7033
 5156TIP3    H236960   6.623   5.951  15.251  0.1599  0.8569 -1.1467
 5157TIP3   OH236961   5.450   1.798   5.925  0.2793 -0.0640 -0.5794
 5157TIP3    H136962   5.517   1.866   5.922  1.4114 -1.1108  0.2314
 5157TIP3    H236963   5.396   1.821   6.000  0.1047  0.4233 -0.8468
 5158TIP3   OH236964   0.411   6.487   2.197 -0.2654 -0.1920 -0.2263
 5158TIP3    H136965   0.323   6.524   2.191 -0.3262  0.0901  1.7557
 5158TIP3    H236966   0.457   6.521   2.120 -1.0886  1.9048  0.1587
 5159TIP3   OH236967   5.851   0.669  11.963 -0.3664 -0.0339  0.4422
 5159TIP3    H136968   5.799   0.678  11.883 -2.4581 -1.8299  1.5174
 5159TIP3    H236969   5.940   0.654  11.932 -0.7968  1.0222 -1.4886
 5160TIP3   OH236970   5.101   0.475  11.367  0.0282  0.5805  0.2803
 5160TIP3    H136971   5.190   0.503  11.392 -0.4525  3.0752 -0.5002
 5160TIP3    H236972   5.083   0.400  11.424  2.5994  0.0096  0.4805
 5161TIP3   OH236973   3.240   1.574  16.811  0.2253 -0.0612 -0.0485
 5161TIP3    H136974   3.311   1.548  16.869 -1.6900  1.0318  3.0556
 5161TIP3    H236975   3.270   1.654  16.769 -0.1593  2.2841  3.7170
 5162TIP3   OH236976   4.319   5.088   3.224 -0.1786 -0.7429 -0.2528
 5162TIP3    H136977   4.362   5.007   3.253  2.7143  1.5664  2.5733
 5162TIP3    H236978   4.381   5.127   3.162  0.0492  0.7869  0.8837
 5163TIP3   OH236979   0.129   4.783  13.649 -0.0945  0.2945  0.1724
 5163TIP3    H136980   0.211   4.796  13.698 -0.6117 -1.0793  1.5245
 5163TIP3    H236981   0.157   4.767  13.559  1.2498 -1.2015  0.7977
 5164TIP3   OH236982   5.066   4.371  16.486  0.4564  0.5195 -0.2465
 5164TIP3    H136983   5.018   4.288  16.487 -0.2228  0.8728 -1.2673
 5164TIP3    H236984   5.116   4.368  16.405 -0.2596  1.4599 -0.7490
 5165TIP3   OH236985   3.576   5.654   1.713  0.5713 -0.4470 -0.2529
 5165TIP3    H136986   3.519   5.730   1.712 -1.0865 -1.6375 -1.0789
 5165TIP3    H236987   3.546   5.602   1.787  0.6617 -1.0150 -0.6053
 5166TIP3   OH236988   2.721   5.297  14.614 -0.4951  0.3847 -0.1708
 5166TIP3    H136989   2.671   5.340  14.684 -1.0283 -1.5101  0.6830
 5166TIP3    H236990   2.732   5.207  14.645  0.0849 -0.2529 -2.1173
 5167TIP3   OH236991   3.044   0.624  11.654  0.8924 -0.4938  0.3544
 5167TIP3    H136992   2.980   0.556  11.632  1.4487 -1.0081  0.2794
 5167TIP3    H236993   3.037   0.634  11.749  1.8874 -1.8006  0.6031
 5168TIP3   OH236994   5.463   6.041  12.606 -0.7720 -0.0617  0.0094
 5168TIP3    H136995   5.535   6.082  12.558  0.5710 -1.0155  1.1303
 5168TIP3    H236996   5.501   6.016  12.690 -2.2139 -1.3008  0.3418
 5169TIP3   OH236997   3.495   6.241   0.931  0.6703  0.5411 -0.4386
 5169TIP3    H136998   3.555   6.268   0.862  2.3352  1.2381  1.1844
 5169TIP3    H236999   3.440   6.317   0.947  1.2778  0.8992 -0.0121
 5170TIP3   OH237000   5.084   2.658  16.486  0.5465  0.1454 -0.3422
 5170TIP3    H137001   5.057   2.676  16.576  3.8361  1.7330  0.4584
 5170TIP3    H237002   5.159   2.600  16.495  1.6440  1.2503 -1.9745
 5171TIP3   OH237003   5.402   3.897   0.851  0.2155  0.1184 -0.1665
 5171TIP3    H137004   5.437   3.902   0.762 -1.4007 -1.5594 -0.9678
 5171TIP3    H237005   5.468   3.847   0.899  0.8313  0.5367 -0.5568
 5172TIP3   OH237006   6.067   2.980  16.920 -0.0966  0.5609 -0.5816
 5172TIP3    H137007   6.148   2.991  16.869 -0.2375  1.7254 -0.5808
 5172TIP3    H237008   6.002   3.032  16.873 -0.4912  0.7896  0.2172
 5173TIP3   OH237009   0.863   2.953  12.369 -0.2198  0.2286  0.0353
 5173TIP3    H137010   0.796   2.887  12.386  0.4193  0.0924  2.3085
 5173TIP3    H237011   0.817   3.037  12.380 -0.2975  0.1445  0.3550
 5174TIP3   OH237012   6.131   2.540   0.905 -0.5837 -0.3183  0.0398
 5174TIP3    H137013   6.196   2.485   0.861  1.0241  0.0997  1.7775
 5174TIP3    H237014   6.119   2.614   0.846  0.1350 -0.6547 -0.5427
 5175TIP3   OH237015   1.738   6.786   4.512  0.7380 -0.5385  0.2387
 5175TIP3    H137016   1.684   6.854   4.552 -0.4407 -0.6663 -1.0288
 5175TIP3    H237017   1.675   6.734   4.461  2.0919 -0.5967 -1.4480
 5176TIP3   OH237018   5.582   2.097  15.159  0.1243 -0.3481 -0.7867
 5176TIP3    H137019   5.551   2.178  15.119 -1.4212 -0.7223 -0.3992
 5176TIP3    H237020   5.649   2.125  15.222 -0.3856  0.6314 -0.6683
 5177TIP3   OH237021   2.895   0.320   3.145  0.5005 -0.1872  0.0006
 5177TIP3    H137022   2.815   0.267   3.140 -0.7535  1.6449  0.0059
 5177TIP3    H237023   2.934   0.295   3.229 -0.6756 -0.2720  0.5475
 5178TIP3   OH237024   3.815   5.037  12.418 -0.0433  0.1419  0.2995
 5178TIP3    H137025   3.899   5.024  12.462  0.8699 -1.6154 -1.8071
 5178TIP3    H237026   3.750   5.033  12.489  1.4117 -1.5711  1.6330
 5179TIP3   OH237027   4.439   4.956   6.038  0.3548  0.1786 -0.1428
 5179TIP3    H137028   4.469   4.877   6.084  0.0863 -0.2888 -0.7629
 5179TIP3    H237029   4.513   5.017   6.044 -0.0789  0.5832  1.9185
 5180TIP3   OH237030   5.233   3.526  15.079  0.2275 -0.7026 -0.1348
 5180TIP3    H137031   5.227   3.497  15.170  0.9109  1.0103  0.4857
 5180TIP3    H237032   5.150   3.570  15.062  0.7378  0.3936  0.1839
 5181TIP3   OH237033   2.983   3.880  16.018 -0.6124  0.0093  0.0049
 5181TIP3    H137034   3.074   3.850  16.010  0.1440  2.1382 -0.2218
 5181TIP3    H237035   2.973   3.899  16.111  0.1167  2.2687 -0.3128
 5182TIP3   OH237036   4.552   0.491  11.833  0.3239 -0.6358  0.0013
 5182TIP3    H137037   4.636   0.490  11.788  1.0080 -2.7212  1.1725
 5182TIP3    H237038   4.510   0.408  11.806 -0.2311 -0.8284  1.3869
 5183TIP3   OH237039   0.103   5.378  16.093 -0.7279 -0.3189 -0.4306
 5183TIP3    H137040   0.145   5.392  16.178  0.5353 -1.5221 -0.8071
 5183TIP3    H237041   0.171   5.402  16.029 -1.6724  0.6151 -1.1107
 5184TIP3   OH237042   0.372   0.119  13.077  0.3597 -0.1630 -0.1942
 5184TIP3    H137043   0.321   0.164  13.144 -0.0567  0.8920 -1.1929
 5184TIP3    H237044   0.463   0.139  13.098  0.1859  1.1075 -0.5734
 5185TIP3   OH237045   0.587   3.547  15.666 -1.0063 -0.2254 -0.2532
 5185TIP3    H137046   0.621   3.467  15.707  0.5339  1.1460  1.3104
 5185TIP3    H237047   0.492   3.537  15.670 -1.0689 -0.0866  4.2322
 5186TIP3   OH237048   1.488   1.128  14.765  0.2273 -0.3078  0.0585
 5186TIP3    H137049   1.462   1.040  14.791 -0.9582 -0.3177 -1.0618
 5186TIP3    H237050   1.430   1.150  14.691  0.5838  1.3502  0.2191
 5187TIP3   OH237051   0.877   2.574   3.512 -0.2676  0.2632 -0.0290
 5187TIP3    H137052   0.971   2.574   3.530  0.0133 -0.5273 -1.3486
 5187TIP3    H237053   0.871   2.568   3.416 -1.6615  0.8141  0.0044
 5188TIP3   OH237054   4.248   0.922  11.132 -0.3915 -0.3802  0.2275
 5188TIP3    H137055   4.212   0.852  11.076 -0.1356 -0.9942  0.8188
 5188TIP3    H237056   4.194   0.919  11.211 -1.6995  1.4448 -0.5343
 5189TIP3   OH237057   4.633   2.032   0.336 -0.7668  0.2105  0.0271
 5189TIP3    H137058   4.635   1.962   0.271 -0.4278 -0.4207  0.6948
 5189TIP3    H237059   4.569   2.002   0.401 -2.9072  1.9130 -1.1471
 5190TIP3   OH237060   6.477   3.798  13.187  0.8758  0.0152  0.2130
 5190TIP3    H137061   6.464   3.855  13.111  1.4224  0.9690  0.8073
 5190TIP3    H237062   6.431   3.717  13.165 -1.8128  1.4192  0.1997
 5191TIP3   OH237063   2.793   3.825   0.934 -0.2951 -0.0312 -0.2719
 5191TIP3    H137064   2.718   3.873   0.969 -1.2397 -0.2407 -1.9151
 5191TIP3    H237065   2.869   3.865   0.977 -1.2241  1.2769  0.2269
 5192TIP3   OH237066   6.784   5.134  15.451 -0.2767  0.4205  0.3149
 5192TIP3    H137067   6.738   5.107  15.530 -0.4538  0.7985  0.3431
 5192TIP3    H237068   6.726   5.105  15.380 -0.8419  1.3923  0.3629
 5193TIP3   OH237069   4.543   2.431  13.243  0.3399  0.1858  0.0452
 5193TIP3    H137070   4.448   2.426  13.253  0.0143  0.7772 -2.2123
 5193TIP3    H237071   4.568   2.348  13.201  0.7727  0.2013  0.2600
 5194TIP3   OH237072   4.978   6.793   4.118 -0.0482  0.4889 -0.4779
 5194TIP3    H137073   5.008   6.714   4.163 -0.1878 -0.1665 -1.5007
 5194TIP3    H237074   5.056   6.828   4.076 -0.0998  0.5497 -0.5234
 5195TIP3   OH237075   6.457   6.475  11.593  0.6068 -0.1832 -0.2762
 5195TIP3    H137076   6.469   6.505  11.503  2.3069  0.5134  0.1584
 5195TIP3    H237077   6.545   6.466  11.628  0.0224 -1.6271  0.9646
 5196TIP3   OH237078   5.291   2.156  17.264  0.3058  0.2735 -0.2327
 5196TIP3    H137079   5.299   2.150  17.169 -0.0278 -0.8473 -0.2012
 5196TIP3    H237080   5.338   2.236  17.286  0.6171  0.4138 -1.3148
 5197TIP3   OH237081   0.206   5.577  14.566  0.3287 -0.3426  0.4560
 5197TIP3    H137082   0.242   5.625  14.640  1.4505  0.1725 -0.3920
 5197TIP3    H237083   0.120   5.616  14.550  0.9600  0.9787  0.1766
 5198TIP3   OH237084   3.071   0.722  14.671  0.2597 -0.6117 -0.0599
 5198TIP3    H137085   3.007   0.775  14.624 -1.2503 -2.3761 -0.0818
 5198TIP3    H237086   3.138   0.703  14.606  1.0412  1.4732  0.0325
 5199TIP3   OH237087   3.910   3.827  14.913 -0.0870 -0.1316  0.2178
 5199TIP3    H137088   3.839   3.820  14.977 -1.2440  0.5720 -0.9244
 5199TIP3    H237089   3.951   3.911  14.931 -1.3829  0.7847 -0.8444
 5200TIP3   OH237090   5.524   2.199   5.582  0.0472  0.2704  0.0482
 5200TIP3    H137091   5.488   2.268   5.526 -2.5319 -0.5124  0.6354
 5200TIP3    H237092   5.553   2.246   5.661  0.1706  0.8988 -0.3578
 5201TIP3   OH237093   5.087   6.783   2.824 -0.3400  0.2360 -0.0080
 5201TIP3    H137094   5.172   6.805   2.785 -0.6913 -0.5787 -1.3060
 5201TIP3    H237095   5.103   6.783   2.919  0.6666  1.7855 -0.1380
 5202TIP3   OH237096   0.988   1.609   3.120 -0.4404  0.3274 -0.1729
 5202TIP3    H137097   0.905   1.598   3.167 -0.4897  0.2601 -0.2744
 5202TIP3    H237098   0.962   1.625   3.030 -0.3437  0.3543 -0.1958
 5203TIP3   OH237099   6.469   5.192   5.399  0.1027  0.1721 -0.0707
 5203TIP3    H137100   6.464   5.102   5.368 -0.8066  0.2621 -0.1979
 5203TIP3    H237101   6.518   5.238   5.331 -0.9231  0.1328 -0.8502
 5204TIP3   OH237102   3.826   3.994  16.421 -0.1942 -0.0857  0.3525
 5204TIP3    H137103   3.741   3.958  16.447  1.0596 -2.0709  1.9655
 5204TIP3    H237104   3.888   3.958  16.485  2.0407  0.3946 -1.4342
 5205TIP3   OH237105   5.260   4.004   1.169  0.3664  0.2346  0.6190
 5205TIP3    H137106   5.167   3.988   1.154  0.6687  0.0589 -1.3483
 5205TIP3    H237107   5.272   4.097   1.152  0.9718 -0.2400 -1.9973
 5206TIP3   OH237108   4.740   2.783  11.965 -0.0583 -0.0681 -0.2932
 5206TIP3    H137109   4.696   2.842  11.903  0.4150  2.3657  1.5295
 5206TIP3    H237110   4.724   2.823  12.051  3.2892 -0.6230  0.7347
 5207TIP3   OH237111   6.821   3.508  15.820  0.0667  0.0193  0.3182
 5207TIP3    H137112   6.878   3.498  15.897 -0.5545  3.3066  1.3587
 5207TIP3    H237113   6.733   3.510  15.856 -0.3978 -0.4734 -0.7541
 5208TIP3   OH237114   1.186   0.936  16.057  0.0604  0.2475 -0.2360
 5208TIP3    H137115   1.228   1.013  16.093 -2.5191  1.4197  0.5472
 5208TIP3    H237116   1.154   0.888  16.134 -3.4248  1.5410 -0.6964
 5209TIP3   OH237117   2.107   2.490  12.088 -0.2931 -0.2207 -0.0593
 5209TIP3    H137118   2.028   2.539  12.110 -0.0459 -0.3962  1.3078
 5209TIP3    H237119   2.143   2.463  12.173  1.3169 -0.0096 -0.6456
 5210TIP3   OH237120   2.046   3.327   0.442 -0.5636  0.4217 -0.0396
 5210TIP3    H137121   2.060   3.414   0.403  1.9701  0.0674 -0.0795
 5210TIP3    H237122   2.108   3.324   0.515  0.4568 -1.8801 -0.9335
 5211TIP3   OH237123   3.849   0.124   5.913 -0.1512  0.5035  0.0386
 5211TIP3    H137124   3.797   0.168   5.980 -2.1017  1.3970 -1.9688
 5211TIP3    H237125   3.855   0.033   5.944 -2.6738  0.4369  0.4987
 5212TIP3   OH237126   0.086   5.816  12.387  0.0441 -0.4342 -0.0312
 5212TIP3    H137127   0.048   5.779  12.467 -2.2891  1.3937 -0.1670
 5212TIP3    H237128   0.116   5.903  12.414  0.1529 -0.1863 -0.9382
 5213TIP3   OH237129   0.991   0.200   0.007 -0.5850  0.3822  0.0652
 5213TIP3    H137130   0.978   0.270  -0.057  0.4723  0.5493  0.0032
 5213TIP3    H237131   1.086   0.188   0.010 -0.7292 -0.8624  0.2901
 5214TIP3   OH237132   6.355   3.101  15.032  0.0188  0.1545 -0.4633
 5214TIP3    H137133   6.282   3.052  15.069 -0.4423  0.9468 -0.2997
 5214TIP3    H237134   6.433   3.050  15.054 -0.4365 -0.4115 -0.1536
 5215TIP3   OH237135   5.057   4.886  11.432  0.3901  0.1267  0.0296
 5215TIP3    H137136   5.092   4.810  11.479  2.2055 -0.3296 -1.8670
 5215TIP3    H237137   5.043   4.952  11.499 -0.0786 -1.4725  1.5834
 5216TIP3   OH237138   0.578   3.238   6.283 -0.3090  0.2061  0.3237
 5216TIP3    H137139   0.583   3.191   6.199  1.0816 -0.0668  0.5424
 5216TIP3    H237140   0.629   3.318   6.269  0.4514 -0.1345  1.0913
 5217TIP3   OH237141   6.545   0.715   6.478  0.3617  0.1548  0.1769
 5217TIP3    H137142   6.551   0.803   6.515  2.1405  0.3910 -0.5899
 5217TIP3    H237143   6.538   0.658   6.555 -1.0007  0.9377  0.6758
 5218TIP3   OH237144   3.130   6.476  16.630 -0.7806  0.0672  0.4505
 5218TIP3    H137145   3.073   6.517  16.694 -0.8365  0.1043  0.3765
 5218TIP3    H237146   3.218   6.484  16.668 -0.4291  2.5009 -0.6894
 5219TIP3   OH237147   6.474   6.169  11.806  0.4555  0.2627 -0.0219
 5219TIP3    H137148   6.540   6.203  11.866 -0.6405  1.1133  0.7451
 5219TIP3    H237149   6.445   6.086  11.846 -1.0238  1.3343  1.2493
 5220TIP3   OH237150   4.583   3.822   2.313 -0.3928 -0.1075  0.0138
 5220TIP3    H137151   4.636   3.902   2.313 -1.0294  0.3184 -0.0136
 5220TIP3    H237152   4.641   3.755   2.350  0.3163  0.2462 -0.4136
 5221TIP3   OH237153   2.618   3.269   3.647 -0.1962 -0.5726  0.8728
 5221TIP3    H137154   2.652   3.358   3.635 -0.7560 -0.2190  1.8299
 5221TIP3    H237155   2.556   3.276   3.719 -1.5242 -1.4047 -0.1280
 5222TIP3   OH237156   2.591   4.833   2.979 -0.6185  0.1083 -0.6480
 5222TIP3    H137157   2.574   4.902   3.043  2.6580  1.9715 -1.5822
 5222TIP3    H237158   2.620   4.759   3.031 -0.4151  0.7553  0.1864
 5223TIP3   OH237159   4.928   6.702  16.286 -0.4217 -0.2132  0.3211
 5223TIP3    H137160   4.959   6.784  16.324 -2.2885  0.8288 -0.2804
 5223TIP3    H237161   5.005   6.665  16.244  0.7709  0.5559  1.7138
 5224TIP3   OH237162   5.796   2.119  14.538  0.3497  0.0891 -0.0473
 5224TIP3    H137163   5.724   2.133  14.600  0.5351  1.6116 -0.1440
 5224TIP3    H237164   5.758   2.063  14.470 -1.4367  2.4319 -1.1356
 5225TIP3   OH237165   1.148   1.596  12.073 -0.4991 -0.1129 -0.3919
 5225TIP3    H137166   1.097   1.607  12.153  0.1037  0.7048 -0.1067
 5225TIP3    H237167   1.152   1.501  12.060  0.3995 -0.3184  1.2054
 5226TIP3   OH237168   4.673   5.639   0.583  0.1428 -0.0994  0.5613
 5226TIP3    H137169   4.725   5.719   0.590  0.7470 -0.5173  1.0265
 5226TIP3    H237170   4.614   5.642   0.659 -0.4741  0.3450  0.0680
 5227TIP3   OH237171   6.058   6.223   0.726  0.7824 -0.1699  0.2231
 5227TIP3    H137172   5.973   6.264   0.741  1.3415  1.6581 -1.2750
 5227TIP3    H237173   6.064   6.155   0.793 -1.7803 -0.2460  0.4490
 5228TIP3   OH237174   5.867   2.053  12.697  0.4014 -0.4325 -0.3214
 5228TIP3    H137175   5.811   2.003  12.757 -0.1324 -1.4848 -1.6302
 5228TIP3    H237176   5.940   1.994  12.678 -0.0359 -0.5923 -1.5862
 5229TIP3   OH237177   2.527   5.813  14.534 -0.6947  1.0350  0.4188
 5229TIP3    H137178   2.589   5.853  14.473  0.3031  0.4500  1.0134
 5229TIP3    H237179   2.582   5.776  14.603 -1.6911  0.2133  0.8015
 5230TIP3   OH237180   4.094   4.219   3.668 -0.0443  1.0101 -0.1928
 5230TIP3    H137181   4.141   4.291   3.626  2.8820 -1.3791 -1.4329
 5230TIP3    H237182   4.159   4.178   3.725 -1.7322 -0.3950  0.8294
 5231TIP3   OH237183   3.947   6.059   5.663  0.2353 -0.4033 -0.3058
 5231TIP3    H137184   3.973   5.978   5.707 -0.4415 -1.1362 -1.2003
 5231TIP3    H237185   4.011   6.124   5.691  1.6966 -1.6139 -0.7317
 5232TIP3   OH237186   1.209   5.647  16.602 -0.3699  0.0270  0.2026
 5232TIP3    H137187   1.297   5.645  16.641 -0.4701  0.4320  0.4566
 5232TIP3    H237188   1.190   5.740  16.591 -0.3777 -0.0779 -0.7469
 5233TIP3   OH237189   3.698   3.281  16.677  1.0273  0.0439  0.1665
 5233TIP3    H137190   3.617   3.326  16.651  0.0039 -0.7509  1.7992
 5233TIP3    H237191   3.734   3.247  16.595 -3.0612 -4.0947 -0.3034
 5234TIP3   OH237192   1.525   2.970   1.179  0.0949 -0.4242 -0.5306
 5234TIP3    H137193   1.454   2.927   1.226 -0.1123 -1.3572 -1.6430
 5234TIP3    H237194   1.592   2.902   1.170  1.2316  0.4960  0.6692
 5235TIP3   OH237195   0.727   3.856  14.761 -0.1410  0.4244 -0.2822
 5235TIP3    H137196   0.822   3.850  14.748 -0.3560  0.8873 -2.5196
 5235TIP3    H237197   0.690   3.819  14.681 -1.9312 -1.9106  1.4818
 5236TIP3   OH237198   0.638   0.289  16.517 -0.1313  0.2834  0.0647
 5236TIP3    H137199   0.710   0.344  16.548  0.2762  0.0457 -0.4578
 5236TIP3    H237200   0.610   0.241  16.595  2.0376 -1.6116 -0.2226
 5237TIP3   OH237201   4.855   4.125   2.653 -0.0096 -0.4375  0.2464
 5237TIP3    H137202   4.886   4.036   2.670  1.7983  0.0890 -0.0721
 5237TIP3    H237203   4.762   4.114   2.631  0.6633 -2.5476 -2.1072
 5238TIP3   OH237204   0.493   1.230   4.049  0.3034 -0.5720  0.0133
 5238TIP3    H137205   0.521   1.155   3.997 -1.1402 -0.0803 -1.5853
 5238TIP3    H237206   0.408   1.204   4.085 -0.8318  0.6612 -1.5956
 5239TIP3   OH237207   4.837   3.209   3.763 -0.3121 -0.4490 -0.1087
 5239TIP3    H137208   4.852   3.271   3.691  0.2104 -1.0558 -0.5290
 5239TIP3    H237209   4.895   3.239   3.833  0.7940 -1.1178 -0.7170
 5240TIP3   OH237210   0.230   5.673  16.161 -0.7646 -0.4378  0.3641
 5240TIP3    H137211   0.225   5.610  16.233  0.6462  0.7305  1.5658
 5240TIP3    H237212   0.213   5.758  16.203 -2.3344  0.0367 -1.1513
 5241TIP3   OH237213   0.242   5.513   0.712 -0.0145 -1.0246  0.1300
 5241TIP3    H137214   0.173   5.513   0.778  0.1239  1.0578  0.3544
 5241TIP3    H237215   0.311   5.568   0.750  0.2543 -0.1390 -1.5414
 5242TIP3   OH237216   3.689   6.002   1.114 -0.1444  0.0694  0.4353
 5242TIP3    H137217   3.656   5.979   1.027 -0.9907  0.9711  0.5173
 5242TIP3    H237218   3.615   5.988   1.173  0.8157 -1.9331  1.2690
 5243TIP3   OH237219   1.818   0.317   4.297 -0.2721  0.2414 -0.4604
 5243TIP3    H137220   1.808   0.347   4.207 -2.0091  0.6604 -0.1542
 5243TIP3    H237221   1.852   0.394   4.344 -0.6391  0.4299 -0.5028
 5244TIP3   OH237222   4.388   2.677  14.554  0.2200  0.0963 -0.6151
 5244TIP3    H137223   4.432   2.751  14.512 -0.8113  1.2358  0.2303
 5244TIP3    H237224   4.449   2.647  14.621  1.0926 -0.5374 -1.6635
 5245TIP3   OH237225   6.658   4.778  13.235  0.7082 -0.6067 -0.6007
 5245TIP3    H137226   6.587   4.833  13.269 -0.6509 -2.6568  0.0308
 5245TIP3    H237227   6.711   4.839  13.184 -1.2114  1.1317 -0.7059
 5246TIP3   OH237228   6.086   4.608  12.284 -0.0924 -0.7231  0.3991
 5246TIP3    H137229   6.145   4.642  12.216  0.3061 -0.4887  0.8566
 5246TIP3    H237230   6.035   4.685  12.312 -2.0599 -1.2764 -1.3795
 5247TIP3   OH237231   5.801   0.078  14.931 -0.0202  0.2930  0.4681
 5247TIP3    H137232   5.777   0.022  15.005 -1.0984  0.2910  0.1398
 5247TIP3    H237233   5.819   0.164  14.971  0.2571  0.0746  0.8185
 5248TIP3   OH237234   3.566   1.055   1.662 -0.7177 -0.3349  0.4120
 5248TIP3    H137235   3.487   1.002   1.659 -0.4344 -0.7217 -0.3595
 5248TIP3    H237236   3.535   1.144   1.646 -0.7723 -0.7487 -2.1950
 5249TIP3   OH237237   0.038   2.510   4.052 -0.3306  0.3307 -0.9130
 5249TIP3    H137238  -0.015   2.587   4.031  2.2909  2.2919 -0.9119
 5249TIP3    H237239   0.077   2.484   3.968  1.5949  1.3484 -0.4076
 5250TIP3   OH237240   0.027   5.996  14.157 -0.3361 -0.5029  0.1914
 5250TIP3    H137241  -0.056   5.962  14.189  0.0772 -1.4791  0.2676
 5250TIP3    H237242   0.046   5.944  14.079  0.4833 -0.7102  0.5118
 5251TIP3   OH237243   0.995   3.871   2.196 -0.4426  0.5085 -0.6466
 5251TIP3    H137244   0.916   3.862   2.143 -0.5709 -0.9466 -0.2562
 5251TIP3    H237245   1.025   3.960   2.179 -0.3745  0.0457 -3.2872
 5252TIP3   OH237246   1.626   1.881   2.301  0.9389 -0.3285  0.7227
 5252TIP3    H137247   1.573   1.894   2.379 -0.0738 -0.7221  0.1159
 5252TIP3    H237248   1.598   1.949   2.241  0.9248 -0.7114  0.2922
 5253TIP3   OH237249   1.412   1.596  15.436 -0.1042  0.3132  0.5965
 5253TIP3    H137250   1.495   1.592  15.484  0.7974 -0.3420 -0.9663
 5253TIP3    H237251   1.433   1.641  15.354 -1.6808  1.6777  0.8652
 5254TIP3   OH237252   5.803   1.272   1.137 -0.0329  1.0057  0.0843
 5254TIP3    H137253   5.846   1.338   1.083  1.1907  1.1451  1.2008
 5254TIP3    H237254   5.758   1.321   1.205  0.6234  0.7260  0.7359
 5255TIP3   OH237255   3.372   5.999  12.130  0.0715  0.2744  0.1675
 5255TIP3    H137256   3.405   6.017  12.218  0.0204  2.0699 -0.1377
 5255TIP3    H237257   3.292   5.948  12.144  0.9961 -0.9553  1.0707
 5256TIP3   OH237258   4.913   6.672  13.383 -0.8045 -0.0984 -0.0766
 5256TIP3    H137259   4.919   6.738  13.453 -2.4289  0.1209 -0.0884
 5256TIP3    H237260   4.870   6.718  13.311  0.1890 -0.5355 -0.9728
 5257TIP3   OH237261   2.863   3.208  11.799  0.0484  0.0708  0.4927
 5257TIP3    H137262   2.844   3.216  11.892 -2.1312 -0.5172  0.1509
 5257TIP3    H237263   2.820   3.126  11.772  0.3296  0.4044 -1.1022
 5258TIP3   OH237264   1.818   4.421   2.288 -0.5379 -0.3035  0.0438
 5258TIP3    H137265   1.786   4.461   2.207  1.1404 -0.8908 -0.9591
 5258TIP3    H237266   1.904   4.385   2.265 -0.2912 -1.0456  1.9302
 5259TIP3   OH237267   1.346   1.710  17.099  0.3448  0.5022 -0.2023
 5259TIP3    H137268   1.419   1.693  17.039 -1.1633  0.2070 -2.0366
 5259TIP3    H237269   1.360   1.799  17.130  0.4184  1.1939 -2.1334
 5260TIP3   OH237270   4.348   2.266   3.219  0.4145  0.2101 -0.3861
 5260TIP3    H137271   4.423   2.207   3.221 -0.0774 -0.4539 -0.9787
 5260TIP3    H237272   4.277   2.214   3.180 -0.2753  0.9112 -0.1004
 5261TIP3   OH237273   1.683   4.363  12.755  0.3095 -0.4365  0.0832
 5261TIP3    H137274   1.762   4.402  12.793  1.4738 -0.0754 -2.4366
 5261TIP3    H237275   1.673   4.279  12.800 -0.4319  1.3044  3.4361
 5262TIP3   OH237276   2.113   1.026  10.634 -0.2705 -0.0080 -0.1191
 5262TIP3    H137277   2.049   0.978  10.582  0.8477 -0.4148 -1.1574
 5262TIP3    H237278   2.066   1.104  10.663 -0.8863  0.3505 -1.9423
 5263TIP3   OH237279   3.086   2.542   5.110  0.0074  0.2511 -0.2474
 5263TIP3    H137280   3.106   2.567   5.019  1.7230  0.9816  0.2895
 5263TIP3    H237281   3.164   2.494   5.139 -0.8604 -0.6868  0.6066
 5264TIP3   OH237282   5.550   4.628   3.156 -0.3199  0.6027  0.2694
 5264TIP3    H137283   5.525   4.719   3.135  0.2895  0.9054  0.8223
 5264TIP3    H237284   5.507   4.576   3.088 -1.6975  1.1788  0.6537
 5265TIP3   OH237285   0.887   1.237  14.995  0.1710  0.2489  0.0442
 5265TIP3    H137286   0.877   1.262  15.087  0.7312  1.8044 -0.2792
 5265TIP3    H237287   0.953   1.297  14.961 -1.4643  1.1009 -1.8697
 5266TIP3   OH237288   1.954   2.219   1.660  0.0069  0.1119  0.3772
 5266TIP3    H137289   2.005   2.157   1.712  0.6747  0.2780 -0.0622
 5266TIP3    H237290   1.929   2.287   1.721 -0.6510 -0.5384  0.8464
 5267TIP3   OH237291   1.229   0.878   1.003 -0.3889 -0.0373 -0.2205
 5267TIP3    H137292   1.186   0.800   1.036 -0.9948 -0.2507 -1.4478
 5267TIP3    H237293   1.255   0.855   0.913 -0.1690  1.0034 -0.4373
 5268TIP3   OH237294   5.174   1.949   1.923  0.3861 -0.3699  0.2516
 5268TIP3    H137295   5.223   1.867   1.915  2.6704  0.9185  0.0493
 5268TIP3    H237296   5.206   1.989   2.004 -1.6256 -0.2212  1.0250
 5269TIP3   OH237297   2.313   5.023   1.940  0.3665 -0.2863 -0.2637
 5269TIP3    H137298   2.305   5.046   1.848  1.9088  0.0543 -0.3435
 5269TIP3    H237299   2.259   5.087   1.986 -0.6159 -0.6162 -0.9302
 5270TIP3   OH237300   4.747   4.874   2.318 -0.2712 -0.0736  0.1542
 5270TIP3    H137301   4.795   4.805   2.363 -0.0209  1.1884  1.9131
 5270TIP3    H237302   4.674   4.894   2.377 -1.4991 -0.1868 -1.2747
 5271TIP3   OH237303   0.027   2.172   1.507  0.1094  0.0370  0.0693
 5271TIP3    H137304   0.094   2.237   1.527 -0.3169  1.1791 -1.9424
 5271TIP3    H237305  -0.056   2.216   1.528 -0.1471 -0.0732 -0.6765
 5272TIP3   OH237306   2.189   1.170  12.137 -0.5286  0.1375 -0.1220
 5272TIP3    H137307   2.262   1.230  12.141 -0.4396  0.0882 -0.8346
 5272TIP3    H237308   2.120   1.218  12.090 -0.4600 -0.2999 -0.6883
 5273TIP3   OH237309   2.159   0.437   3.707 -0.2981 -0.3004  0.7837
 5273TIP3    H137310   2.154   0.533   3.705  0.4059 -0.2745 -0.3959
 5273TIP3    H237311   2.148   0.410   3.616 -0.4256 -1.3546  1.0927
 5274TIP3   OH237312   4.508   0.124  14.548 -0.5018 -0.3849  0.5819
 5274TIP3    H137313   4.435   0.103  14.489 -1.5965  1.1552  1.3210
 5274TIP3    H237314   4.477   0.098  14.635 -0.5357  0.9900  1.0116
 5275TIP3   OH237315   0.412   0.990   1.500 -0.3902  0.4296  0.2283
 5275TIP3    H137316   0.339   0.929   1.506  0.0575 -0.2668 -1.0498
 5275TIP3    H237317   0.479   0.943   1.451  0.7083  1.2678  0.8723
 5276TIP3   OH237318   0.541   0.140  14.443  0.4234  0.4835  0.0011
 5276TIP3    H137319   0.635   0.123  14.447  0.5348  1.1471  0.3517
 5276TIP3    H237320   0.532   0.231  14.472 -0.4502  0.0066  1.2863
 5277TIP3   OH237321   3.135   1.731   0.937 -0.2441  0.6327 -0.2598
 5277TIP3    H137322   3.230   1.726   0.944 -0.2948 -0.1362  0.0062
 5277TIP3    H237323   3.104   1.656   0.987 -1.0093  1.1602  0.0702
 5278TIP3   OH237324   6.675   5.233   6.102  0.8073 -0.0315 -0.1737
 5278TIP3    H137325   6.632   5.234   6.188  1.0706 -0.5599 -0.0265
 5278TIP3    H237326   6.634   5.304   6.054 -0.3244 -0.5955 -0.0810
 5279TIP3   OH237327   3.710   3.295  14.087 -0.1144 -0.3123 -0.3934
 5279TIP3    H137328   3.691   3.389  14.093  0.9334 -0.1510  1.3622
 5279TIP3    H237329   3.680   3.270  14.000  1.9275  2.2030 -1.9675
 5280TIP3   OH237330   2.971   5.999   3.683  0.1969 -0.2460 -0.1872
 5280TIP3    H137331   3.049   6.049   3.708 -0.5716  0.7144  0.3622
 5280TIP3    H237332   2.924   6.056   3.622 -0.2883 -0.6308 -0.1828
 5281TIP3   OH237333   1.204   6.694   0.743 -0.1680 -0.3370  0.2942
 5281TIP3    H137334   1.270   6.685   0.674 -0.7056  0.1118 -0.2871
 5281TIP3    H237335   1.120   6.681   0.699 -0.6252  1.4642  0.5406
 5282TIP3   OH237336   3.241   1.073   3.355 -0.1919 -0.2112  0.5555
 5282TIP3    H137337   3.183   1.146   3.334  0.8517  0.1770 -1.1453
 5282TIP3    H237338   3.185   0.996   3.351 -0.6996  0.1902 -0.7363
 5283TIP3   OH237339   4.790   5.107   4.133  0.9132  0.3482 -0.3099
 5283TIP3    H137340   4.772   5.072   4.220  0.5942 -0.5450 -0.7188
 5283TIP3    H237341   4.709   5.152   4.108  0.7102 -0.1008 -0.4716
 5284TIP3   OH237342   0.021   2.651   1.073  0.1749  0.4945  0.1877
 5284TIP3    H137343  -0.042   2.615   1.135  0.1703  1.2886  0.6611
 5284TIP3    H237344   0.079   2.706   1.126  0.7950  0.3931 -0.3572
 5285TIP3   OH237345   0.818   0.195   2.258 -0.0247 -0.4502  0.3949
 5285TIP3    H137346   0.751   0.150   2.205 -1.7585 -0.0167  2.0868
 5285TIP3    H237347   0.771   0.268   2.299  1.8440  0.6859  0.6327
 5286TIP3   OH237348   3.835   3.605  13.079 -0.7552  0.4449 -0.1376
 5286TIP3    H137349   3.803   3.617  12.989  0.0057  2.4057 -0.1936
 5286TIP3    H237350   3.917   3.654  13.082 -0.4000 -0.1783  1.4518
 5287TIP3   OH237351   0.599   3.502  14.053  0.4491 -0.2435  0.1502
 5287TIP3    H137352   0.568   3.416  14.082 -0.1845  0.1554  0.6916
 5287TIP3    H237353   0.522   3.558  14.060  0.4399  0.0191 -1.7485
 5288TIP3   OH237354   3.698   3.982  16.914 -0.3195 -0.5324 -0.0439
 5288TIP3    H137355   3.694   3.904  16.970  1.2095 -1.0276 -0.5648
 5288TIP3    H237356   3.692   3.947  16.825  0.9831 -0.1488 -0.3038
 5289TIP3   OH237357   0.212   1.411  16.626  0.3124  0.2473 -0.0866
 5289TIP3    H137358   0.236   1.330  16.580  1.0391  0.1690  0.4164
 5289TIP3    H237359   0.200   1.384  16.717 -1.1486  0.3940 -0.2210
 5290TIP3   OH237360   0.719   2.459   1.315 -0.2190 -0.0890 -0.0946
 5290TIP3    H137361   0.768   2.524   1.265 -1.9776  0.0293 -1.8058
 5290TIP3    H237362   0.668   2.411   1.249 -1.0257 -1.3901  1.3898
 5291TIP3   OH237363   3.074   0.425  14.685  0.4897  0.0732 -0.6730
 5291TIP3    H137364   3.015   0.400  14.756  0.1239  0.4453 -0.8384
 5291TIP3    H237365   3.017   0.469  14.622  1.3225  2.8337  0.3556
 5292TIP3   OH237366   1.985   4.668   6.425 -0.9001 -0.0507  0.1881
 5292TIP3    H137367   1.909   4.628   6.467 -1.7078  1.3694  0.1509
 5292TIP3    H237368   2.037   4.703   6.498 -1.6021  1.2031  0.1182
 5293TIP3   OH237369   5.151   6.233  15.770  0.6314 -0.4419 -0.4949
 5293TIP3    H137370   5.133   6.139  15.759  0.3403 -0.6314  1.3284
 5293TIP3    H237371   5.231   6.248  15.719  1.1727 -1.8765 -0.1335
 5294TIP3   OH237372   5.641   1.594   3.984  0.2349 -0.2643 -0.2380
 5294TIP3    H137373   5.670   1.662   3.922  2.5105 -1.6560 -0.8097
 5294TIP3    H237374   5.641   1.639   4.069 -0.6265  1.0499 -0.8933
 5295TIP3   OH237375   6.156   6.113  11.645  0.2862  0.4900 -0.0959
 5295TIP3    H137376   6.133   6.022  11.625  2.2001 -0.4330  1.5762
 5295TIP3    H237377   6.078   6.150  11.685 -0.6446 -0.2641 -1.1569
 5296TIP3   OH237378   6.597   5.615  12.245  0.2375 -0.5500 -0.4323
 5296TIP3    H137379   6.596   5.550  12.315  0.1142 -0.5828 -0.4649
 5296TIP3    H237380   6.527   5.588  12.186  1.1484 -1.2367 -1.2273
 5297TIP3   OH237381   2.130   4.917  14.178  0.0047  0.2805  0.1038
 5297TIP3    H137382   2.111   4.999  14.224  2.7829 -0.1014  2.1521
 5297TIP3    H237383   2.197   4.941  14.114 -0.6527 -0.0439 -0.7189
 5298TIP3   OH237384   1.908   2.527   2.299 -0.3122  0.0619 -0.3482
 5298TIP3    H137385   1.845   2.489   2.360 -1.6212 -1.5723 -2.5627
 5298TIP3    H237386   1.901   2.622   2.313 -2.3661 -0.1505  0.3224
 5299TIP3   OH237387   6.476   5.704  11.700 -0.6959 -0.6085  0.6924
 5299TIP3    H137388   6.565   5.673  11.719  0.1353  2.0264  1.4538
 5299TIP3    H237389   6.445   5.739  11.784 -1.9937 -0.3721  0.1315
 5300TIP3   OH237390   5.508   0.805  13.246 -0.4721 -0.2861 -0.4549
 5300TIP3    H137391   5.506   0.737  13.313  0.3240 -0.6163 -0.7577
 5300TIP3    H237392   5.564   0.873  13.283 -1.0461  0.0960 -0.2683
 5301TIP3   OH237393   3.643   6.008   0.370 -0.5269  0.2247  0.4896
 5301TIP3    H137394   3.733   5.976   0.373 -0.1683  1.2561  2.7356
 5301TIP3    H237395   3.625   6.040   0.458 -3.1131  0.0874  0.1068
 5302TIP3   OH237396   5.015   1.843  14.770  0.3113  0.3439  0.2979
 5302TIP3    H137397   4.927   1.864  14.802  0.0359 -1.3464  0.7370
 5302TIP3    H237398   5.056   1.797  14.843  0.5656 -1.3398 -0.8703
 5303TIP3   OH237399   2.062   0.183   4.486  0.3068 -0.3259  0.1855
 5303TIP3    H137400   1.985   0.147   4.529 -1.0967 -0.1125 -2.0062
 5303TIP3    H237401   2.117   0.107   4.468 -0.0946 -0.6788  0.4334
 5304TIP3   OH237402   3.386   6.378   2.970 -0.5491 -0.1304  0.5883
 5304TIP3    H137403   3.372   6.315   2.900 -0.7660  0.0734  0.4476
 5304TIP3    H237404   3.481   6.378   2.984 -0.7251 -2.6915  2.6064
 5305TIP3   OH237405   3.538   4.602  17.101 -0.6652 -0.1809  0.0101
 5305TIP3    H137406   3.613   4.549  17.130 -0.1944  1.3802  1.9032
 5305TIP3    H237407   3.473   4.539  17.072  0.2014 -1.7667  1.3493
 5306TIP3   OH237408   3.831   6.342  11.226 -0.4864 -0.1012 -0.3698
 5306TIP3    H137409   3.878   6.419  11.194 -1.8228  0.6542 -0.6121
 5306TIP3    H237410   3.871   6.323  11.311 -0.2010  0.9438 -0.2529
 5307TIP3   OH237411   1.822   3.768  11.909 -0.1362  0.3641  0.2269
 5307TIP3    H137412   1.778   3.837  11.960 -0.0020  1.1083 -0.6392
 5307TIP3    H237413   1.751   3.725  11.862 -0.2416 -0.2206  0.9058
 5308TIP3   OH237414   0.262   4.425   5.351  0.1939 -0.3137 -0.5184
 5308TIP3    H137415   0.250   4.492   5.419 -0.4358 -1.1889  0.2451
 5308TIP3    H237416   0.174   4.409   5.316  0.3032 -0.9229 -0.5263
 5309TIP3   OH237417   4.543   2.977   0.573  1.0366 -0.1699  0.4612
 5309TIP3    H137418   4.526   2.896   0.525 -0.1063  0.6970 -0.6723
 5309TIP3    H237419   4.471   2.982   0.637 -1.0636  1.6334 -1.8344
 5310TIP3   OH237420   0.597   0.908  14.971 -0.4788  0.4497  0.0134
 5310TIP3    H137421   0.621   0.989  14.925 -1.3427 -0.4203 -2.1123
 5310TIP3    H237422   0.552   0.856  14.904 -1.8822 -0.8838  1.9068
 5311TIP3   OH237423   0.579   4.509  16.914 -0.2093 -0.0815  0.4934
 5311TIP3    H137424   0.607   4.545  16.998  0.6848 -2.1227  1.1262
 5311TIP3    H237425   0.639   4.436  16.898  2.8381  2.9034 -4.2054
 5312TIP3   OH237426   1.533   3.929   2.726 -0.4979 -0.3582 -0.0008
 5312TIP3    H137427   1.589   3.906   2.652 -0.3715 -0.5737  0.1610
 5312TIP3    H237428   1.448   3.890   2.705 -1.0530  1.2737 -0.9930
 5313TIP3   OH237429   2.317   3.602   2.108  0.3785  0.5773  0.3359
 5313TIP3    H137430   2.283   3.615   2.196  1.7500  0.3015  0.9305
 5313TIP3    H237431   2.240   3.582   2.055 -0.2201 -2.2983  2.0449
 5314TIP3   OH237432   4.103   4.315  14.891  0.2026 -0.4462  0.1224
 5314TIP3    H137433   4.084   4.408  14.900  1.1609 -0.1451 -0.7728
 5314TIP3    H237434   4.022   4.276  14.860 -0.0026  0.2141 -0.1814
 5315TIP3   OH237435   5.460   0.534   2.220 -0.0280  0.2859  0.0716
 5315TIP3    H137436   5.366   0.555   2.224  0.2692  1.4697  2.2574
 5315TIP3    H237437   5.503   0.619   2.209  0.8764  0.0384  1.5127
 5316TIP3   OH237438   0.014   6.772   0.295  0.0542  0.1779  0.1548
 5316TIP3    H137439   0.016   6.676   0.302  0.6189  0.3194  3.7657
 5316TIP3    H237440   0.104   6.795   0.272 -0.1545 -0.1325 -1.0345
 5317TIP3   OH237441   2.574   2.296  14.262  0.2532  0.4516 -0.2368
 5317TIP3    H137442   2.658   2.251  14.268 -0.1576 -0.4155 -0.6620
 5317TIP3    H237443   2.510   2.228  14.284 -0.2848  1.3816  1.2263
 5318TIP3   OH237444   0.974   2.598   2.271  0.4594 -0.3868  0.2243
 5318TIP3    H137445   1.054   2.550   2.248 -0.1472 -2.3714  1.9728
 5318TIP3    H237446   0.918   2.587   2.194  2.3241  2.3763 -1.7019
 5319TIP3   OH237447   5.841   6.807   3.903  0.6407  0.1470  0.6250
 5319TIP3    H137448   5.880   6.731   3.946 -0.7578 -0.8669  0.1847
 5319TIP3    H237449   5.810   6.774   3.819 -0.0874  1.1853  0.4647
 5320TIP3   OH237450   2.254   2.803   2.517 -0.0358  0.3350  0.1322
 5320TIP3    H137451   2.278   2.877   2.462  1.4738  0.8999  1.4777
 5320TIP3    H237452   2.214   2.740   2.457  0.3402  1.4701 -1.3568
 5321TIP3   OH237453   5.943   5.283   0.456 -0.3625 -0.4398 -0.2356
 5321TIP3    H137454   6.023   5.235   0.434 -0.8898 -1.3315 -0.2666
 5321TIP3    H237455   5.937   5.351   0.388  0.0249 -0.7711 -0.6119
 5322TIP3   OH237456   6.525   4.189  12.228 -0.6487  0.2634  0.8731
 5322TIP3    H137457   6.456   4.150  12.282 -0.6905 -1.2541 -0.1965
 5322TIP3    H237458   6.482   4.208  12.144  0.0849 -0.1849  0.3810
 5323TIP3   OH237459   4.298   5.143   3.484  0.4796 -0.4533  0.2556
 5323TIP3    H137460   4.384   5.127   3.523  1.2163  0.7406 -0.8397
 5323TIP3    H237461   4.315   5.156   3.391 -0.6315  1.6685  0.2876
 5324TIP3   OH237462   2.986   5.952  16.951 -0.0251  0.4645 -0.3768
 5324TIP3    H137463   3.050   6.023  16.945  1.1101 -0.4770  0.0978
 5324TIP3    H237464   2.938   5.955  16.868  0.7044  1.1414 -0.7832
 5325TIP3   OH237465   2.850   1.569  10.518 -0.1746 -0.2593  0.0845
 5325TIP3    H137466   2.908   1.586  10.444 -1.4818 -2.0123 -1.4087
 5325TIP3    H237467   2.815   1.655  10.541  1.6489  0.5791 -0.0748
 5326TIP3   OH237468   0.823   0.182  11.465 -0.2983 -0.1461 -0.0009
 5326TIP3    H137469   0.827   0.223  11.379  1.3005  0.4307  0.3215
 5326TIP3    H237470   0.744   0.219  11.505  0.0807  1.2040 -0.4348
 5327TIP3   OH237471   4.487   1.970   3.611 -0.1023  0.1389 -0.1417
 5327TIP3    H137472   4.490   1.895   3.671 -0.1716 -0.2859 -0.6592
 5327TIP3    H237473   4.579   1.998   3.604  0.0414 -0.4140 -0.5749
 5328TIP3   OH237474   1.939   6.068  15.930 -0.0390  0.3592  0.1045
 5328TIP3    H137475   1.986   6.074  15.847  0.2392 -0.8128  0.1668
 5328TIP3    H237476   1.852   6.036  15.907  0.3817 -1.0081  0.3622
 5329TIP3   OH237477   2.214   2.262  17.274  0.1248 -0.3587  0.2313
 5329TIP3    H137478   2.270   2.339  17.269  1.3497 -1.2207  0.1632
 5329TIP3    H237479   2.246   2.204  17.205 -1.4749 -0.5084 -0.4493
 5330TIP3   OH237480   0.973   4.341   2.783 -0.2669  0.2585 -0.3838
 5330TIP3    H137481   0.985   4.357   2.877  0.1606 -0.1405 -0.3655
 5330TIP3    H237482   0.881   4.364   2.766  0.3982  3.2696 -0.4867
 5331TIP3   OH237483   2.864   0.074   0.300  0.1643  0.0160  0.4112
 5331TIP3    H137484   2.947   0.106   0.336  1.1049  0.4214 -1.9391
 5331TIP3    H237485   2.811   0.152   0.290  0.5330  0.1592 -0.5532
 5332TIP3   OH237486   0.119   2.115  15.501  0.0526  0.5884  0.4852
 5332TIP3    H137487   0.080   2.082  15.582  0.5375 -1.4050 -0.0195
 5332TIP3    H237488   0.046   2.149  15.450 -0.8817 -1.6617  0.2041
 5333TIP3   OH237489   4.821   0.944   0.485  0.4354 -0.1431 -0.6535
 5333TIP3    H137490   4.791   0.888   0.556  1.3176  0.5036  0.2580
 5333TIP3    H237491   4.742   0.987   0.453  0.0889 -0.0552  0.2876
 5334TIP3   OH237492   2.713   1.854   2.074 -0.7450 -0.1994 -0.2923
 5334TIP3    H137493   2.682   1.940   2.103  0.4663 -0.4006  1.7815
 5334TIP3    H237494   2.735   1.867   1.981  0.5058  2.0778  0.2349
 5335TIP3   OH237495   3.117   4.903  16.030 -0.3664 -0.4162  0.2316
 5335TIP3    H137496   3.170   4.866  15.959 -1.0239 -2.4248  0.7347
 5335TIP3    H237497   3.066   4.972  15.988  0.7163 -0.2143 -0.8082
 5336TIP3   OH237498   6.581   0.880  15.339 -0.2140  0.2642  0.4191
 5336TIP3    H137499   6.538   0.812  15.391  0.6200  0.4107  1.3308
 5336TIP3    H237500   6.517   0.951  15.335 -0.2620  0.2818  1.3269
 5337TIP3   OH237501   2.268   3.587   2.990 -0.5690  0.2129  0.3085
 5337TIP3    H137502   2.289   3.656   3.053  0.6907 -1.8030  2.2558
 5337TIP3    H237503   2.347   3.578   2.937 -0.2985 -0.4768  0.8185
 5338TIP3   OH237504   0.178   2.070   6.944 -0.2738  0.0496 -0.6140
 5338TIP3    H137505   0.103   2.010   6.938 -1.9128  1.8298  0.6441
 5338TIP3    H237506   0.140   2.152   6.974  2.4035  0.6037  1.7768
 5339TIP3   OH237507   4.734   1.765   4.387  0.3246  0.4038 -0.4533
 5339TIP3    H137508   4.750   1.691   4.446  0.8534 -0.9324 -2.1892
 5339TIP3    H237509   4.783   1.838   4.426  1.6204 -0.7378  0.1545
 5340TIP3   OH237510   4.480   4.794  14.993 -0.3339 -0.1077  0.2621
 5340TIP3    H137511   4.483   4.850  14.915 -0.9090 -1.5936 -0.8704
 5340TIP3    H237512   4.534   4.718  14.971  0.7241  0.1124  1.9020
 5341TIP3   OH237513   0.310   5.992   6.470 -0.0302 -0.5832  0.2965
 5341TIP3    H137514   0.237   6.048   6.497 -0.3134 -0.7612 -0.1014
 5341TIP3    H237515   0.278   5.944   6.394  0.3813 -0.9264  0.3334
 5342TIP3   OH237516   2.062   6.714   0.243  0.6458  0.4195  0.3367
 5342TIP3    H137517   2.002   6.643   0.219 -0.8164  1.2280  1.4505
 5342TIP3    H237518   2.126   6.672   0.301 -0.1877 -0.0207  0.9647
 5343TIP3   OH237519   1.766   1.973  13.944  0.3348 -0.2148  0.0445
 5343TIP3    H137520   1.686   1.922  13.952  0.3520 -0.1321  0.8020
 5343TIP3    H237521   1.815   1.956  14.025  1.6896 -1.2767 -0.9504
 5344TIP3   OH237522   2.363   5.050   0.625  0.4812  0.2442  0.4588
 5344TIP3    H137523   2.426   5.010   0.685 -1.8533 -0.2262  2.7641
 5344TIP3    H237524   2.399   5.137   0.607  1.8001 -0.0117  1.6642
 5345TIP3   OH237525   0.300   2.658   3.834 -0.0268 -0.6264  0.3026
 5345TIP3    H137526   0.339   2.617   3.912  0.5256 -0.1842  0.2687
 5345TIP3    H237527   0.327   2.601   3.762  0.9618 -0.0763  0.2220
 5346TIP3   OH237528   6.010   6.647  11.161  0.3133  0.1288 -0.3635
 5346TIP3    H137529   5.939   6.701  11.197  1.0374  1.5465 -0.9699
 5346TIP3    H237530   6.036   6.694  11.081  3.0496  0.5718  0.6982
 5347TIP3   OH237531   6.084   0.046  16.798 -0.1589  0.2110  0.3364
 5347TIP3    H137532   6.041   0.050  16.884  0.2400 -1.0300  0.6102
 5347TIP3    H237533   6.165  -0.002  16.815  0.3383  0.7041 -0.5819
 5348TIP3   OH237534   4.270   4.466  16.627  0.3054 -0.2955  0.4671
 5348TIP3    H137535   4.180   4.456  16.657  0.7894 -3.3172  1.3138
 5348TIP3    H237536   4.263   4.474  16.532 -0.8624 -2.3957  0.3114
 5349TIP3   OH237537   3.038   5.315  14.880  0.2803 -0.5230  0.6290
 5349TIP3    H137538   3.038   5.293  14.973  0.3456  1.0611  1.0216
 5349TIP3    H237539   3.115   5.370  14.867 -1.0980  1.4300  0.2052
 5350TIP3   OH237540   1.632   4.253   4.561 -0.1037 -0.0619  0.2865
 5350TIP3    H137541   1.613   4.195   4.635 -0.1215 -0.3230  0.0745
 5350TIP3    H237542   1.555   4.310   4.555  0.2153  0.4551  0.9414
 5351TIP3   OH237543   1.544   3.977   1.310  0.0635 -0.1183  0.0064
 5351TIP3    H137544   1.508   4.058   1.273  0.6668 -0.2921 -1.0058
 5351TIP3    H237545   1.567   3.924   1.233  2.4088 -0.0257  0.5673
 5352TIP3   OH237546   3.528   0.927  12.030  0.7170  0.0273  0.2969
 5352TIP3    H137547   3.510   0.947  12.122 -1.3779 -0.9381  0.1543
 5352TIP3    H237548   3.533   1.012  11.987  2.7626  0.5375  1.4287
 5353TIP3   OH237549   6.439   3.427  15.376 -0.1288 -0.3127  0.6719
 5353TIP3    H137550   6.453   3.381  15.293  0.2849 -1.6552  1.4587
 5353TIP3    H237551   6.489   3.508  15.367 -0.4235 -0.2426 -0.5338
 5354TIP3   OH237552   3.741   6.304  15.848  0.3090  0.3655  0.1688
 5354TIP3    H137553   3.812   6.257  15.892  1.1012  0.0007 -1.4246
 5354TIP3    H237554   3.691   6.344  15.919  0.8077 -1.1931  1.4642
 5355TIP3   OH237555   1.903   4.913   1.888  0.1430  0.0830 -0.7124
 5355TIP3    H137556   1.904   4.935   1.981  2.5772 -1.9987 -0.1369
 5355TIP3    H237557   1.925   4.995   1.844 -0.3401  0.9349  0.5544
 5356TIP3   OH237558   6.805   4.999  13.679  0.5044 -0.1643 -0.2571
 5356TIP3    H137559   6.885   5.050  13.687  0.8344 -0.7682  0.3780
 5356TIP3    H237560   6.832   4.908  13.693 -0.0748 -0.5208 -1.3353
 5357TIP3   OH237561   6.264   0.270   5.913 -0.7351  0.5356 -0.2863
 5357TIP3    H137562   6.307   0.332   5.854 -1.8267 -1.1669 -3.0497
 5357TIP3    H237563   6.311   0.188   5.899 -3.1415 -0.7216 -1.3733
 5358TIP3   OH237564   6.420   4.033  10.759  0.0919  0.6150 -0.3484
 5358TIP3    H137565   6.455   3.953  10.800  1.6991  1.5335  0.1426
 5358TIP3    H237566   6.443   4.103  10.820  0.5032  1.7266 -1.7364
 5359TIP3   OH237567   1.531   2.116  10.085  0.1322 -0.2363 -0.5201
 5359TIP3    H137568   1.469   2.065  10.033 -0.5467  0.2100 -0.1573
 5359TIP3    H237569   1.476   2.168  10.144  0.7358  1.6186 -1.4946
 5360TIP3   OH237570   4.960   0.505  16.037  0.0542  0.0016  0.2227
 5360TIP3    H137571   4.951   0.561  15.960 -0.3940  0.6468  0.7297
 5360TIP3    H237572   4.952   0.416  16.003 -1.8016  0.3091 -0.2712
 5361TIP3   OH237573   4.917   1.061   3.892 -0.0323 -0.7809  0.1008
 5361TIP3    H137574   4.908   1.006   3.970  0.2067  1.6139  1.9824
 5361TIP3    H237575   4.994   1.114   3.909 -0.4855  0.4285 -1.3675
 5362TIP3   OH237576   5.885   2.025   0.686 -0.8486 -0.0570  0.1246
 5362TIP3    H137577   5.884   1.936   0.721 -0.7124 -0.1335 -0.0619
 5362TIP3    H237578   5.905   2.081   0.761  0.6383 -0.3235 -0.0521
 5363TIP3   OH237579   6.315   2.572  13.732  0.1103  0.0320  0.2322
 5363TIP3    H137580   6.229   2.544  13.700 -0.2412 -0.7368  1.7670
 5363TIP3    H237581   6.296   2.646  13.788 -0.0281 -2.0858  3.2153
 5364TIP3   OH237582   2.026   6.008   5.563  0.3683  0.7963  0.1603
 5364TIP3    H137583   2.040   5.927   5.514  2.9537  0.8275  0.7295
 5364TIP3    H237584   1.945   5.992   5.612  1.0797 -1.6660  0.6772
 5365TIP3   OH237585   1.758   3.427  12.053 -0.0647 -0.2026  0.6043
 5365TIP3    H137586   1.734   3.469  11.971  0.3598 -2.8672 -1.0319
 5365TIP3    H237587   1.676   3.419  12.102 -0.4639  0.7246  0.0958
 5366TIP3   OH237588   5.779   6.393   0.307  0.0764 -0.1316  0.1288
 5366TIP3    H137589   5.731   6.337   0.367  0.0290  0.8155  1.0021
 5366TIP3    H237590   5.857   6.420   0.356  0.1697  0.4497 -0.3219
 5367TIP3   OH237591   1.006   3.294   2.969 -0.5320 -0.3835  0.1164
 5367TIP3    H137592   1.086   3.259   3.007 -0.1047 -1.0420 -1.3315
 5367TIP3    H237593   0.938   3.275   3.034  0.5285  0.6473  1.5956
 5368TIP3   OH237594   3.384   5.151  11.167 -0.2230  1.0235 -0.6502
 5368TIP3    H137595   3.390   5.232  11.217 -0.3357 -0.7838  2.5417
 5368TIP3    H237596   3.474   5.135  11.137  0.5037  0.7974  1.4639
 5369TIP3   OH237597   5.453   3.970  13.338  0.4984 -0.2505 -0.4333
 5369TIP3    H137598   5.510   3.932  13.405 -1.2836  0.2841  1.4961
 5369TIP3    H237599   5.370   3.987  13.383 -0.4327  1.2105 -2.5011
 5370TIP3   OH237600   1.774   5.007   4.609 -0.3471  0.2416 -0.1413
 5370TIP3    H137601   1.793   5.087   4.658  0.4506  0.6402 -1.0679
 5370TIP3    H237602   1.784   4.937   4.674 -0.2186  0.8258  0.4842
 5371TIP3   OH237603   0.106   6.484  15.439  0.3384 -0.2303  0.3408
 5371TIP3    H137604   0.179   6.423  15.441  0.6332  0.1438  1.0014
 5371TIP3    H237605   0.146   6.571  15.448 -0.0297  0.1155 -1.0263
 5372TIP3   OH237606   0.160   5.532  12.039  0.4137 -0.2941  0.1380
 5372TIP3    H137607   0.084   5.590  12.037 -0.0621 -0.9141 -1.1512
 5372TIP3    H237608   0.155   5.484  11.956  0.6143 -2.3873  1.2622
 5373TIP3   OH237609   0.417   1.141   3.551  0.2373 -0.0279 -0.7257
 5373TIP3    H137610   0.362   1.165   3.476 -0.2539  0.3369 -0.2573
 5373TIP3    H237611   0.464   1.222   3.573  0.1698 -0.0607 -0.4655
 5374TIP3   OH237612   2.543   1.409   0.691  0.2769  0.3200 -0.4634
 5374TIP3    H137613   2.502   1.492   0.715  1.2408  0.7926 -0.3915
 5374TIP3    H237614   2.594   1.385   0.768 -0.8897 -0.9433 -0.0475
 5375TIP3   OH237615   2.851   3.180  15.453  0.0064 -0.2709 -0.5734
 5375TIP3    H137616   2.777   3.120  15.450 -1.3703  1.2703  0.4177
 5375TIP3    H237617   2.923   3.129  15.490 -1.4900 -0.9559  1.5318
 5376TIP3   OH237618   4.145   5.755  10.530 -0.8513  0.3965 -0.0145
 5376TIP3    H137619   4.153   5.666  10.565  1.3989  0.4424 -0.2653
 5376TIP3    H237620   4.188   5.751  10.444 -2.3967  1.3219 -0.8862
 5377TIP3   OH237621   5.686   0.350   3.967 -0.6086  0.1034  0.0769
 5377TIP3    H137622   5.619   0.414   3.940 -1.1092 -0.4462 -0.0119
 5377TIP3    H237623   5.768   0.385   3.931 -0.8997  0.6066 -0.1191
 5378TIP3   OH237624   5.382   5.335   2.328 -0.1320  0.2400 -0.5465
 5378TIP3    H137625   5.364   5.286   2.409  0.6700  1.0072  0.1242
 5378TIP3    H237626   5.307   5.392   2.317 -0.4959 -0.2516 -0.6444
 5379TIP3   OH237627   3.269   1.952   3.325  0.2651  0.0141 -0.0519
 5379TIP3    H137628   3.244   2.043   3.339  0.9538  0.0351  1.2346
 5379TIP3    H237629   3.362   1.948   3.347  0.8536 -0.5613 -2.3488
 5380TIP3   OH237630   0.564   5.129   4.798 -0.1666 -0.4020  0.1858
 5380TIP3    H137631   0.528   5.041   4.798 -0.9099 -0.1086  1.1127
 5380TIP3    H237632   0.573   5.151   4.705  1.2375 -1.9123 -0.0749
 5381TIP3   OH237633   1.663   5.558  12.850 -0.5121 -0.5141  0.2042
 5381TIP3    H137634   1.569   5.543  12.840 -0.5249 -1.0367  0.9896
 5381TIP3    H237635   1.704   5.479  12.814 -0.1474  1.2110 -3.6789
 5382TIP3   OH237636   3.805   6.755  10.849  0.2889 -0.4201 -0.3491
 5382TIP3    H137637   3.818   6.833  10.795  0.8889  0.7109  1.3338
 5382TIP3    H237638   3.869   6.692  10.815  1.9163  0.8901  0.1018
 5383TIP3   OH237639   2.474   2.495  15.707  0.0760  0.3285 -0.1852
 5383TIP3    H137640   2.460   2.432  15.637  1.9622 -1.1699  0.6856
 5383TIP3    H237641   2.559   2.536  15.686 -0.0400  0.9232  0.4544
 5384TIP3   OH237642   5.394   5.578   4.370 -0.2713 -0.0001 -0.0958
 5384TIP3    H137643   5.342   5.656   4.350  0.3452  0.6188  0.6662
 5384TIP3    H237644   5.415   5.586   4.462 -0.5923 -1.3239  0.1184
 5385TIP3   OH237645   4.186   5.110  13.767  0.0109  0.1539 -0.0037
 5385TIP3    H137646   4.102   5.098  13.812 -1.2758  0.4907 -2.2041
 5385TIP3    H237647   4.211   5.021  13.741  1.0927 -0.1338  1.8055
 5386TIP3   OH237648   1.429   4.397  12.661  0.1732  0.1285  0.1342
 5386TIP3    H137649   1.415   4.303  12.673 -0.6105  0.4819  2.4568
 5386TIP3    H237650   1.524   4.406  12.652  0.2252 -0.9106 -0.5850
 5387TIP3   OH237651   3.318   2.211  12.586  0.4264 -0.4733  1.1437
 5387TIP3    H137652   3.254   2.246  12.523  3.2478  0.8583 -1.2380
 5387TIP3    H237653   3.314   2.117  12.574 -0.6236 -0.3772  0.5795
 5388TIP3   OH237654   1.428   5.259  16.929  0.0393  0.0140  0.1257
 5388TIP3    H137655   1.382   5.185  16.889  1.6159 -1.3262  0.6802
 5388TIP3    H237656   1.359   5.322  16.950 -1.2969 -1.0914 -0.7860
 5389TIP3   OH237657   1.687   0.367   5.836 -0.1385 -0.1936  0.1584
 5389TIP3    H137658   1.603   0.412   5.833 -0.4786 -0.7640  0.8668
 5389TIP3    H237659   1.687   0.322   5.921 -0.5826 -2.9763 -1.2007
 5390TIP3   OH237660   4.635   3.798  12.268 -0.1829  0.7448  0.6922
 5390TIP3    H137661   4.578   3.791  12.345  0.0339  3.0015  1.1359
 5390TIP3    H237662   4.718   3.829  12.303  0.1711  1.0196 -0.3590
 5391TIP3   OH237663   6.763   1.357   4.702 -0.2478 -0.0740 -0.5548
 5391TIP3    H137664   6.760   1.267   4.736  0.6103 -0.3402 -1.1406
 5391TIP3    H237665   6.678   1.394   4.724 -0.0474 -0.5061  1.1269
 5392TIP3   OH237666   0.265   3.619  17.093  1.1155  0.4976  0.3384
 5392TIP3    H137667   0.359   3.623  17.111  1.4732  0.5513 -1.3532
 5392TIP3    H237668   0.243   3.526  17.102  1.2831  0.5176  0.9660
 5393TIP3   OH237669   3.258   6.131  13.258  0.2056 -0.0876 -0.0869
 5393TIP3    H137670   3.216   6.194  13.200 -1.3397  0.0967  1.1821
 5393TIP3    H237671   3.230   6.156  13.346 -0.5121 -2.5583  0.4640
 5394TIP3   OH237672   6.736   2.249  12.616 -0.0387  0.0658  0.0384
 5394TIP3    H137673   6.825   2.272  12.642  0.1094 -0.5085  0.0450
 5394TIP3    H237674   6.685   2.256  12.697  0.1993 -0.5996  0.2481
 5395TIP3   OH237675   4.068   5.385  15.178 -0.5754 -0.1030  0.1089
 5395TIP3    H137676   4.147   5.437  15.185 -0.2917 -0.4055 -0.6535
 5395TIP3    H237677   3.996   5.448  15.183 -0.3250  0.0871  1.5705
 5396TIP3   OH237678   1.429   5.677  14.624 -0.7428  0.3963  0.4012
 5396TIP3    H137679   1.393   5.693  14.537  2.8247  0.3028 -1.2492
 5396TIP3    H237680   1.391   5.747  14.678 -1.7903  1.4534 -1.5784
 5397TIP3   OH237681   5.982   2.408   2.184 -0.5561 -0.2468  0.4251
 5397TIP3    H137682   5.921   2.414   2.110  1.2085  1.8254 -0.9948
 5397TIP3    H237683   6.057   2.358   2.150 -0.6325 -1.1711  1.5531
 5398TIP3   OH237684   1.818   0.297   1.499 -0.1541 -0.1162  0.0466
 5398TIP3    H137685   1.862   0.382   1.499  2.5463 -1.3819  0.4905
 5398TIP3    H237686   1.811   0.273   1.407  0.7357 -0.1511 -0.0224
 5399TIP3   OH237687   5.869   5.278   3.654 -0.0910 -0.0006  0.6840
 5399TIP3    H137688   5.931   5.248   3.588 -0.0716  0.2486  0.5915
 5399TIP3    H237689   5.862   5.204   3.715 -1.1952 -0.8166 -0.3610
 5400TIP3   OH237690   0.360   2.015   0.939  0.8447  0.0782  0.1790
 5400TIP3    H137691   0.365   1.928   0.899  1.3156  0.1750  0.0248
 5400TIP3    H237692   0.377   2.000   1.032 -0.4433 -0.1750  0.4063
 5401TIP3   OH237693   4.271   5.263   6.142  0.1626 -0.0143  0.3397
 5401TIP3    H137694   4.249   5.170   6.144 -0.4833  0.1406  0.8223
 5401TIP3    H237695   4.367   5.265   6.141  0.2556 -0.7174 -2.7888
 5402TIP3   OH237696   0.187   0.787   0.305 -0.0672  0.7725 -0.4925
 5402TIP3    H137697   0.206   0.694   0.314 -0.8010  0.8353  2.6897
 5402TIP3    H237698   0.260   0.832   0.347  0.1294  1.6590 -1.7129
 5403TIP3   OH237699   3.053   5.386  16.486 -0.6926 -0.3136 -0.4475
 5403TIP3    H137700   3.061   5.336  16.566  0.3771 -2.2237 -1.6688
 5403TIP3    H237701   3.118   5.456  16.495 -0.0319 -0.9765  0.0277
 5404TIP3   OH237702   1.540   3.397   0.769  0.2252  0.0878 -0.0224
 5404TIP3    H137703   1.603   3.435   0.708  2.0878 -1.9243  0.5317
 5404TIP3    H237704   1.561   3.438   0.853 -0.8744  1.2133 -0.2673
 5405TIP3   OH237705   4.114   6.533   2.248  0.2331 -0.1075 -0.1685
 5405TIP3    H137706   4.191   6.586   2.270 -1.9714  2.4617  2.2242
 5405TIP3    H237707   4.147   6.465   2.191  4.3123  0.6894  0.9256
 5406TIP3   OH237708   0.210   0.559  14.846  0.5007  0.3425 -0.6984
 5406TIP3    H137709   0.236   0.503  14.920 -0.8712  1.4340  0.6860
 5406TIP3    H237710   0.173   0.498  14.782 -0.2737 -0.4466  0.4486
 5407TIP3   OH237711   3.795   4.524   6.402 -0.0426  0.9127  0.1049
 5407TIP3    H137712   3.715   4.478   6.379 -0.2556  1.0942  0.4843
 5407TIP3    H237713   3.766   4.607   6.439  0.2898  0.6244  1.0455
 5408TIP3   OH237714   1.493   4.438  17.122 -0.2621 -0.5407  0.2934
 5408TIP3    H137715   1.421   4.423  17.061  0.2604 -1.6280 -0.0807
 5408TIP3    H237716   1.499   4.358  17.174  1.8656 -1.2871 -0.9604
 5409TIP3   OH237717   0.258   4.363  16.095 -0.4769 -0.0108  0.0095
 5409TIP3    H137718   0.296   4.443  16.059  0.3699 -0.2152  0.4008
 5409TIP3    H237719   0.326   4.329  16.153 -1.2614 -0.4270  0.7047
 5410TIP3   OH237720   6.166   2.943  12.367 -0.4114 -0.4061 -0.3193
 5410TIP3    H137721   6.222   3.017  12.392 -0.1412  0.2255 -2.5348
 5410TIP3    H237722   6.225   2.868  12.365 -0.3545 -0.3879  0.4687
 5411TIP3   OH237723   1.289   3.774   1.910  1.0348 -0.1718  0.1410
 5411TIP3    H137724   1.263   3.756   2.001  1.5935 -0.3665  0.2682
 5411TIP3    H237725   1.300   3.688   1.871 -1.1198 -0.1247 -0.7031
 5412TIP3   OH237726   6.028   2.581   1.457  0.2465  0.4956  0.1777
 5412TIP3    H137727   5.985   2.663   1.432  1.2523  1.2508  0.8121
 5412TIP3    H237728   6.106   2.610   1.505  0.0921 -0.8434  1.2976
 5413TIP3   OH237729   4.937   2.817   0.581 -0.1855 -0.0769  0.2018
 5413TIP3    H137730   5.012   2.774   0.623  0.2322  0.3056 -0.1485
 5413TIP3    H237731   4.861   2.768   0.612  0.1314  0.0795  1.2653
 5414TIP3   OH237732   1.588   5.257   0.892  0.6952  0.7212 -0.4772
 5414TIP3    H137733   1.626   5.213   0.968  1.6534  0.9807 -0.7936
 5414TIP3    H237734   1.662   5.270   0.833  0.1146  1.2867 -1.0869
 5415TIP3   OH237735   4.710   0.841   2.937 -0.0657  0.0194  0.2641
 5415TIP3    H137736   4.752   0.801   3.013  0.7306  1.1195  0.4148
 5415TIP3    H237737   4.717   0.935   2.951  0.1335  0.2472 -1.1802
 5416TIP3   OH237738   4.336   0.384   0.154  0.2931  0.2174 -0.2705
 5416TIP3    H137739   4.396   0.438   0.101  0.1381  0.4158 -0.2461
 5416TIP3    H237740   4.344   0.296   0.117  3.0431 -0.5267  1.7141
 5417TIP3   OH237741   6.419   0.356  12.238 -0.1695 -0.1326 -0.0454
 5417TIP3    H137742   6.407   0.344  12.144  0.1194 -0.9810  0.0111
 5417TIP3    H237743   6.366   0.432  12.260  1.4744  1.4409 -1.2616
 5418TIP3   OH237744   5.304   6.332   0.000  0.1135 -0.1523 -0.6742
 5418TIP3    H137745   5.388   6.363  -0.032 -0.0003  0.9170 -0.0007
 5418TIP3    H237746   5.296   6.370   0.087  0.7407 -3.5159  1.0232
 5419TIP3   OH237747   3.283   5.535   0.800  0.6041 -0.5734 -0.2508
 5419TIP3    H137748   3.192   5.562   0.815  1.7383  2.9100  1.6848
 5419TIP3    H237749   3.318   5.601   0.740  2.9196  1.1131  2.6480
 5420TIP3   OH237750   3.719   2.789  15.988  0.0051  0.1465 -0.3342
 5420TIP3    H137751   3.764   2.755  16.065 -0.3510  2.0607  0.7915
 5420TIP3    H237752   3.790   2.807  15.926  0.2500 -1.9211 -0.7251
 5421TIP3   OH237753   3.266   2.308   4.665  0.1984  0.2537 -0.1626
 5421TIP3    H137754   3.230   2.352   4.589  0.6006  0.0610 -0.4685
 5421TIP3    H237755   3.189   2.280   4.715 -0.0640  0.5629 -0.3882
 5422TIP3   OH237756   4.615   2.534   1.331 -0.3494 -1.1496  0.5558
 5422TIP3    H137757   4.689   2.568   1.381 -0.4143 -1.0520  0.5858
 5422TIP3    H237758   4.652   2.515   1.244 -0.5584  0.1139  0.1617
 5423TIP3   OH237759   2.048   5.646  13.204  0.7522  0.2472  0.3113
 5423TIP3    H137760   2.062   5.576  13.267  1.3907  0.7593  0.7457
 5423TIP3    H237761   1.988   5.608  13.139  0.5200 -0.4547  0.9263
 5424TIP3   OH237762   0.091   0.349  11.683 -0.0244  0.4395 -0.2132
 5424TIP3    H137763  -0.003   0.334  11.670 -0.3900  2.3901 -0.1688
 5424TIP3    H237764   0.124   0.371  11.596  0.8183 -2.0559 -0.5861
 5425TIP3   OH237765   5.861   4.017  13.100 -0.2538 -1.0172 -0.2778
 5425TIP3    H137766   5.885   4.018  13.193 -0.0320 -1.3316 -0.3302
 5425TIP3    H237767   5.929   3.965  13.058  0.2392  0.0149 -0.7878
 5426TIP3   OH237768   2.768   1.197  13.459  0.1104  0.5672 -0.0190
 5426TIP3    H137769   2.694   1.136  13.462  1.4121 -1.0763  0.4426
 5426TIP3    H237770   2.732   1.280  13.489 -1.6686 -0.0421 -0.3486
 5427TIP3   OH237771   2.476   5.296   0.627  0.1237  0.2800 -0.1834
 5427TIP3    H137772   2.462   5.300   0.533 -0.3995  1.7015 -0.0658
 5427TIP3    H237773   2.414   5.360   0.664  1.7261  1.2515  0.9598
 5428TIP3   OH237774   3.099   0.106  13.905 -0.1128 -0.3739 -0.4967
 5428TIP3    H137775   3.030   0.138  13.964 -0.4286 -0.4553 -0.8206
 5428TIP3    H237776   3.181   0.131  13.948 -0.3097 -1.3679  0.5191
 5429TIP3   OH237777   5.306   5.753   2.919 -0.3078 -0.8897  0.2302
 5429TIP3    H137778   5.312   5.848   2.904  2.5765 -0.7439  1.6913
 5429TIP3    H237779   5.359   5.714   2.849 -0.3666 -1.3255  0.4254
 5430TIP3   OH237780   0.462   0.191  14.883 -0.3815 -0.0400  0.7160
 5430TIP3    H137781   0.501   0.275  14.860  2.5519 -1.2344  0.8671
 5430TIP3    H237782   0.433   0.154  14.800 -3.2586  1.7018  0.8067
 5431TIP3   OH237783   0.465   3.897  13.480  0.3543 -0.2466  0.2689
 5431TIP3    H137784   0.383   3.852  13.501  1.3095 -2.2174 -0.0288
 5431TIP3    H237785   0.533   3.843  13.520  1.5584  1.0497  0.0253
 5432TIP3   OH237786   4.212   2.937  12.114  0.3380 -0.1272  0.4383
 5432TIP3    H137787   4.149   2.966  12.180  0.4693  0.3488  0.3605
 5432TIP3    H237788   4.255   2.861  12.154 -0.1738 -0.3609  0.5534
 5433TIP3   OH237789   4.938   4.604   3.121  0.1730 -0.3780  0.3119
 5433TIP3    H137790   4.921   4.588   3.028 -1.8228  0.6660  0.4409
 5433TIP3    H237791   5.032   4.585   3.132  0.6766  0.3438 -2.0999
 5434TIP3   OH237792   6.304   2.048   3.370 -0.1754 -0.3073  0.6220
 5434TIP3    H137793   6.335   1.977   3.427  1.3856  1.2280  1.7791
 5434TIP3    H237794   6.217   2.019   3.341  0.1980 -2.4447  1.4591
 5435TIP3   OH237795   2.084   4.456   0.353 -0.2753  0.4768  0.0122
 5435TIP3    H137796   2.019   4.496   0.410  0.2238 -1.2609  1.9119
 5435TIP3    H237797   2.117   4.529   0.299 -0.9205  2.1535  1.7858
 5436TIP3   OH237798   1.053   4.662  13.692  0.0444  0.2480 -0.3173
 5436TIP3    H137799   1.038   4.686  13.783  0.6788  0.2429 -0.2079
 5436TIP3    H237800   0.966   4.639  13.659 -0.1280 -0.1832  0.4078
 5437TIP3   OH237801   0.634   4.988  12.278 -0.3908 -0.2722 -0.2368
 5437TIP3    H137802   0.649   4.905  12.323 -1.8828 -1.0001 -1.0000
 5437TIP3    H237803   0.584   4.964  12.200 -1.4691  1.4350 -0.1124
 5438TIP3   OH237804   1.557   0.077  16.968 -0.0715 -0.2539 -0.1142
 5438TIP3    H137805   1.479   0.027  16.944 -2.2301  3.0136 -0.6368
 5438TIP3    H237806   1.613   0.074  16.890  0.2037 -2.2811  0.1115
 5439TIP3   OH237807   4.390   5.450   3.127  0.3022 -0.2990 -0.1150
 5439TIP3    H137808   4.403   5.373   3.072  4.2211  0.8836 -1.1446
 5439TIP3    H237809   4.434   5.428   3.209 -0.3583  0.1258  0.3624
 5440TIP3   OH237810   4.402   4.684  12.893  0.2120 -0.1989  0.0448
 5440TIP3    H137811   4.496   4.674  12.908  0.1866 -1.8381 -0.6482
 5440TIP3    H237812   4.373   4.745  12.960  2.0086  1.5001 -0.6397
 5441TIP3   OH237813   0.404   5.388  15.913  0.1195 -0.0611  0.7014
 5441TIP3    H137814   0.352   5.459  15.874  0.9709  0.5783  0.6936
 5441TIP3    H237815   0.438   5.340  15.838 -1.8546 -1.5780  0.6953
 5442TIP3   OH237816   2.396   2.459   0.058  0.4877  0.0203  0.4707
 5442TIP3    H137817   2.334   2.497   0.120  0.4425 -0.1040  0.5026
 5442TIP3    H237818   2.406   2.526  -0.010 -1.7588 -0.9681 -0.9694
 5443TIP3   OH237819   3.345   2.855  17.191 -0.5076  0.2341  0.4306
 5443TIP3    H137820   3.314   2.825  17.105  2.0260  0.6814 -0.7381
 5443TIP3    H237821   3.372   2.945  17.177  1.2973 -0.1298  1.2974
 5444TIP3   OH237822   0.407   5.150   1.153  0.8357 -0.2645  0.4101
 5444TIP3    H137823   0.465   5.171   1.226  1.2044  0.4271 -0.0712
 5444TIP3    H237824   0.465   5.139   1.078  0.3191  1.3498 -0.2843
 5445TIP3   OH237825   4.432   4.058  11.413  0.7901 -0.3747  0.8105
 5445TIP3    H137826   4.402   3.970  11.391 -0.2031  0.5885 -2.1871
 5445TIP3    H237827   4.466   4.051  11.502 -1.6434 -3.1782  1.6488
 5446TIP3   OH237828   3.621   3.409  12.357  0.0924 -1.3773 -0.4077
 5446TIP3    H137829   3.690   3.463  12.318  1.6675 -2.4740  0.7219
 5446TIP3    H237830   3.573   3.469  12.415 -0.9698 -0.2325 -2.3588
 5447TIP3   OH237831   3.463   4.937   3.734 -0.4369 -0.2218 -0.7019
 5447TIP3    H137832   3.532   4.880   3.770 -0.0109  0.2145 -0.8257
 5447TIP3    H237833   3.382   4.893   3.758 -0.1545 -0.0568  0.6177
 5448TIP3   OH237834   1.880   1.137  11.406  0.1652 -0.0140 -0.2760
 5448TIP3    H137835   1.906   1.101  11.491  1.6313  0.5510 -0.4557
 5448TIP3    H237836   1.789   1.109  11.395  0.3311 -1.1300  0.9186
 5449TIP3   OH237837   6.309   6.825  12.602  0.4625  0.2396  0.2976
 5449TIP3    H137838   6.363   6.895  12.565 -1.5575  0.8768 -1.5974
 5449TIP3    H237839   6.373   6.768  12.646  2.4251  2.0425 -0.0236
 5450TIP3   OH237840   2.038   2.843   0.209  0.0775  0.0012 -0.4759
 5450TIP3    H137841   1.970   2.783   0.178  0.4838 -0.3573 -0.6853
 5450TIP3    H237842   2.060   2.813   0.297 -0.1085  0.1838 -0.3655
 5451TIP3   OH237843   5.144   2.253   0.362  0.0878 -0.0979  0.5241
 5451TIP3    H137844   5.048   2.246   0.371  0.1686 -0.3493  1.2691
 5451TIP3    H237845   5.175   2.164   0.382  0.6345  0.5236  2.7098
 5452TIP3   OH237846   1.710   6.728  16.432  0.1240  0.4598 -0.7233
 5452TIP3    H137847   1.737   6.650  16.383 -0.9102 -0.2156 -0.2584
 5452TIP3    H237848   1.792   6.768  16.460  0.7136 -1.9020  1.2573
 5453TIP3   OH237849   0.504   3.736   2.289 -0.0222 -0.2538  0.1037
 5453TIP3    H137850   0.597   3.716   2.303  0.1555  0.4630  0.0269
 5453TIP3    H237851   0.475   3.672   2.224  0.5390 -0.2058 -0.2016
 5454TIP3   OH237852   5.239   2.536   1.509 -0.6998 -0.4405  0.0779
 5454TIP3    H137853   5.323   2.582   1.500 -1.0873 -0.1100 -2.6352
 5454TIP3    H237854   5.244   2.465   1.446 -1.7845 -1.5791  1.2230
 5455TIP3   OH237855   2.901   0.153  12.815  0.4872 -0.2001 -0.0134
 5455TIP3    H137856   2.947   0.156  12.731 -0.0886  1.4919 -0.2970
 5455TIP3    H237857   2.833   0.219  12.808 -0.9211 -1.4630  1.0466
 5456TIP3   OH237858   1.434   0.512   5.800  0.0287  0.0310 -0.4672
 5456TIP3    H137859   1.372   0.511   5.727  0.1252 -0.9456 -0.5418
 5456TIP3    H237860   1.433   0.603   5.830 -0.3602  0.3473 -1.3856
 5457TIP3   OH237861   6.217   4.497  13.519 -0.1548 -0.4335  0.4056
 5457TIP3    H137862   6.164   4.483  13.598 -1.0020  1.1198  0.1418
 5457TIP3    H237863   6.169   4.453  13.449 -1.3547  1.2484  0.1009
 5458TIP3   OH237864   3.982   0.245  15.511 -0.4859  0.8630 -0.7294
 5458TIP3    H137865   4.059   0.244  15.455  0.2575  1.8146  0.2373
 5458TIP3    H237866   3.946   0.157  15.505 -0.4561  0.9432 -2.7183
 5459TIP3   OH237867   1.144   3.712   4.324  0.1279  0.2965  0.2524
 5459TIP3    H137868   1.087   3.788   4.338 -0.2468  0.2019 -0.7176
 5459TIP3    H237869   1.224   3.748   4.288 -0.2826  0.1948 -0.8119
 5460TIP3   OH237870   5.888   1.414   6.512  0.4720 -0.5816 -0.0546
 5460TIP3    H137871   5.892   1.362   6.431  0.8307  0.2303 -0.5766
 5460TIP3    H237872   5.969   1.394   6.557  1.5024  0.9027 -1.1539
 5461TIP3   OH237873   0.760   1.795  16.868  0.0165  0.4745 -0.1224
 5461TIP3    H137874   0.681   1.819  16.915 -0.3709 -0.6315 -0.1727
 5461TIP3    H237875   0.763   1.700  16.874  1.0659  0.4671 -0.5692
 5462TIP3   OH237876   6.034   1.904   3.815  0.0818 -0.4784  0.6415
 5462TIP3    H137877   5.960   1.856   3.780  2.0972 -1.2216 -3.0644
 5462TIP3    H237878   6.012   1.997   3.802  0.4192 -0.7210 -2.0684
 5463TIP3   OH237879   0.406   4.003  12.831  0.2795  0.1262  0.0690
 5463TIP3    H137880   0.492   4.045  12.837 -0.0416  0.6232  1.8250
 5463TIP3    H237881   0.425   3.909  12.824  0.9922  0.1426  1.4564
 5464TIP3   OH237882   5.768   6.559  16.540 -0.0240 -0.1667 -0.2445
 5464TIP3    H137883   5.733   6.557  16.629  0.0203 -0.0629 -0.2253
 5464TIP3    H237884   5.835   6.627  16.541 -1.6384  1.5239 -0.9517
 5465TIP3   OH237885   4.436   4.337   2.646 -0.1044 -0.1052  0.4045
 5465TIP3    H137886   4.390   4.310   2.725 -0.4518  1.4382  0.7759
 5465TIP3    H237887   4.379   4.403   2.606  1.0526  0.7385  0.0652
 5466TIP3   OH237888   4.166   3.015   4.558  0.2922 -0.1032 -0.6645
 5466TIP3    H137889   4.151   3.025   4.652 -0.2642 -0.6071 -0.6925
 5466TIP3    H237890   4.251   2.972   4.552  0.5910  0.4475 -0.4112
 5467TIP3   OH237891   1.901   6.733   1.865  0.1649 -0.3247 -0.1212
 5467TIP3    H137892   1.941   6.787   1.797  0.0946 -0.1550 -0.0276
 5467TIP3    H237893   1.952   6.751   1.944 -0.5991  0.5159  0.1955
 5468TIP3   OH237894   5.147   5.669  12.464 -0.2023 -0.0599  0.6650
 5468TIP3    H137895   5.097   5.611  12.522  0.4136 -0.0865  1.1877
 5468TIP3    H237896   5.210   5.712  12.522 -0.1993  0.6277  0.1676
 5469TIP3   OH237897   1.035   3.955  17.010 -0.0579 -0.7234 -0.1031
 5469TIP3    H137898   1.107   3.896  17.032 -0.0637 -0.9456 -0.6667
 5469TIP3    H237899   0.994   3.975  17.094  1.1648  0.0693  0.3466
 5470TIP3   OH237900   1.485   3.894  13.616 -0.1455  0.0416 -0.5255
 5470TIP3    H137901   1.436   3.842  13.680  0.2425 -1.3037 -1.3008
 5470TIP3    H237902   1.461   3.857  13.531  0.2237  1.0694 -1.0961
 5471TIP3   OH237903   4.007   0.651  15.814 -0.1297  0.3175 -0.1512
 5471TIP3    H137904   4.001   0.667  15.908 -0.6488 -0.4168 -0.0518
 5471TIP3    H237905   3.916   0.650  15.784 -0.0866 -1.3510 -0.3251
 5472TIP3   OH237906   0.751   6.015   0.623 -0.2104 -0.2257  0.0412
 5472TIP3    H137907   0.699   6.094   0.642  0.7559  0.0793  1.5145
 5472TIP3    H237908   0.796   5.996   0.704  1.0157 -1.2330 -0.8479
 5473TIP3   OH237909   0.937   1.214   5.652  0.5002  0.0302  0.4550
 5473TIP3    H137910   0.884   1.147   5.608  1.2642 -0.8247  0.7911
 5473TIP3    H237911   0.876   1.284   5.673  0.1307  0.5825 -2.1394
 5474TIP3   OH237912   0.645   2.306   1.077  0.1197 -0.5909 -0.1722
 5474TIP3    H137913   0.634   2.249   1.153  0.0934 -0.0067  0.2694
 5474TIP3    H237914   0.563   2.298   1.029 -0.5696  0.3937  0.7990
 5475TIP3   OH237915   6.112   6.561  11.746 -0.4130 -0.2144 -0.2470
 5475TIP3    H137916   6.028   6.561  11.701 -0.6852 -0.2584  0.2474
 5475TIP3    H237917   6.133   6.468  11.757 -0.1817 -0.2020 -0.5855
 5476TIP3   OH237918   1.579   3.176  12.841  0.0182  0.3379  0.2640
 5476TIP3    H137919   1.583   3.130  12.925  0.5995  0.2952  0.2137
 5476TIP3    H237920   1.594   3.268  12.863  0.6188  0.2670  0.1542
 5477TIP3   OH237921   2.169   2.053   5.032  0.3631  0.0003  0.5381
 5477TIP3    H137922   2.156   2.058   5.127  2.0093 -0.9793  0.8536
 5477TIP3    H237923   2.154   2.142   5.001 -1.3022  0.1105  1.5379
 5478TIP3   OH237924   2.088   3.799  16.367  0.1857  0.0783  0.9436
 5478TIP3    H137925   2.087   3.704  16.377 -1.6320 -0.1177 -0.6456
 5478TIP3    H237926   2.066   3.814  16.275  0.8032  2.0451  1.0696
 5479TIP3   OH237927   4.170   5.920  12.491  0.2685 -0.2179 -0.1230
 5479TIP3    H137928   4.110   5.866  12.541 -0.9168  2.3931  1.4819
 5479TIP3    H237929   4.118   5.996  12.464  2.0290  0.5701 -1.5571
 5480TIP3   OH237930   6.556   4.264  12.662 -0.6521  0.2534 -0.0132
 5480TIP3    H137931   6.588   4.270  12.752 -1.4700  0.3511  0.2722
 5480TIP3    H237932   6.463   4.285  12.667 -1.3774 -2.4991 -0.4706
 5481TIP3   OH237933   0.789   4.043  15.590  0.4458  0.0067  0.4516
 5481TIP3    H137934   0.699   4.076  15.589  1.5669  3.3978 -0.6232
 5481TIP3    H237935   0.833   4.092  15.659  1.4504 -1.8954  1.2433
 5482TIP3   OH237936   1.227   3.573   1.737  0.1216 -0.2240 -0.0540
 5482TIP3    H137937   1.242   3.630   1.662 -1.4753  2.1736  1.3284
 5482TIP3    H237938   1.173   3.502   1.702  0.0323  0.4286 -1.3111
 5483TIP3   OH237939   1.655   1.808  16.013 -0.4953 -0.6843  0.3594
 5483TIP3    H137940   1.569   1.801  15.972 -0.3267 -0.5672 -0.0097
 5483TIP3    H237941   1.639   1.782  16.104 -0.8236 -1.1696  0.1717
 5484TIP3   OH237942   0.444   5.840  13.954 -0.4587 -0.3494  0.2117
 5484TIP3    H137943   0.479   5.763  13.999  1.3460 -0.7793 -1.7782
 5484TIP3    H237944   0.483   5.914  13.999  2.6144 -0.8066 -1.4440
 5485TIP3   OH237945   3.365   0.621   1.038 -0.2937 -0.4503  0.6443
 5485TIP3    H137946   3.444   0.597   0.989  0.0394  1.2548  0.2897
 5485TIP3    H237947   3.302   0.647   0.971 -0.3583  0.4204  1.0322
 5486TIP3   OH237948   6.190   1.276  16.101  0.9069  0.2644  0.0189
 5486TIP3    H137949   6.219   1.233  16.181  1.5889  2.1269  0.8195
 5486TIP3    H237950   6.264   1.330  16.075  0.9125 -0.7254 -2.2257
 5487TIP3   OH237951   2.174   0.320  16.528  1.6862  0.1492  0.4488
 5487TIP3    H137952   2.203   0.410  16.518  2.2094 -0.1013 -0.4029
 5487TIP3    H237953   2.208   0.293  16.613 -0.1196  1.3369  1.5968
 5488TIP3   OH237954   4.708   6.247   1.908 -0.3973 -0.5183  0.1162
 5488TIP3    H137955   4.703   6.192   1.986  0.2460 -2.0285 -0.8671
 5488TIP3    H237956   4.801   6.260   1.892 -0.4587 -1.5138 -1.2428
 5489TIP3   OH237957   3.389   1.061  12.530  0.5325  0.3506  0.5950
 5489TIP3    H137958   3.420   1.000  12.463 -0.2521  0.7389 -0.1442
 5489TIP3    H237959   3.435   1.034  12.610 -0.9014 -2.1865  0.6676
 5490TIP3   OH237960   1.375   4.283   1.907  0.6133  0.0590  0.2518
 5490TIP3    H137961   1.443   4.325   1.855 -0.9287  0.5809 -1.4398
 5490TIP3    H237962   1.365   4.196   1.868  1.2594 -0.5536  1.4039
 5491TIP3   OH237963   3.501   5.274   2.928  0.0150  0.1013 -0.4289
 5491TIP3    H137964   3.594   5.269   2.949  0.1251  0.1832 -0.8912
 5491TIP3    H237965   3.498   5.271   2.833 -0.2891  2.7545 -0.5712
 5492TIP3   OH237966   0.752   6.320  16.638  0.0470 -0.2218  0.5387
 5492TIP3    H137967   0.779   6.230  16.620 -0.6702 -0.4107  0.3689
 5492TIP3    H237968   0.691   6.341  16.568 -1.4935 -0.3719  1.7902
 5493TIP3   OH237969   3.706   1.373  11.527  0.0557  0.4275  0.1683
 5493TIP3    H137970   3.779   1.406  11.474  0.5964 -0.8459  0.1015
 5493TIP3    H237971   3.630   1.422  11.495  0.0827 -1.2156 -2.7883
 5494TIP3   OH237972   5.625   6.238  11.373  0.4562  0.0597  0.1508
 5494TIP3    H137973   5.615   6.143  11.364  1.3391  0.0120 -0.5062
 5494TIP3    H237974   5.686   6.262  11.303  1.8804  0.8157  1.5803
 5495TIP3   OH237975   1.539   0.041   3.130  0.1513 -0.1933 -0.4026
 5495TIP3    H137976   1.534  -0.035   3.188 -1.0807  1.0513  1.1751
 5495TIP3    H237977   1.606   0.097   3.170 -0.4513  0.5076 -0.3546
 5496TIP3   OH237978   1.529   3.989  15.480 -0.6661 -0.6803 -0.9638
 5496TIP3    H137979   1.479   3.909  15.497 -0.5488 -0.6944 -0.6886
 5496TIP3    H237980   1.620   3.958  15.470 -0.1785 -0.3188  1.6617
 5497TIP3   OH237981   3.575   2.941   2.470  0.0598  0.3197 -0.5977
 5497TIP3    H137982   3.540   3.022   2.432  0.8191  0.9331 -0.0106
 5497TIP3    H237983   3.664   2.963   2.497  0.6966 -1.0240 -1.4575
 5498TIP3   OH237984   5.930   5.888  13.385 -0.3680 -0.0620  0.2591
 5498TIP3    H137985   6.025   5.891  13.387 -0.3560 -0.4201  0.2282
 5498TIP3    H237986   5.906   5.827  13.455 -0.3841 -3.7721 -2.6817
 5499TIP3   OH237987   1.166   4.764  13.472  0.3299 -0.2824 -0.0956
 5499TIP3    H137988   1.149   4.727  13.559  0.6479 -2.0485 -0.7601
 5499TIP3    H237989   1.212   4.695  13.424  0.0539  0.6084 -1.7233
 5500TIP3   OH237990   1.749   2.977  11.835  0.4366 -0.1204  0.0672
 5500TIP3    H137991   1.669   2.981  11.886  0.3316 -0.3042 -0.0826
 5500TIP3    H237992   1.820   2.985  11.899  0.2906  0.9127  0.1219
 5501TIP3   OH237993   2.554   2.378  14.694  0.0478 -0.3370 -0.3218
 5501TIP3    H137994   2.582   2.287  14.691 -0.0171 -0.3926  0.5427
 5501TIP3    H237995   2.634   2.428  14.677  0.2946 -0.5403  0.2193
 5502TIP3   OH237996   1.140   1.921   2.603 -0.4559  0.2513 -0.1081
 5502TIP3    H137997   1.221   1.870   2.614 -0.7809 -0.0595  1.0515
 5502TIP3    H237998   1.080   1.860   2.561 -0.7430 -0.2562  0.9870
 5503TIP3   OH237999   4.840   0.967   4.448  0.6440 -0.4538 -0.1940
 5503TIP3    H138000   4.761   0.995   4.403  0.4912 -1.5147 -0.6214
 5503TIP3    H238001   4.874   1.046   4.489  0.2221  0.3291 -1.3115
 5504TIP3   OH238002   3.564   4.712   4.498 -0.3387 -0.0879 -0.3326
 5504TIP3    H138003   3.472   4.689   4.509 -0.5261  0.4245 -0.7799
 5504TIP3    H238004   3.567   4.807   4.505  0.6578 -0.2470  3.1047
 5505TIP3   OH238005   1.579   3.217  14.987 -0.1768 -0.5122  0.3957
 5505TIP3    H138006   1.627   3.147  15.031  0.7114  0.1822  0.5589
 5505TIP3    H238007   1.584   3.195  14.894  1.6199  0.2146  0.2736
 5506TIP3   OH238008   4.826   0.578  14.797  0.3675  0.4328 -0.5720
 5506TIP3    H138009   4.908   0.546  14.760  1.2187  0.1632  1.4218
 5506TIP3    H238010   4.853   0.630  14.873 -1.2870  1.0256 -0.3450
 5507TIP3   OH238011   0.125   5.531   1.203  0.1022  0.2853  0.2192
 5507TIP3    H138012   0.051   5.482   1.168  0.8130  0.2360 -1.2746
 5507TIP3    H238013   0.163   5.473   1.269  0.1822 -0.6697 -0.6437
 5508TIP3   OH238014   0.833   5.092   5.256 -0.8292 -0.0537  0.1392
 5508TIP3    H138015   0.848   5.129   5.343 -2.1845  1.0459 -0.0647
 5508TIP3    H238016   0.899   5.133   5.200  0.6332 -1.4384  0.7853
 5509TIP3   OH238017   5.782   3.615   0.016  0.1707 -0.0259  0.2823
 5509TIP3    H138018   5.828   3.672   0.078  1.2797  3.6657 -3.4505
 5509TIP3    H238019   5.851   3.565  -0.026 -0.2569 -0.6791  0.3536
 5510TIP3   OH238020   1.125   1.586  12.923 -0.1643 -0.4038 -0.6347
 5510TIP3    H138021   1.184   1.555  12.992 -0.0124  0.4697 -0.3519
 5510TIP3    H238022   1.159   1.547  12.843 -1.2243 -2.6510 -0.0546
 5511TIP3   OH238023   0.856   2.838   0.520  0.2539 -0.3856 -0.1102
 5511TIP3    H138024   0.840   2.868   0.610  0.6817 -0.2575 -0.0751
 5511TIP3    H238025   0.829   2.911   0.465  0.2375 -0.3660 -0.0764
 5512TIP3   OH238026   3.711   1.197  14.307 -0.3699 -0.2287  0.3321
 5512TIP3    H138027   3.628   1.174  14.349 -0.2346  1.0635  1.3740
 5512TIP3    H238028   3.715   1.293  14.312  1.4754 -0.3042  0.8836
 5513TIP3   OH238029   0.308   1.680  15.127  0.0652  0.4471  0.4977
 5513TIP3    H138030   0.319   1.712  15.037 -0.5607 -1.6211 -0.3823
 5513TIP3    H238031   0.326   1.586  15.121  1.0788  0.4358  2.7739
 5514TIP3   OH238032   2.952   4.218  14.685 -0.1941  0.4925 -0.1452
 5514TIP3    H138033   3.024   4.281  14.684  0.0245  0.2400 -0.6276
 5514TIP3    H238034   2.882   4.261  14.636 -0.8991  1.3303  1.5183
 5515TIP3   OH238035   4.426   1.141   3.390 -0.1244 -0.1683 -0.5983
 5515TIP3    H138036   4.507   1.090   3.390  0.1972  0.3232 -1.4334
 5515TIP3    H238037   4.419   1.175   3.479  1.3176  0.8915 -0.8448
 5516TIP3   OH238038   3.661   4.053  13.794  0.1998 -0.1958 -0.3270
 5516TIP3    H138039   3.686   4.023  13.707 -0.1075  0.2734 -0.5830
 5516TIP3    H238040   3.586   3.999  13.818 -0.1254  0.1087 -0.6345
 5517TIP3   OH238041   2.804   0.751   2.500 -0.2110 -0.1805  0.4360
 5517TIP3    H138042   2.860   0.757   2.577  0.2478 -2.9224  0.4151
 5517TIP3    H238043   2.744   0.679   2.519 -0.7906 -0.2124 -1.3270
 5518TIP3   OH238044   6.742   4.365  11.617  0.3099  0.4290  0.3435
 5518TIP3    H138045   6.688   4.405  11.684  0.0500 -1.1025  1.0687
 5518TIP3    H238046   6.687   4.297  11.578  0.9894  0.2630 -0.3561
 5519TIP3   OH238047   2.170   1.537  10.555 -0.1221  0.0862  0.3453
 5519TIP3    H138048   2.225   1.581  10.619  0.3851  0.0045 -0.0281
 5519TIP3    H238049   2.081   1.563  10.578 -0.1253 -1.4362  2.2340
 5520TIP3   OH238050   6.757   5.959  12.770  0.0424  0.1333  0.5265
 5520TIP3    H138051   6.777   5.976  12.678  1.3157 -1.0720  0.5459
 5520TIP3    H238052   6.731   5.867  12.772  1.6652 -0.3397  1.5888
 5521TIP3   OH238053   0.794   5.933  13.843 -0.5140 -0.3337  0.1171
 5521TIP3    H138054   0.782   5.986  13.922  0.5952  0.2778 -0.0981
 5521TIP3    H238055   0.837   5.853  13.874 -2.4468 -1.2789  0.4846
 5522TIP3   OH238056   6.320   3.981  13.003  0.2878  0.1379  0.3289
 5522TIP3    H138057   6.242   3.928  13.023 -0.2491  0.1902 -1.4198
 5522TIP3    H238058   6.324   4.045  13.074 -0.9141 -0.2582  0.7912
 5523TIP3   OH238059   1.908   4.729   0.130  0.0980  0.2925  0.7613
 5523TIP3    H138060   1.973   4.672   0.089 -0.3061 -0.2505  0.8639
 5523TIP3    H238061   1.887   4.685   0.213 -1.5713 -0.3994  0.0247
 5524TIP3   OH238062   1.665   0.949   0.945  0.2613  0.2509  0.1684
 5524TIP3    H138063   1.716   0.870   0.964  2.2920  1.8834  2.0034
 5524TIP3    H238064   1.624   0.931   0.861  0.9568 -2.5883  0.3272
 5525TIP3   OH238065   0.551   5.604  14.074  0.1996 -0.3572 -0.6465
 5525TIP3    H138066   0.574   5.587  14.166 -0.2378  0.6206 -0.3386
 5525TIP3    H238067   0.475   5.549  14.058 -0.2539  0.1162 -0.1515
 5526TIP3   OH238068   2.638   3.038  15.176  0.5090 -0.2662  0.4652
 5526TIP3    H138069   2.633   3.099  15.103  3.3169  0.3996  0.6911
 5526TIP3    H238070   2.633   2.951  15.135  1.6550  0.1053 -0.5106
 5527TIP3   OH238071   3.355   1.553  14.303 -0.4863 -0.3744  0.3087
 5527TIP3    H138072   3.374   1.460  14.289 -0.6578 -0.4034  0.2591
 5527TIP3    H238073   3.382   1.596  14.222 -0.5746 -0.4071  0.2612
 5528TIP3   OH238074   0.593   1.008  16.144  0.0119  0.1786 -0.5463
 5528TIP3    H138075   0.653   0.961  16.085 -0.4778 -0.2534 -0.7156
 5528TIP3    H238076   0.566   1.085  16.094 -2.5501 -1.5511 -2.0921
 5529TIP3   OH238077   5.453   0.202  13.584 -0.0181  0.2917  0.2575
 5529TIP3    H138078   5.542   0.229  13.607  0.2904 -1.0595  0.7351
 5529TIP3    H238079   5.463   0.159  13.499 -0.4450  1.2774 -0.3123
 5530TIP3   OH238080   4.907   4.928   1.639 -0.4044  0.3851 -0.0600
 5530TIP3    H138081   4.872   4.972   1.716  1.6538 -0.8984  1.7156
 5530TIP3    H238082   4.878   4.837   1.647  0.2442  0.1295 -0.5149
 5531TIP3   OH238083   3.588   6.297   5.176 -0.6209  0.0671 -0.5155
 5531TIP3    H138084   3.577   6.222   5.235  0.4388  0.0189 -0.3652
 5531TIP3    H238085   3.629   6.261   5.098  1.2652  0.6893  0.1225
 5532TIP3   OH238086   5.883   5.570   2.146  0.2496 -0.5009  0.3914
 5532TIP3    H138087   5.791   5.545   2.139  0.2319 -0.0525 -1.3559
 5532TIP3    H238088   5.928   5.516   2.082  1.0606  0.0042  0.5189
 5533TIP3   OH238089   2.041   3.270  10.966 -0.0853 -0.6943 -0.2312
 5533TIP3    H138090   2.032   3.181  10.933 -1.2207 -0.1706 -1.4560
 5533TIP3    H238091   2.008   3.266  11.056  0.5261 -1.6327 -0.0419
 5534TIP3   OH238092   1.275   1.461  13.115 -0.3874  0.7765  0.0030
 5534TIP3    H138093   1.207   1.397  13.135  1.6011 -2.0092 -1.6313
 5534TIP3    H238094   1.302   1.494  13.201 -2.0605  0.1146  0.8313
 5535TIP3   OH238095   3.696   5.787  11.463 -0.2104 -1.2093  0.5270
 5535TIP3    H138096   3.712   5.816  11.553 -0.1666  0.1174  0.1164
 5535TIP3    H238097   3.777   5.806  11.416  0.8375 -4.4832  0.7502
 5536TIP3   OH238098   6.658   1.318  14.527 -0.1933 -0.3025  0.1532
 5536TIP3    H138099   6.723   1.331  14.596 -0.4167 -1.6132  0.6475
 5536TIP3    H238100   6.575   1.310  14.574 -0.4416 -0.5580 -0.3200
 5537TIP3   OH238101   5.883   1.567  12.759  0.0714  0.2067 -0.1219
 5537TIP3    H138102   5.951   1.520  12.709  0.6424  0.8893  0.0010
 5537TIP3    H238103   5.916   1.567  12.849 -1.2245 -1.5323  0.4135
 5538TIP3   OH238104   0.426   6.464   3.572 -0.0855 -0.7506 -0.4507
 5538TIP3    H138105   0.455   6.477   3.662 -1.8303 -0.1475  0.0487
 5538TIP3    H238106   0.356   6.398   3.578 -1.3042  0.4375 -1.1396
 5539TIP3   OH238107   4.434   1.727   0.255  0.3626 -0.2277 -0.2081
 5539TIP3    H138108   4.516   1.751   0.211  0.6706  0.7129  0.8565
 5539TIP3    H238109   4.392   1.811   0.275  0.0992 -0.6372  1.0404
 5540TIP3   OH238110   5.818   4.422   4.510  0.7405 -0.6590 -0.8482
 5540TIP3    H138111   5.774   4.503   4.484  1.4261  0.1123  0.2722
 5540TIP3    H238112   5.901   4.423   4.462  1.7597  0.4871  0.8265
 5541TIP3   OH238113   1.062   3.860   5.294  0.2008 -0.0964  0.0365
 5541TIP3    H138114   0.996   3.927   5.276 -1.0967 -1.6509 -1.3276
 5541TIP3    H238115   1.138   3.886   5.242  0.5320  1.4442  1.2300
 5542TIP3   OH238116   5.501   6.819  13.803  0.1320  0.1850 -0.2417
 5542TIP3    H138117   5.537   6.897  13.762  1.0762 -0.4646 -0.7072
 5542TIP3    H238118   5.468   6.848  13.887  1.0267  0.9746 -0.1497
 5543TIP3   OH238119   3.355   6.271  16.724 -0.2810 -0.1121 -0.3829
 5543TIP3    H138120   3.404   6.283  16.805 -0.1755 -0.2061 -0.4332
 5543TIP3    H238121   3.421   6.244  16.659 -0.6175 -1.8638 -0.0625
 5544TIP3   OH238122   6.556   6.400  17.028  0.3314  0.0167 -0.0639
 5544TIP3    H138123   6.588   6.467  17.090  1.5967 -0.1827 -0.4688
 5544TIP3    H238124   6.490   6.445  16.976  0.1044  0.5262  0.6499
 5545TIP3   OH238125   4.536   0.748  13.577  0.1350 -0.5679  0.2695
 5545TIP3    H138126   4.587   0.804  13.518  0.5373 -0.2926  0.8639
 5545TIP3    H238127   4.468   0.710  13.522 -1.5981  2.2415  0.2168
 5546TIP3   OH238128   3.718   2.156  17.198 -0.1918 -0.3805  0.5580
 5546TIP3    H138129   3.649   2.094  17.175  0.4424 -0.7789 -0.3407
 5546TIP3    H238130   3.673   2.228  17.241 -1.2725 -0.2832 -0.6712
 5547TIP3   OH238131   0.722   3.987  12.594 -0.2434 -0.2837 -0.1013
 5547TIP3    H138132   0.732   3.899  12.560  0.0523  0.1211 -1.1079
 5547TIP3    H238133   0.669   4.033  12.529 -0.0293  0.3963  0.1847
 5548TIP3   OH238134   4.503   1.564  13.513  0.2492 -0.1613 -0.4048
 5548TIP3    H138135   4.413   1.595  13.502  0.4872  1.0921  0.9636
 5548TIP3    H238136   4.502   1.516  13.596  1.1598  1.1723  0.4062
 5549TIP3   OH238137   6.791   5.809  15.889 -0.0960 -0.2624 -0.6538
 5549TIP3    H138138   6.789   5.876  15.820 -1.0878 -0.3077 -0.6924
 5549TIP3    H238139   6.721   5.748  15.865  2.5697 -2.9879 -2.1924
 5550TIP3   OH238140   4.165   2.300   3.747  0.0116 -0.3244  0.0641
 5550TIP3    H138141   4.192   2.377   3.698 -0.1367 -0.6383 -0.5266
 5550TIP3    H238142   4.189   2.226   3.691  0.3362 -0.7257  0.7063
 5551TIP3   OH238143   0.880   5.073  13.117 -0.0448  0.5357 -0.0099
 5551TIP3    H138144   0.969   5.038  13.128 -0.1266  0.5771  0.8307
 5551TIP3    H238145   0.828   4.995  13.097 -0.1878  0.1564  1.6506
 5552TIP3   OH238146   2.520   3.703   3.535 -0.0107  0.1252  0.2864
 5552TIP3    H138147   2.434   3.699   3.578  0.6685  1.4586  1.8396
 5552TIP3    H238148   2.570   3.632   3.576  1.0259  2.1348  2.7247
 5553TIP3   OH238149   0.518   4.050   1.322 -0.5432  0.2467 -0.5458
 5553TIP3    H138150   0.564   4.004   1.252 -1.4348  0.1504 -1.0825
 5553TIP3    H238151   0.540   4.142   1.308 -3.3640  0.6932 -3.1053
 5554TIP3   OH238152   3.568   1.658  12.325  0.4359 -0.0313 -0.0263
 5554TIP3    H138153   3.576   1.624  12.414 -1.6748 -1.8798 -0.4793
 5554TIP3    H238154   3.626   1.735  12.324  2.7561 -1.6006  2.0495
 5555TIP3   OH238155   6.378   2.259  12.060 -0.2119  0.2984 -0.5075
 5555TIP3    H138156   6.333   2.248  12.144 -0.0250  0.1863 -0.4185
 5555TIP3    H238157   6.421   2.345  12.067 -0.0409  0.2066 -0.4112
 5556TIP3   OH238158   0.410   2.841   4.649 -0.1327  0.3337  0.1140
 5556TIP3    H138159   0.348   2.868   4.716 -0.1046  1.0227 -0.1217
 5556TIP3    H238160   0.356   2.807   4.578 -0.2878  1.2800 -0.2475
 5557TIP3   OH238161   5.788   4.511   2.167 -0.9222 -0.4252  0.6755
 5557TIP3    H138162   5.715   4.464   2.208 -0.9698 -0.0953  0.9674
 5557TIP3    H238163   5.865   4.459   2.190 -0.9380 -0.2058  1.2536
 5558TIP3   OH238164   6.754   0.298  14.009  0.2028 -0.0998  0.3635
 5558TIP3    H138165   6.684   0.325  14.067 -0.3637 -0.7731  0.0080
 5558TIP3    H238166   6.815   0.372  14.008 -1.2807  1.1595 -0.5582
 5559TIP3   OH238167   0.837   4.616   4.931 -0.2050  0.4681 -0.0878
 5559TIP3    H138168   0.835   4.654   5.019  3.1472 -1.4506  0.9577
 5559TIP3    H238169   0.910   4.660   4.887 -2.1420  1.7997 -2.2539
 5560TIP3   OH238170   2.906   5.031  15.793 -0.6286 -0.1013  0.6806
 5560TIP3    H138171   2.887   5.117  15.830 -0.9941  0.9502 -1.7570
 5560TIP3    H238172   2.978   5.047  15.732 -2.9407 -0.7171 -2.4515
 5561TIP3   OH238173   2.012   3.856  13.691  0.1501 -0.3211  0.0753
 5561TIP3    H138174   1.962   3.775  13.684 -2.9962  1.4011  0.8875
 5561TIP3    H238175   2.056   3.850  13.776  0.7121 -1.5377 -0.2903
 5562TIP3   OH238176   5.984   3.139   4.600 -0.1465 -0.0642  0.0986
 5562TIP3    H138177   5.998   3.145   4.694 -0.4636 -1.2659  0.2361
 5562TIP3    H238178   6.071   3.125   4.564 -0.1840 -1.0184  0.3538
 5563TIP3   OH238179   1.397   0.045   5.282  0.6306  0.9855 -0.2271
 5563TIP3    H138180   1.453   0.036   5.205  1.0578  1.7434 -0.0159
 5563TIP3    H238181   1.457   0.071   5.352 -0.1877  3.4484 -0.3591
 5564TIP3   OH238182   6.718   5.241  16.232 -0.0859 -0.2542 -0.3565
 5564TIP3    H138183   6.783   5.302  16.198  0.3454 -0.4501  0.1086
 5564TIP3    H238184   6.636   5.269  16.191  0.5632 -1.1294 -2.4072
 5565TIP3   OH238185   3.895   6.003  15.750  0.2487 -0.1265 -0.5402
 5565TIP3    H138186   3.941   5.968  15.673 -0.5879  1.1297 -1.6669
 5565TIP3    H238187   3.827   6.059  15.713 -0.3047  0.3593  1.1406
 5566TIP3   OH238188   2.524   1.693  13.836  0.1026 -0.2982  0.3828
 5566TIP3    H138189   2.455   1.760  13.835  1.8492  1.5958  0.3770
 5566TIP3    H238190   2.486   1.620  13.884 -2.5937 -0.1372 -1.3168
 5567TIP3   OH238191   4.563   0.940  16.728  0.7353  0.0517 -0.0861
 5567TIP3    H138192   4.572   0.994  16.806 -0.5339  1.2998 -0.7565
 5567TIP3    H238193   4.500   0.871  16.754 -0.0271  0.7202 -0.1112
 5568TIP3   OH238194   0.932   4.614  13.952  0.5594  0.7790 -0.2300
 5568TIP3    H138195   0.934   4.519  13.948 -1.2036  0.6682  0.7705
 5568TIP3    H238196   0.841   4.637  13.938  1.0463  2.3787 -1.0455
 5569TIP3   OH238197   2.466   3.139  14.176 -0.2879 -0.2337 -0.1701
 5569TIP3    H138198   2.528   3.095  14.233 -0.6522  0.0069  0.4198
 5569TIP3    H238199   2.494   3.116  14.087 -0.9879 -2.3560  0.1233
 5570TIP3   OH238200   1.276   3.002   5.671  0.4382  0.1846  0.3047
 5570TIP3    H138201   1.328   3.034   5.745  1.7640 -1.3285  0.0665
 5570TIP3    H238202   1.340   2.970   5.608 -0.7095  0.6552 -1.1475
 5571TIP3   OH238203   1.709   2.059   5.421  1.0549 -0.0700 -0.0458
 5571TIP3    H138204   1.711   2.135   5.479 -0.8591  1.6296 -2.0124
 5571TIP3    H238205   1.777   2.076   5.357  0.6419 -0.0259 -0.4747
 5572TIP3   OH238206   3.737   0.945   5.217 -0.1018 -0.8557  0.6606
 5572TIP3    H138207   3.731   1.011   5.286  0.7494 -0.5301  0.4444
 5572TIP3    H238208   3.764   0.866   5.262  0.2801 -0.6882  0.7314
 5573TIP3   OH238209   0.757   5.182   0.516  0.3664 -0.0976  0.2026
 5573TIP3    H138210   0.819   5.217   0.580  2.0985  0.6080 -1.7420
 5573TIP3    H238211   0.717   5.259   0.475  0.2141 -0.4857 -0.4070
 5574TIP3   OH238212   5.008   1.217   2.427  0.5523 -0.2093 -0.3624
 5574TIP3    H138213   4.932   1.268   2.457 -1.7810 -2.9926 -1.0482
 5574TIP3    H238214   5.000   1.216   2.332  2.6975  1.1045 -0.6128
 5575TIP3   OH238215   3.587   4.840  13.200 -0.3466 -0.4413  0.0914
 5575TIP3    H138216   3.579   4.745  13.186  1.9705 -0.8589  1.0031
 5575TIP3    H238217   3.592   4.849  13.296  2.6007  0.1524  0.0043
 5576TIP3   OH238218   2.823   4.078  15.865 -0.1953  0.1143  0.3030
 5576TIP3    H138219   2.885   4.024  15.915 -0.2232  0.6833  0.9784
 5576TIP3    H238220   2.737   4.044  15.890 -0.2090  0.3937  0.6411
 5577TIP3   OH238221   4.210   4.268  16.995  0.3604  0.4844  0.2119
 5577TIP3    H138222   4.214   4.279  17.090  0.8322  1.1908  0.1168
 5577TIP3    H238223   4.232   4.354  16.959  4.3096 -0.6317 -0.5917
 5578TIP3   OH238224   4.416   5.537  12.307 -0.3030 -0.2328  0.3109
 5578TIP3    H138225   4.433   5.625  12.276 -0.6329  0.0242  0.8411
 5578TIP3    H238226   4.472   5.481  12.253 -1.2381  0.1376 -1.0818
 5579TIP3   OH238227   4.808   5.994   5.643  0.0785  0.1786  0.2097
 5579TIP3    H138228   4.865   6.066   5.616  0.2339  0.2227  0.6516
 5579TIP3    H238229   4.838   5.919   5.590 -1.3516  0.8725 -1.7126
 5580TIP3   OH238230   6.642   2.183   0.152  0.3484 -0.3394 -0.2578
 5580TIP3    H138231   6.687   2.248   0.099 -0.4518 -1.0345 -1.8595
 5580TIP3    H238232   6.549   2.200   0.137  0.0212 -3.4451 -2.9949
 5581TIP3   OH238233   1.501   0.373  13.745  0.3190 -0.4595 -0.0995
 5581TIP3    H138234   1.560   0.443  13.717  0.6241  0.1841  1.9650
 5581TIP3    H238235   1.542   0.293  13.713  1.4967  0.1079 -0.0749
 5582TIP3   OH238236   5.850   5.862  15.363  0.3184  0.0928  0.7287
 5582TIP3    H138237   5.932   5.814  15.364  0.0807 -0.5080 -1.7276
 5582TIP3    H238238   5.783   5.795  15.353 -0.3823  0.6585  1.4699
 5583TIP3   OH238239   2.535   6.688  16.144 -0.1886  0.1411 -0.3181
 5583TIP3    H138240   2.444   6.673  16.116 -0.4639 -0.0729  0.6668
 5583TIP3    H238241   2.587   6.673  16.065 -0.7725 -2.4197 -0.3053
 5584TIP3   OH238242   1.012   0.122  10.574  0.5501 -0.5539  0.9223
 5584TIP3    H138243   1.004   0.204  10.623  1.1626  0.3828 -0.4776
 5584TIP3    H238244   0.934   0.119  10.520 -0.0711 -1.5327  1.8403
 5585TIP3   OH238245   5.737   6.384  13.807 -0.1747  0.3150 -0.2135
 5585TIP3    H138246   5.743   6.397  13.713 -0.3222 -1.3523 -0.4801
 5585TIP3    H238247   5.645   6.403  13.828 -0.2531  0.2416 -0.4862
 5586TIP3   OH238248   3.802   2.552  14.972  0.5388 -0.0174 -0.1281
 5586TIP3    H138249   3.765   2.636  14.946 -0.0146 -0.5736 -1.2169
 5586TIP3    H238250   3.889   2.574  15.007 -0.1422  1.1304  0.8968
 5587TIP3   OH238251   6.451   2.144   1.262  0.2676  0.4207  0.5197
 5587TIP3    H138252   6.534   2.096   1.258  0.6629  1.0278  1.1822
 5587TIP3    H238253   6.403   2.103   1.334 -0.3012 -0.3618 -0.2815
 5588TIP3   OH238254   5.225   3.475   1.199 -0.2001 -0.1221  0.5768
 5588TIP3    H138255   5.241   3.414   1.127  1.1622 -0.0846  0.8175
 5588TIP3    H238256   5.276   3.553   1.176 -1.2315  0.6079  0.6943
 5589TIP3   OH238257   1.905   2.525  15.720  0.2398 -0.7846  0.0780
 5589TIP3    H138258   1.895   2.607  15.673  0.8829  1.5357  3.5977
 5589TIP3    H238259   1.834   2.525  15.784  0.4829 -2.8306  0.4153
 5590TIP3   OH238260   3.809   3.377  16.910 -0.0641 -0.7771 -0.6230
 5590TIP3    H138261   3.757   3.360  16.832 -2.3188 -1.1152  0.8494
 5590TIP3    H238262   3.788   3.305  16.969  3.1802 -1.6853 -0.3761
 5591TIP3   OH238263   4.547   2.769  15.440 -0.1495  0.0797 -0.6977
 5591TIP3    H138264   4.545   2.674  15.456  1.8891  0.1083  0.0989
 5591TIP3    H238265   4.526   2.807  15.525  1.4301  0.2879 -0.3645
 5592TIP3   OH238266   6.817   6.786  16.651  0.4879  0.6268 -0.0750
 5592TIP3    H138267   6.764   6.709  16.669  0.5443  0.7757  0.7883
 5592TIP3    H238268   6.780   6.823  16.571 -1.5076  1.4012  1.1359
 5593TIP3   OH238269   2.538   6.783   1.456  0.6508 -0.2383 -0.1420
 5593TIP3    H138270   2.589   6.852   1.499  0.1698 -0.2411  0.4438
 5593TIP3    H238271   2.561   6.790   1.363 -3.2956  4.3119 -1.1689
 5594TIP3   OH238272   6.451   5.470  13.880  0.2334 -0.5162  0.0789
 5594TIP3    H138273   6.543   5.477  13.905  0.0492  0.8776  0.4674
 5594TIP3    H238274   6.420   5.561  13.878 -0.5552 -0.7607 -2.2716
 5595TIP3   OH238275   1.879   1.372   3.504  0.6669 -0.5381 -0.3808
 5595TIP3    H138276   1.818   1.436   3.468 -0.5804 -0.9453  0.8985
 5595TIP3    H238277   1.961   1.420   3.516 -0.7620  1.4671  2.4083
 5596TIP3   OH238278   3.216   3.111  10.987  0.4398  0.2946 -0.7089
 5596TIP3    H138279   3.224   3.021  11.018 -0.5160  0.4941  0.1598
 5596TIP3    H238280   3.301   3.151  11.010  0.6553 -0.2272 -0.5794
 5597TIP3   OH238281   5.040   6.469  15.641  0.0472 -0.2941 -0.0220
 5597TIP3    H138282   5.043   6.503  15.730  0.8845 -1.6298  0.4837
 5597TIP3    H238283   5.023   6.376  15.651  0.7615 -0.5763 -1.2278
 5598TIP3   OH238284   1.478   3.435  14.486  0.5021  0.2635  0.6212
 5598TIP3    H138285   1.499   3.519  14.446  0.2262  0.2602  0.4652
 5598TIP3    H238286   1.551   3.377  14.464  0.2223  0.1839 -0.1041
 5599TIP3   OH238287   1.900   5.203   4.392  0.2892  0.0693  0.1739
 5599TIP3    H138288   1.968   5.136   4.379 -0.9746 -1.0498 -1.0729
 5599TIP3    H238289   1.931   5.279   4.343 -0.0550 -0.9688 -1.7392
 5600TIP3   OH238290   6.295   6.414  13.517  0.0293  0.4478 -0.1898
 5600TIP3    H138291   6.217   6.358  13.511 -0.6404  1.3057  0.2074
 5600TIP3    H238292   6.259   6.503  13.520  1.0328  0.8508  0.0945
 5601TIP3   OH238293   4.946   3.520   6.750  0.0548  0.1707  0.2788
 5601TIP3    H138294   4.908   3.597   6.706  0.1365 -0.4999 -1.0254
 5601TIP3    H238295   4.874   3.458   6.755 -0.1754  0.5338  1.8922
 5602TIP3   OH238296   5.139   1.709  15.015  0.1040 -0.1513  0.1874
 5602TIP3    H138297   5.142   1.774  15.085  0.3628 -0.0723  0.1027
 5602TIP3    H238298   5.225   1.668  15.016  0.6503  0.8866 -1.0558
 5603TIP3   OH238299   1.125   4.052   3.827  0.2002 -0.4514  0.3832
 5603TIP3    H138300   1.086   4.013   3.749  1.4119  0.0684 -0.4956
 5603TIP3    H238301   1.131   3.979   3.889 -0.3531 -0.9698 -0.1515
 5604TIP3   OH238302   0.389   5.962   5.120 -0.0320  0.2964 -0.5161
 5604TIP3    H138303   0.341   5.898   5.069  0.0194  1.4241 -2.0472
 5604TIP3    H238304   0.457   5.995   5.061  1.0830  0.4975  0.8025
 5605TIP3   OH238305   0.002   5.478   0.869  0.2505 -0.1528 -0.1456
 5605TIP3    H138306  -0.058   5.456   0.798 -0.2658  1.1309 -0.1467
 5605TIP3    H238307  -0.040   5.552   0.913  1.5227  0.3595  0.2558
 5606TIP3   OH238308   6.142   2.617   0.129 -0.3094 -1.1687 -0.4369
 5606TIP3    H138309   6.071   2.554   0.112 -1.7782  1.1100 -3.9691
 5606TIP3    H238310   6.098   2.702   0.129  2.1053  0.1505 -0.0210
 5607TIP3   OH238311   1.621   2.198   3.717 -0.2296 -0.2202 -0.1950
 5607TIP3    H138312   1.658   2.285   3.704 -1.9028  0.8113  1.4843
 5607TIP3    H238313   1.555   2.190   3.648 -1.5708  0.7878  0.9103
 5608TIP3   OH238314   2.534   2.447  11.090  1.0849 -0.4297  0.2211
 5608TIP3    H138315   2.504   2.480  11.006  0.3665  0.2508  0.7273
 5608TIP3    H238316   2.581   2.366  11.070 -1.6043 -1.8945 -0.5369
 5609TIP3   OH238317   2.105   0.666  10.921 -0.1675 -1.0166  0.2960
 5609TIP3    H138318   2.044   0.592  10.922 -0.6847 -0.7276  3.5584
 5609TIP3    H238319   2.186   0.631  10.959  0.3344 -0.4391 -0.2233
 5610TIP3   OH238320   3.127   5.301  16.732 -0.0319 -0.0684 -0.0075
 5610TIP3    H138321   3.178   5.237  16.782 -1.0346  0.8213  2.3343
 5610TIP3    H238322   3.144   5.384  16.777  0.2724  1.1225 -2.2100
 5611TIP3   OH238323   4.802   0.313  15.609 -0.2493  0.4298  0.0532
 5611TIP3    H138324   4.752   0.273  15.680  1.1503 -0.0566  0.8055
 5611TIP3    H238325   4.780   0.262  15.532  1.3142 -1.7486  0.9452
 5612TIP3   OH238326   0.001   1.340  12.201 -0.3126 -0.2475  0.1830
 5612TIP3    H138327  -0.010   1.355  12.295  1.4543 -1.1204  0.5685
 5612TIP3    H238328   0.086   1.297  12.193 -0.7686 -0.8979 -1.7554
 5613TIP3   OH238329   0.088   6.123  15.170 -0.1414 -0.5083 -0.5753
 5613TIP3    H138330   0.036   6.202  15.154 -2.1779 -1.5380  0.6087
 5613TIP3    H238331   0.027   6.062  15.212  1.8515 -2.0626  0.2133
 5614TIP3   OH238332   5.678   6.216  15.563  0.5987  0.3050  0.0595
 5614TIP3    H138333   5.729   6.226  15.643 -0.2067 -1.0942  0.7792
 5614TIP3    H238334   5.681   6.302  15.521  3.0242  0.4265  0.3658
 5615TIP3   OH238335   0.959   1.709   2.592  0.6204 -0.4319  0.5105
 5615TIP3    H138336   0.944   1.726   2.499 -0.4819  0.5584  0.8499
 5615TIP3    H238337   0.958   1.613   2.599  1.8209 -0.5605 -0.6455
 5616TIP3   OH238338   1.997   5.161   5.053  0.7655 -0.6889  1.0816
 5616TIP3    H138339   1.942   5.239   5.039  0.3624 -1.2528 -0.7981
 5616TIP3    H238340   2.046   5.180   5.133 -0.0033  1.0986  1.1748
 5617TIP3   OH238341   6.715   4.448   1.741  0.0447  0.0608  0.0523
 5617TIP3    H138342   6.655   4.506   1.694 -0.9392 -1.6498 -0.9097
 5617TIP3    H238343   6.661   4.408   1.810  1.0007  1.1040  1.4725
 5618TIP3   OH238344   3.050   3.884  16.937 -0.6317  0.2389  0.5161
 5618TIP3    H138345   3.133   3.876  16.890 -0.6916 -0.2100  0.4814
 5618TIP3    H238346   2.992   3.930  16.876 -0.6377 -0.1320  0.2382
 5619TIP3   OH238347   2.298   4.072  11.871  0.1207 -0.0080 -0.1603
 5619TIP3    H138348   2.282   4.062  11.777  0.3387 -0.5136 -0.1467
 5619TIP3    H238349   2.387   4.109  11.876 -0.9634  2.8556 -0.2365
 5620TIP3   OH238350   6.768   5.333  14.600  0.5079  0.1275  0.4933
 5620TIP3    H138351   6.748   5.417  14.640  2.3720  0.7533  0.2104
 5620TIP3    H238352   6.844   5.300  14.648  1.4346 -0.1366 -1.0593
 5621TIP3   OH238353   0.897   3.706   1.460  0.1770 -0.1329  0.2102
 5621TIP3    H138354   0.804   3.724   1.476  0.0307  1.4060 -1.9181
 5621TIP3    H238355   0.898   3.618   1.422 -0.2249 -0.7156  1.4964
 5622TIP3   OH238356   4.938   2.469  14.216  0.0024  0.1379 -0.0749
 5622TIP3    H138357   4.864   2.529  14.200  0.0141  0.2587  0.3215
 5622TIP3    H238358   5.001   2.491  14.147 -0.0233  0.5381  0.0249
 5623TIP3   OH238359   2.850   1.974  14.582  0.1120  0.4584 -0.8941
 5623TIP3    H138360   2.820   1.898  14.632 -0.5779 -0.1936 -2.2247
 5623TIP3    H238361   2.927   1.943  14.535 -0.5689  0.3490 -1.9692
 5624TIP3   OH238362   0.952   5.426  12.811  0.3369  0.4104  0.0936
 5624TIP3    H138363   0.933   5.378  12.892  3.1078  0.2635  0.7365
 5624TIP3    H238364   0.900   5.381  12.744  0.2938 -1.3856  1.2638
 5625TIP3   OH238365   5.504   6.563   3.878 -0.0508 -0.1539 -0.0906
 5625TIP3    H138366   5.519   6.548   3.972  0.0795  0.1442 -0.0612
 5625TIP3    H238367   5.524   6.479   3.837  2.7656  0.4517 -0.1813
 5626TIP3   OH238368   0.448   3.786  12.422 -0.6502  0.0997 -0.1140
 5626TIP3    H138369   0.540   3.761  12.408 -0.7560  0.6180 -1.9952
 5626TIP3    H238370   0.447   3.881  12.409 -1.4578  0.0849 -0.2125
 5627TIP3   OH238371   6.333   4.616  13.925  0.9583  0.1310  0.0352
 5627TIP3    H138372   6.424   4.642  13.912  0.8864 -0.5069 -2.1538
 5627TIP3    H238373   6.330   4.525  13.894 -0.1522 -0.3070  1.3422
 5628TIP3   OH238374   5.316   6.753  15.627 -0.0549 -0.2077  0.4313
 5628TIP3    H138375   5.265   6.798  15.694 -0.1403 -0.0687  0.2720
 5628TIP3    H238376   5.296   6.660  15.641 -1.2550 -0.0852 -0.3554
 5629TIP3   OH238377   1.894   2.919   4.226 -0.0133 -0.4247 -0.4093
 5629TIP3    H138378   1.959   2.975   4.268  1.7639 -0.8724 -2.3598
 5629TIP3    H238379   1.946   2.861   4.170 -2.1169 -0.1457 -2.8244
 5630TIP3   OH238380   6.797   5.197   0.878 -0.2116 -0.1438  0.4353
 5630TIP3    H138381   6.842   5.280   0.890 -0.3106  0.0031 -0.1935
 5630TIP3    H238382   6.719   5.218   0.827  0.5603 -0.8270 -1.1230
 5631TIP3   OH238383   0.409   2.630  11.847  0.3022  0.3176 -0.4083
 5631TIP3    H138384   0.444   2.575  11.917  1.1873  1.1105 -0.2092
 5631TIP3    H238385   0.486   2.657  11.797 -0.1358  1.2381 -0.5977
 5632TIP3   OH238386   5.047   0.968  11.886  0.1278 -0.0928 -0.1282
 5632TIP3    H138387   5.051   0.898  11.950  0.2975  0.4189  0.4316
 5632TIP3    H238388   5.139   0.987  11.865  0.0622 -0.6148 -0.9285
 5633TIP3   OH238389   2.717   6.824  11.836 -0.4728 -0.3398 -0.1623
 5633TIP3    H138390   2.669   6.790  11.761  1.0433  0.2971 -1.4934
 5633TIP3    H238391   2.783   6.758  11.855  0.0062  0.0981 -0.2684
 5634TIP3   OH238392   5.201   0.752  12.727 -0.0569 -0.2465  0.2297
 5634TIP3    H138393   5.173   0.720  12.813 -3.2744 -1.5330 -1.0994
 5634TIP3    H238394   5.211   0.672  12.675  0.3105  0.5726 -0.9779
 5635TIP3   OH238395   0.778   0.493   3.216  0.5335 -0.1266  0.0819
 5635TIP3    H138396   0.711   0.433   3.182  0.0783 -0.1902  1.0583
 5635TIP3    H238397   0.739   0.580   3.205  0.8246 -0.0684 -0.5166
 5636TIP3   OH238398   0.302   3.386   1.191  0.4127  0.0626 -0.1618
 5636TIP3    H138399   0.290   3.320   1.122  0.6838  1.6319 -1.7672
 5636TIP3    H238400   0.270   3.467   1.153  0.9702  1.0705  1.4271
 5637TIP3   OH238401   5.459   1.327   3.552 -0.1756 -0.3113 -0.1348
 5637TIP3    H138402   5.537   1.302   3.601 -0.4769 -1.7095 -0.3278
 5637TIP3    H238403   5.491   1.351   3.465  0.0524 -0.6856 -0.1528
 5638TIP3   OH238404   1.071   3.414   3.934  0.2111 -0.3865 -0.6348
 5638TIP3    H138405   1.123   3.457   3.866  0.7949  0.1536  0.1336
 5638TIP3    H238406   1.136   3.378   3.995 -0.2704  1.2170  0.9148
 5639TIP3   OH238407   2.804   5.384   4.023 -0.0999  0.5308 -0.3377
 5639TIP3    H138408   2.725   5.345   3.985  0.0429 -0.5162  0.3818
 5639TIP3    H238409   2.875   5.330   3.989 -0.1605 -2.4083  3.5620
 5640TIP3   OH238410   2.944   3.756  14.290  0.0281 -0.4520  0.1712
 5640TIP3    H138411   2.999   3.681  14.315  0.0523 -0.2957  0.5984
 5640TIP3    H238412   3.004   3.831  14.291 -0.1615 -0.3023  0.5124
 5641TIP3   OH238413   1.733   3.760  10.842  0.7050  0.0408 -0.2112
 5641TIP3    H138414   1.799   3.702  10.882 -0.1302 -0.8671 -0.1003
 5641TIP3    H238415   1.770   3.783  10.757 -0.2180 -3.2056 -1.6593
 5642TIP3   OH238416   2.871   0.350  14.439  0.1229 -0.0590 -0.6439
 5642TIP3    H138417   2.954   0.305  14.454  0.6534  0.8588 -0.7653
 5642TIP3    H238418   2.809   0.280  14.419  1.4238 -0.6081 -3.1483
 5643TIP3   OH238419   1.873   4.092  16.150 -0.1597  0.0132  0.0708
 5643TIP3    H138420   1.923   4.121  16.074 -0.5531  0.0909 -0.1615
 5643TIP3    H238421   1.887   3.997  16.153  0.5964  0.1246  0.4440
 5644TIP3   OH238422   2.109   3.487  15.719 -0.3993  0.2688 -0.2018
 5644TIP3    H138423   2.131   3.406  15.673  0.2803 -0.2091  0.9140
 5644TIP3    H238424   2.128   3.556  15.655 -0.0507 -0.3923 -0.8364
 5645TIP3   OH238425   2.398   4.630   2.484  0.3401 -0.2377 -0.3620
 5645TIP3    H138426   2.381   4.561   2.548 -1.0000  0.7275  0.3683
 5645TIP3    H238427   2.331   4.618   2.417 -0.0273  0.4467 -0.1309
 5646TIP3   OH238428   6.175   5.333  16.480 -0.2246 -0.3161 -0.3846
 5646TIP3    H138429   6.148   5.356  16.569 -1.6965  0.6787 -1.0477
 5646TIP3    H238430   6.270   5.341  16.481  0.0676 -2.8289  1.7597
 5647TIP3   OH238431   6.736   0.936  12.498 -0.2317 -0.2029 -0.5579
 5647TIP3    H138432   6.717   0.945  12.405 -0.9159  1.9888 -0.2596
 5647TIP3    H238433   6.662   0.979  12.542  0.7854  0.0835  0.9524
 5648TIP3   OH238434   0.971   3.037  17.116 -0.2741 -0.1650  0.4185
 5648TIP3    H138435   0.951   3.053  17.208 -0.4214  0.5563  0.2628
 5648TIP3    H238436   0.895   2.987  17.084 -0.6264  0.3317  0.4735
 5649TIP3   OH238437   3.880   5.308  13.574  0.4129 -0.1614 -0.6383
 5649TIP3    H138438   3.789   5.319  13.547  0.2783  0.2891 -0.0065
 5649TIP3    H238439   3.883   5.339  13.665  1.0849 -0.6513 -0.4824
 5650TIP3   OH238440   4.472   5.612   2.853 -0.0389  0.1302 -0.4361
 5650TIP3    H138441   4.510   5.590   2.938 -2.4938 -2.0514  0.2195
 5650TIP3    H238442   4.537   5.583   2.789  1.3106  0.6928  0.6413
 5651TIP3   OH238443   4.312   3.432   4.474  0.1680 -0.2325  0.0694
 5651TIP3    H138444   4.367   3.474   4.539 -1.4821 -1.4221  2.3687
 5651TIP3    H238445   4.244   3.497   4.455  1.5346  0.7495 -1.8261
 5652TIP3   OH238446   3.470   1.288   2.745  0.3288 -0.5041  0.1039
 5652TIP3    H138447   3.395   1.324   2.793 -0.8473 -3.4312  0.6764
 5652TIP3    H238448   3.545   1.306   2.801 -0.2448  0.5019  0.6007
 5653TIP3   OH238449   3.675   0.113   1.361  0.0678 -0.0544  0.6776
 5653TIP3    H138450   3.642   0.202   1.367 -2.3643 -0.8686  0.6052
 5653TIP3    H238451   3.735   0.105   1.435  1.4306  2.0015 -0.1121
 5654TIP3   OH238452   2.131   3.669   5.864 -0.2993  0.2758  0.0557
 5654TIP3    H138453   2.054   3.669   5.920 -0.7178 -0.8954 -0.5022
 5654TIP3    H238454   2.104   3.716   5.785  0.0160  1.1244  0.4337
 5655TIP3   OH238455   6.733   6.515   0.454  0.4578  0.0873 -0.1124
 5655TIP3    H138456   6.770   6.476   0.374 -0.6704 -0.4844 -0.3835
 5655TIP3    H238457   6.706   6.440   0.507  0.4540  0.4767  0.4468
 5656TIP3   OH238458   6.655   1.751   5.890 -0.3647 -0.5201 -0.1339
 5656TIP3    H138459   6.694   1.690   5.953  0.2333 -0.6904 -0.6651
 5656TIP3    H238460   6.565   1.761   5.920 -0.2423 -1.0409  0.4264
 5657TIP3   OH238461   1.661   4.869  11.205 -0.0054  0.1446  0.2455
 5657TIP3    H138462   1.680   4.836  11.118  0.1776  0.3962  0.1890
 5657TIP3    H238463   1.627   4.793  11.253 -2.4082  0.5306 -0.7312
 5658TIP3   OH238464   0.257   2.768  15.976 -0.2016  0.9171 -0.2363
 5658TIP3    H138465   0.346   2.803  15.987  0.4337  0.4849 -3.2533
 5658TIP3    H238466   0.256   2.690  16.031  0.8059  1.6653  0.9106
 5659TIP3   OH238467   0.333   4.833   4.072  0.5413  0.0717  0.0693
 5659TIP3    H138468   0.416   4.839   4.025 -0.3463 -0.0504 -1.6040
 5659TIP3    H238469   0.279   4.777   4.017 -1.7840  2.8286 -0.6847
 5660TIP3   OH238470   4.423   1.653  13.963 -0.4831  0.3448  0.0693
 5660TIP3    H138471   4.442   1.561  13.979 -0.2643 -0.3328 -3.3119
 5660TIP3    H238472   4.330   1.655  13.938 -0.2972  0.8854 -0.6366
 5661TIP3   OH238473   5.156   3.099  11.738 -0.2322  1.1857 -0.6052
 5661TIP3    H138474   5.106   3.033  11.785  0.2605  0.2623 -1.3623
 5661TIP3    H238475   5.190   3.157  11.806 -1.9695  1.6111 -0.0380
 5662TIP3   OH238476   0.243   2.246  13.863  0.4706  0.0448  0.3726
 5662TIP3    H138477   0.224   2.300  13.786 -0.2715  0.4745  0.8333
 5662TIP3    H238478   0.249   2.309  13.935  0.1010 -0.4439  0.8382
 5663TIP3   OH238479   0.290   0.131  12.294 -0.4575  0.1872 -0.5719
 5663TIP3    H138480   0.225   0.076  12.338  0.9243 -0.1021  1.2461
 5663TIP3    H238481   0.245   0.213  12.277 -1.0333  0.3826  1.6279
 5664TIP3   OH238482   2.580   6.077  13.277 -0.2872 -0.1592  0.4545
 5664TIP3    H138483   2.643   6.089  13.347  1.3166 -0.7598 -0.8112
 5664TIP3    H238484   2.538   6.163  13.267  1.2088  0.6107  0.5452
 5665TIP3   OH238485   6.349   5.008   4.208  0.2580  0.1187 -0.0070
 5665TIP3    H138486   6.325   4.964   4.126 -1.9025  0.1118  0.5581
 5665TIP3    H238487   6.444   5.016   4.205  0.4968 -2.3909 -1.2493
 5666TIP3   OH238488   2.010   0.963  11.607 -0.0492 -0.0026 -0.6891
 5666TIP3    H138489   1.938   0.901  11.595 -0.7901  1.1099 -2.2509
 5666TIP3    H238490   2.071   0.942  11.536  0.7880 -0.3657  0.1104
 5667TIP3   OH238491   0.515   5.166   4.476 -0.0548 -0.4976  0.2750
 5667TIP3    H138492   0.469   5.164   4.393 -0.2746 -1.5476  0.4020
 5667TIP3    H238493   0.596   5.117   4.459  0.5567  0.4660  0.3202
 5668TIP3   OH238494   4.550   3.772  13.396 -0.2974 -0.1735 -0.2610
 5668TIP3    H138495   4.495   3.694  13.387  1.1405 -1.1891 -0.7175
 5668TIP3    H238496   4.511   3.836  13.337  0.8302 -1.9720 -3.2172
 5669TIP3   OH238497   5.492   4.865  14.758  0.1284 -0.7243 -1.2309
 5669TIP3    H138498   5.498   4.771  14.742  0.3392 -0.5847 -2.0112
 5669TIP3    H238499   5.449   4.900  14.680  1.9504  0.0979 -1.9123
 5670TIP3   OH238500   1.426   4.162   5.931  0.2976 -0.2429 -0.0167
 5670TIP3    H138501   1.479   4.083   5.927  2.2018  0.8167  2.0851
 5670TIP3    H238502   1.488   4.233   5.914 -1.0486  0.9145 -0.2687
 5671TIP3   OH238503   5.968   6.748  16.588  0.5410 -0.2979  0.0737
 5671TIP3    H138504   6.029   6.747  16.514 -0.8970  2.1063 -1.2722
 5671TIP3    H238505   6.018   6.787  16.660  1.6198 -1.6514  0.1027
 5672TIP3   OH238506   0.970   3.141  12.914  0.1047  0.4294 -0.6033
 5672TIP3    H138507   1.041   3.086  12.881 -0.5414 -0.2904 -0.8001
 5672TIP3    H238508   0.995   3.160  13.004  0.5773  0.2366 -0.6892
 5673TIP3   OH238509   2.174   1.746  11.111  0.2870 -0.0890  0.0877
 5673TIP3    H138510   2.093   1.759  11.162  0.7143 -0.2745  0.8380
 5673TIP3    H238511   2.144   1.732  11.021 -0.4452  1.0530  0.1377
 5674TIP3   OH238512   5.729   4.609  11.284 -0.3911 -0.3921  0.0693
 5674TIP3    H138513   5.707   4.693  11.244 -1.8992 -1.0933 -0.6569
 5674TIP3    H238514   5.745   4.551  11.210  0.2044 -0.8686  0.5621
 5675TIP3   OH238515   2.268   6.351  13.811 -0.3502 -0.0078  0.6197
 5675TIP3    H138516   2.348   6.374  13.764 -0.8898 -0.4257 -0.5477
 5675TIP3    H238517   2.298   6.305  13.889  0.6577  2.4696  1.8099
 5676TIP3   OH238518   0.564   4.751  16.461 -0.5979 -0.4893 -0.0067
 5676TIP3    H138519   0.591   4.677  16.407 -0.2017 -0.0049 -0.4863
 5676TIP3    H238520   0.573   4.721  16.551  1.4617 -0.3838 -0.1446
 5677TIP3   OH238521   5.572   3.292   0.716  0.2924  0.0400 -0.1210
 5677TIP3    H138522   5.513   3.235   0.667  1.3692 -0.6967 -0.6126
 5677TIP3    H238523   5.542   3.381   0.696 -0.2397 -0.2970 -0.8837
 5678TIP3   OH238524   1.149   6.817   6.205 -0.0832  0.6696  0.3526
 5678TIP3    H138525   1.117   6.804   6.294 -1.4606  1.8115  0.0674
 5678TIP3    H238526   1.227   6.762   6.199  0.7945  1.5502  2.6559
 5679TIP3   OH238527   5.469   1.361  13.145  0.5581  0.1418 -0.5708
 5679TIP3    H138528   5.534   1.405  13.091  1.3252  2.3261  1.8882
 5679TIP3    H238529   5.487   1.392  13.234  0.0526 -3.9552  1.2083
 5680TIP3   OH238530   2.250   5.374   3.635  0.1858  0.1833 -0.1263
 5680TIP3    H138531   2.157   5.394   3.626  0.2039  0.5407  0.3665
 5680TIP3    H238532   2.252   5.294   3.687  0.1177 -1.0091 -1.8944
 5681TIP3   OH238533   3.966   5.125   5.706  0.2771 -0.2809 -0.1991
 5681TIP3    H138534   3.931   5.210   5.733  1.4880  0.1810 -0.0418
 5681TIP3    H238535   3.928   5.110   5.620 -0.7515 -0.0684  0.2052
 5682TIP3   OH238536   2.266   5.594   4.859  0.4966 -0.1604 -0.4290
 5682TIP3    H138537   2.269   5.686   4.833  1.4602  0.4486  1.6662
 5682TIP3    H238538   2.315   5.549   4.790  0.0086  0.8610 -1.4950
 5683TIP3   OH238539   1.328   5.448   2.930 -0.1135 -0.5455  0.2510
 5683TIP3    H138540   1.279   5.514   2.979  0.1976  0.0963 -0.2941
 5683TIP3    H238541   1.303   5.461   2.839 -0.9334 -1.9460  0.2493
 5684TIP3   OH238542   2.094   1.928   2.039 -0.4215 -0.8955  0.2366
 5684TIP3    H138543   2.039   1.873   1.983 -0.4354 -1.6316  0.9602
 5684TIP3    H238544   2.163   1.870   2.070  0.0876 -0.2748  0.2912
 5685TIP3   OH238545   2.417   0.649   4.112 -0.1635  0.5670  0.2342
 5685TIP3    H138546   2.405   0.611   4.024 -0.2616 -1.1376  0.9438
 5685TIP3    H238547   2.490   0.710   4.102  0.1283  0.0522 -0.9325
 5686TIP3   OH238548   4.778   2.890  16.785 -0.7122  0.6392 -0.3131
 5686TIP3    H138549   4.754   2.982  16.776 -0.9200  0.7677  1.2163
 5686TIP3    H238550   4.808   2.882  16.875 -1.1471 -0.8907 -0.2679
 5687TIP3   OH238551   5.526   5.173  15.272  0.4470 -0.0851  0.2309
 5687TIP3    H138552   5.465   5.146  15.340  1.3130 -2.0926  0.2809
 5687TIP3    H238553   5.531   5.098  15.213  2.3236  0.2657 -0.1290
 5688TIP3   OH238554   3.794   3.556  11.652 -0.2373 -0.3824  0.1713
 5688TIP3    H138555   3.866   3.549  11.589  0.9217  1.2463  1.2169
 5688TIP3    H238556   3.721   3.590  11.602  0.9762  1.9319 -0.1611
 5689TIP3   OH238557   2.817   2.886  14.890 -0.1866 -0.3813 -0.5452
 5689TIP3    H138558   2.821   2.829  14.814  0.4286 -0.9708 -0.0829
 5689TIP3    H238559   2.779   2.831  14.959 -1.5235  0.3916 -0.6335
 5690TIP3   OH238560   5.729   0.604   4.110 -0.2435 -0.0421  0.7175
 5690TIP3    H138561   5.796   0.591   4.043 -0.3293  0.1225  0.6003
 5690TIP3    H238562   5.777   0.600   4.193 -0.2283 -0.8579  0.6772
 5691TIP3   OH238563   4.893   2.832   4.349 -0.1145 -0.5313 -0.6735
 5691TIP3    H138564   4.859   2.755   4.305 -0.3901 -0.2239 -1.0046
 5691TIP3    H238565   4.829   2.901   4.330  1.1137  0.2828 -2.0468
 5692TIP3   OH238566   6.088   5.814   0.064  0.0001 -0.2136  0.1871
 5692TIP3    H138567   6.109   5.900   0.028 -0.8498 -0.6291 -1.4069
 5692TIP3    H238568   6.019   5.831   0.128 -0.3143  0.2771 -0.2733
 5693TIP3   OH238569   2.853   4.727  15.568  0.2342  0.0741 -0.8869
 5693TIP3    H138570   2.895   4.655  15.616  1.9097  0.3387 -1.8649
 5693TIP3    H238571   2.847   4.798  15.633  0.8036 -0.1673 -0.5617
 5694TIP3   OH238572   4.586   2.298  12.350 -0.5884 -0.0984 -0.0488
 5694TIP3    H138573   4.566   2.369  12.289 -0.3951  0.3158  0.3569
 5694TIP3    H238574   4.513   2.299  12.412 -0.8207 -0.5633 -0.3156
 5695TIP3   OH238575   3.365   1.416   3.252  0.7105  0.4206  0.3043
 5695TIP3    H138576   3.356   1.510   3.264  0.4916  0.2697  1.3852
 5695TIP3    H238577   3.276   1.382   3.253  0.7588  0.2548 -0.5842
 5696TIP3   OH238578   1.641   5.167  11.724 -0.0831  0.4897  0.4489
 5696TIP3    H138579   1.551   5.147  11.752  0.1381 -0.5024  0.5192
 5696TIP3    H238580   1.636   5.171  11.629 -0.2921  0.9223  0.4769
 5697TIP3   OH238581   5.597   1.181   2.946 -0.3342 -0.0619 -0.1344
 5697TIP3    H138582   5.602   1.153   3.037 -0.5873 -1.2214 -0.4522
 5697TIP3    H238583   5.619   1.102   2.896 -0.5950  0.4496 -1.0791
 5698TIP3   OH238584   3.366   5.470   3.126 -0.2724 -0.0404 -0.2237
 5698TIP3    H138585   3.394   5.441   3.039 -2.9414 -3.2639 -0.2354
 5698TIP3    H238586   3.391   5.397   3.184  1.1648  1.8913  1.7380
 5699TIP3   OH238587   0.302   4.817  12.195  0.5866  0.3735 -0.7397
 5699TIP3    H138588   0.328   4.866  12.274  3.3832 -0.0565 -1.2897
 5699TIP3    H238589   0.216   4.853  12.172  0.4404  1.6848  1.5331
 5700TIP3   OH238590   4.752   5.517  15.166  0.6916  0.3018  0.4282
 5700TIP3    H138591   4.799   5.592  15.129 -0.1945  1.0380  0.7521
 5700TIP3    H238592   4.687   5.556  15.224  0.0137 -0.7097  0.3719
 5701TIP3   OH238593   5.623   6.169  12.433 -0.1290 -0.4452  0.4732
 5701TIP3    H138594   5.705   6.205  12.398 -0.0111  0.7990  1.9127
 5701TIP3    H238595   5.565   6.245  12.439 -0.7994 -0.9921  1.0973
 5702TIP3   OH238596   5.928   2.341   2.432 -0.0396  0.0824 -0.3796
 5702TIP3    H138597   5.943   2.382   2.347 -0.2348 -0.4149 -0.6646
 5702TIP3    H238598   5.924   2.247   2.412  3.0882 -0.3708  0.6189
 5703TIP3   OH238599   2.183   0.107   4.826  0.1472  0.6435  0.2192
 5703TIP3    H138600   2.199   0.197   4.854  2.4927  0.9951 -1.8969
 5703TIP3    H238601   2.090   0.105   4.803 -0.5552  1.7600  2.6719
 5704TIP3   OH238602   5.075   6.562  12.923  0.2678 -0.8301  0.4030
 5704TIP3    H138603   5.061   6.492  12.859  0.2293 -1.2231  0.8335
 5704TIP3    H238604   4.998   6.619  12.914  0.3113 -0.8309  0.0320
 5705TIP3   OH238605   3.968   2.074  10.996 -0.1696  0.0170  0.5202
 5705TIP3    H138606   3.925   2.119  10.924  0.6860 -0.2183 -0.1566
 5705TIP3    H238607   3.971   1.982  10.969 -0.1520 -0.1260  1.0042
 5706TIP3   OH238608   0.947   5.977   2.068 -0.0440  0.0510 -0.2157
 5706TIP3    H138609   0.943   6.025   1.985  0.5800  1.6869  0.6541
 5706TIP3    H238610   0.878   6.015   2.122  1.3245  0.9765  0.9682
 5707TIP3   OH238611   6.215   5.290   6.197  0.8420 -0.2312 -0.4359
 5707TIP3    H138612   6.186   5.241   6.119 -2.9390 -0.1112  0.6646
 5707TIP3    H238613   6.303   5.321   6.175  0.2430 -0.7842 -4.3752
 5708TIP3   OH238614   2.643   6.527  14.997 -0.0653 -0.2247  0.5206
 5708TIP3    H138615   2.598   6.567  14.923  3.2543  0.3039 -1.3715
 5708TIP3    H238616   2.670   6.441  14.965 -1.1105 -1.2537  2.2168
 5709TIP3   OH238617   3.003   1.651   2.234 -0.0143 -0.1932  0.1782
 5709TIP3    H138618   3.034   1.741   2.241  1.2948 -0.5878 -0.2214
 5709TIP3    H238619   3.052   1.604   2.302 -0.3002 -0.7084  0.0358
 5710TIP3   OH238620   5.929   0.147   5.841  0.1244  0.2129  0.4121
 5710TIP3    H138621   6.001   0.091   5.812 -1.4308 -1.8076  0.2295
 5710TIP3    H238622   5.911   0.119   5.931 -0.0403  1.1258  0.6736
 5711TIP3   OH238623   6.451   2.675   5.303  0.7232 -0.2148 -0.0921
 5711TIP3    H138624   6.368   2.675   5.255 -0.1699 -0.8620  1.3788
 5711TIP3    H238625   6.450   2.757   5.351 -1.0737 -1.8825  3.0778
 5712TIP3   OH238626   1.245   4.641   5.795 -0.0988  0.3033 -0.0513
 5712TIP3    H138627   1.222   4.694   5.718 -2.0690  1.6963  1.3913
 5712TIP3    H238628   1.322   4.684   5.832  0.8030 -0.3176 -1.1289
 5713TIP3   OH238629   3.750   5.445   4.204 -0.1981 -0.4329 -0.1729
 5713TIP3    H138630   3.784   5.511   4.144 -0.8647 -1.6529 -1.9587
 5713TIP3    H238631   3.679   5.489   4.251 -0.6821  0.0916 -1.3765
 5714TIP3   OH238632   5.170   4.512  13.495  0.3041  0.5200 -0.6199
 5714TIP3    H138633   5.192   4.519  13.402  1.1418 -0.0512 -0.4804
 5714TIP3    H238634   5.195   4.597  13.532 -0.1220  0.7834 -0.9265
 5715TIP3   OH238635   0.818   6.318   0.245 -0.2967  0.1230 -1.1523
 5715TIP3    H138636   0.884   6.259   0.281  0.9582  1.4539 -1.1999
 5715TIP3    H238637   0.735   6.270   0.255  0.5559 -1.2446 -0.3481
 5716TIP3   OH238638   5.736   5.365  11.967  0.1154 -0.5844  0.1489
 5716TIP3    H138639   5.713   5.449  12.007 -0.5726 -0.7694  0.1533
 5716TIP3    H238640   5.794   5.323  12.030  0.6209 -0.0385  0.0629
 5717TIP3   OH238641   2.584   5.228   5.229  0.5440  0.1911  0.7234
 5717TIP3    H138642   2.621   5.317   5.229  2.2801 -0.4484 -1.0980
 5717TIP3    H238643   2.493   5.240   5.254  0.7450  2.4796  0.6139
 5718TIP3   OH238644   2.185   0.784   2.278 -0.3235  0.1237 -0.2807
 5718TIP3    H138645   2.280   0.774   2.284 -0.5028 -1.9899 -0.0944
 5718TIP3    H238646   2.171   0.846   2.206  1.1552 -1.9452 -2.4739
 5719TIP3   OH238647   0.629   5.616  14.343  0.3526 -0.2436 -0.2769
 5719TIP3    H138648   0.552   5.662  14.377  0.2689 -0.7389  0.2235
 5719TIP3    H238649   0.692   5.685  14.324 -0.4402  0.2181 -1.2879
 5720TIP3   OH238650   4.995   5.978  16.781 -0.0871 -0.2752  0.5237
 5720TIP3    H138651   5.078   5.944  16.814 -1.3031 -3.1836  0.8848
 5720TIP3    H238652   4.990   5.945  16.692 -0.2707  1.0757  0.0157
 5721TIP3   OH238653   3.930   1.865   2.768  0.2173  0.2519  0.1985
 5721TIP3    H138654   3.906   1.774   2.749  0.0499  0.2918  0.2201
 5721TIP3    H238655   3.858   1.916   2.732  0.4574  0.3924 -0.0843
 5722TIP3   OH238656   5.964   1.758   5.457  0.3154 -0.5775 -0.0064
 5722TIP3    H138657   5.969   1.702   5.380  2.8002 -2.0398  1.0837
 5722TIP3    H238658   6.033   1.725   5.515 -0.7159  1.1461  2.3891
 5723TIP3   OH238659   0.057   0.639   2.580  0.6288 -0.2047 -0.2047
 5723TIP3    H138660   0.032   0.580   2.651  0.0799 -0.9105 -0.9640
 5723TIP3    H238661   0.013   0.603   2.503  0.7501  0.8720 -0.7945
 5724TIP3   OH238662   0.893   1.900  17.125 -0.0286 -0.1886 -0.1244
 5724TIP3    H138663   0.964   1.911  17.062 -1.6348  1.6776 -1.7404
 5724TIP3    H238664   0.867   1.989  17.148 -0.3079 -0.8150  2.2967
 5725TIP3   OH238665   0.812   6.088  16.339 -0.4422  0.1170 -0.1837
 5725TIP3    H138666   0.761   6.019  16.295  0.5650 -0.7010 -0.1098
 5725TIP3    H238667   0.806   6.066  16.432 -0.3736  0.3102 -0.1341
 5726TIP3   OH238668   3.705   4.617  15.157 -0.3532 -0.0271  0.2563
 5726TIP3    H138669   3.738   4.625  15.068 -0.9808  0.1348  0.0348
 5726TIP3    H238670   3.704   4.523  15.175 -1.8566 -0.1848 -0.5385
 5727TIP3   OH238671   3.677   0.756   4.696  0.4372  0.3397 -0.2477
 5727TIP3    H138672   3.710   0.708   4.620  1.4544 -1.5845  1.3110
 5727TIP3    H238673   3.641   0.688   4.753 -0.3663  1.7323  0.9689
 5728TIP3   OH238674   2.127   6.760  12.016  0.0878  0.2909  0.3737
 5728TIP3    H138675   2.164   6.727  11.934  0.7633 -3.0019  1.8630
 5728TIP3    H238676   2.203   6.776  12.072 -0.4019  1.8711  0.6445
 5729TIP3   OH238677   2.793   0.806   3.256  0.2390  0.3595  0.4874
 5729TIP3    H138678   2.807   0.722   3.299  0.2459  0.1672  0.1146
 5729TIP3    H238679   2.742   0.784   3.178  1.2406  0.5451 -0.2417
 5730TIP3   OH238680   3.201   2.428   3.841 -0.6159 -0.1456  0.0170
 5730TIP3    H138681   3.223   2.430   3.935 -1.1479 -1.6963  0.2048
 5730TIP3    H238682   3.262   2.490   3.801  0.8747 -0.8212  1.1468
 5731TIP3   OH238683   3.877   1.592  15.571 -0.0308 -0.1025  0.3214
 5731TIP3    H138684   3.878   1.662  15.637 -1.2965 -0.3221  0.6044
 5731TIP3    H238685   3.821   1.625  15.501  1.4668  0.2095 -0.7797
 5732TIP3   OH238686   5.064   1.075   4.274  0.0088  0.3463  0.0970
 5732TIP3    H138687   5.146   1.033   4.249  0.2184 -0.0799  1.3939
 5732TIP3    H238688   5.052   1.050   4.366 -0.5749  1.9716  0.5095
 5733TIP3   OH238689   4.379   6.576  14.527  0.2226  0.4094 -0.1914
 5733TIP3    H138690   4.393   6.521  14.450  2.0214  1.6120 -0.7919
 5733TIP3    H238691   4.294   6.618  14.511  0.0166 -0.2651 -0.9341
 5734TIP3   OH238692   2.422   1.475  11.679  0.5927  0.6215  0.4377
 5734TIP3    H138693   2.398   1.484  11.586 -0.7125  1.2806  0.8159
 5734TIP3    H238694   2.415   1.564  11.714  1.4021  0.4366  1.1084
 5735TIP3   OH238695   5.176   3.421   0.111 -0.2624  0.9421 -0.4805
 5735TIP3    H138696   5.267   3.433   0.139 -0.6550  0.7345  0.9651
 5735TIP3    H238697   5.168   3.328   0.094 -0.1419  0.9935 -0.8091
 5736TIP3   OH238698   3.994   4.559  12.946  0.1790 -0.2140 -0.0638
 5736TIP3    H138699   4.049   4.567  12.868  0.5291  0.6152  0.2554
 5736TIP3    H238700   4.014   4.637  12.997 -0.0725 -0.7269  0.8424
 5737TIP3   OH238701   3.197   2.639  13.114 -0.8103  0.0444  0.2823
 5737TIP3    H138702   3.102   2.643  13.113 -0.8229 -0.2250 -0.0710
 5737TIP3    H238703   3.225   2.721  13.155 -1.1475  1.0093 -1.3248
 5738TIP3   OH238704   3.410   3.253   2.547  0.3678 -0.4810 -0.0876
 5738TIP3    H138705   3.341   3.268   2.482  1.4272 -0.1707 -1.1755
 5738TIP3    H238706   3.381   3.175   2.595  0.0109 -1.3134 -1.5788
 5739TIP3   OH238707   1.803   5.956   5.299 -0.2496  0.0368 -0.6034
 5739TIP3    H138708   1.723   5.921   5.339 -0.6872  0.7524 -0.8287
 5739TIP3    H238709   1.826   5.891   5.232  0.8492 -1.5064  1.1610
 5740TIP3   OH238710   6.462   1.544  10.841 -0.4793  0.1890  0.0944
 5740TIP3    H138711   6.548   1.512  10.814 -1.1817 -0.5851 -1.3288
 5740TIP3    H238712   6.403   1.470  10.828 -1.8725  1.5361 -1.7459
 5741TIP3   OH238713   1.369   5.632  14.975  0.4787 -0.5308  0.3506
 5741TIP3    H138714   1.381   5.546  14.936 -0.9425 -0.4544 -0.2946
 5741TIP3    H238715   1.457   5.671  14.974  0.4781 -0.2720 -3.4167
 5742TIP3   OH238716   5.730   4.058   4.603  0.4513 -0.1471  0.3976
 5742TIP3    H138717   5.750   3.997   4.673  2.1568 -0.0310  0.0479
 5742TIP3    H238718   5.706   4.139   4.648 -1.2163 -0.8533  0.8520
 5743TIP3   OH238719   4.950   2.802  15.061 -0.0072  0.2502 -0.0030
 5743TIP3    H138720   4.984   2.830  14.976 -0.5969  1.1490  0.0339
 5743TIP3    H238721   4.871   2.752  15.040 -1.6546  2.6569  0.0398
 5744TIP3   OH238722   6.311   5.227  12.476 -0.3273 -0.0355  0.7237
 5744TIP3    H138723   6.259   5.156  12.439  0.9860 -0.4998 -0.3188
 5744TIP3    H238724   6.334   5.196  12.564 -0.1134 -0.7240  0.4318
 5745TIP3   OH238725   3.817   3.849   3.922  0.3825 -0.1106 -0.3410
 5745TIP3    H138726   3.804   3.755   3.928  1.6371 -0.2520  0.5753
 5745TIP3    H238727   3.895   3.859   3.869 -0.6183  0.4976 -1.7416
 5746TIP3   OH238728   4.451   2.500   5.364  0.0482  0.5406 -0.1174
 5746TIP3    H138729   4.414   2.519   5.278  1.5195  2.4894 -0.4065
 5746TIP3    H238730   4.434   2.579   5.416 -0.5310 -0.4740  1.3102
 5747TIP3   OH238731   5.878   3.522  12.222 -0.2587 -0.1313  0.1970
 5747TIP3    H138732   5.892   3.476  12.139  0.7220 -0.6649  0.6403
 5747TIP3    H238733   5.825   3.461  12.274  1.4532 -1.0353  0.9681
 5748TIP3   OH238734   0.037   3.379  12.548 -0.4183 -0.2113 -0.5885
 5748TIP3    H138735  -0.016   3.354  12.473  1.2090 -0.6765 -1.6190
 5748TIP3    H238736   0.025   3.307  12.611 -2.4524  0.5831  0.0039
 5749TIP3   OH238737   0.410   4.418   5.698  0.2867  0.1661 -0.1917
 5749TIP3    H138738   0.413   4.514   5.703 -1.0387  0.1972  0.4240
 5749TIP3    H238739   0.432   4.389   5.786  0.3757 -0.0856 -0.2979
 5750TIP3   OH238740   3.393   1.133  11.763 -0.0282 -0.0090  0.3540
 5750TIP3    H138741   3.323   1.153  11.701 -1.4519 -1.7770  1.2763
 5750TIP3    H238742   3.472   1.133  11.710 -0.5750  2.5960 -0.6253
 5751TIP3   OH238743   4.005   2.652  16.449 -0.1888  0.4431 -0.5355
 5751TIP3    H138744   4.061   2.718  16.489 -1.5833  1.4871 -0.2666
 5751TIP3    H238745   4.053   2.570  16.463  0.7245  1.1437  0.7306
 5752TIP3   OH238746   6.151   3.579  14.554  0.1902  0.0948 -0.3457
 5752TIP3    H138747   6.137   3.552  14.463  1.2335  0.2096 -0.5572
 5752TIP3    H238748   6.111   3.509  14.606  1.4754 -1.1035 -0.8995
 5753TIP3   OH238749   1.864   0.821   4.570 -0.2761  0.8105 -0.5136
 5753TIP3    H138750   1.836   0.910   4.550 -0.0909  1.1289  0.5577
 5753TIP3    H238751   1.930   0.832   4.638 -1.1516 -0.1977  0.5505
 5754TIP3   OH238752   4.862   3.027  10.955  0.4850  0.3550  0.0431
 5754TIP3    H138753   4.892   3.033  10.865  3.6520 -2.5200  0.7351
 5754TIP3    H238754   4.894   3.107  10.996  0.6336  0.8077 -0.9236
 5755TIP3   OH238755   0.096   0.534  11.242 -0.5193  0.5377  0.3578
 5755TIP3    H138756   0.112   0.628  11.232 -1.5128  0.6306 -0.5286
 5755TIP3    H238757   0.009   0.520  11.203 -1.1468 -0.4656  2.0025
 5756TIP3   OH238758   2.881   4.510   0.210  0.0322 -0.2630 -0.3603
 5756TIP3    H138759   2.892   4.447   0.282 -0.3170  0.7415  0.6037
 5756TIP3    H238760   2.899   4.595   0.250  2.4185  0.1355 -2.0673
 5757TIP3   OH238761   5.346   1.619   1.278  0.2382  0.0944  0.0963
 5757TIP3    H138762   5.334   1.524   1.284 -2.8072  0.2673 -1.3718
 5757TIP3    H238763   5.258   1.653   1.263  1.2233  3.2091  0.7580
 5758TIP3   OH238764   6.418   3.534   6.646  0.1081 -0.2048 -0.0615
 5758TIP3    H138765   6.420   3.450   6.692  1.7650 -2.0167 -3.1270
 5758TIP3    H238766   6.509   3.563   6.645 -0.1989  0.7811 -0.5162
 5759TIP3   OH238767   1.168   4.819   2.307 -0.1578  0.3020 -0.1661
 5759TIP3    H138768   1.147   4.906   2.339  1.0899 -0.4899  3.3366
 5759TIP3    H238769   1.260   4.824   2.281  0.3773 -0.2219  1.4842
 5760TIP3   OH238770   6.188   2.790   2.956  0.4247  0.4909  0.1303
 5760TIP3    H138771   6.208   2.705   2.996 -2.8924 -0.4456  0.1122
 5760TIP3    H238772   6.146   2.768   2.873  1.1757  2.2369 -0.7542
 5761TIP3   OH238773   1.864   5.011  13.814  0.0288 -0.5894  0.4636
 5761TIP3    H138774   1.953   5.022  13.781 -1.1248 -0.2287 -2.9167
 5761TIP3    H238775   1.841   5.096  13.852 -0.0086  0.4861 -1.8505
 5762TIP3   OH238776   6.196   2.228   4.111  0.4871 -1.0524 -0.2407
 5762TIP3    H138777   6.148   2.146   4.119 -0.6367 -0.4778 -0.8732
 5762TIP3    H238778   6.156   2.286   4.176  0.4480 -0.6195 -0.6455
 5763TIP3   OH238779   5.895   1.685  16.682 -0.1807 -0.2362  0.4146
 5763TIP3    H138780   5.970   1.679  16.623 -0.7956  0.3056 -0.4275
 5763TIP3    H238781   5.890   1.598  16.722  2.9169  0.5861  3.0391
 5764TIP3   OH238782   0.656   4.254   1.662 -0.2261 -0.0240  0.1649
 5764TIP3    H138783   0.584   4.191   1.672  0.3937 -0.8736 -0.6149
 5764TIP3    H238784   0.669   4.289   1.750 -1.8234  0.4067  0.2497
 5765TIP3   OH238785   3.743   5.119   4.846  0.0992 -0.4065 -0.5527
 5765TIP3    H138786   3.776   5.035   4.813  3.9221  1.1794 -1.3669
 5765TIP3    H238787   3.705   5.162   4.770  0.2772 -0.4944 -0.6925
 5766TIP3   OH238788   2.050   2.857  13.446  0.2907  1.0942 -0.4129
 5766TIP3    H138789   2.050   2.801  13.369 -2.5459 -2.0722  1.5892
 5766TIP3    H238790   2.088   2.802  13.515  0.7106  3.0048  0.9618
 5767TIP3   OH238791   5.458   6.199  12.926  0.5508  0.4295 -0.4251
 5767TIP3    H138792   5.376   6.153  12.946  1.5829 -1.2494  0.2186
 5767TIP3    H238793   5.437   6.292  12.937 -1.6463  0.1769 -1.7872
 5768TIP3   OH238794   1.522   6.449   0.392  0.0782 -0.3730  0.2442
 5768TIP3    H138795   1.470   6.399   0.456  0.6423  0.2018  1.1760
 5768TIP3    H238796   1.457   6.485   0.332 -0.6658  0.4759  1.4896
 5769TIP3   OH238797   0.424   6.648   5.074 -0.1851 -0.1609 -0.3735
 5769TIP3    H138798   0.483   6.677   5.143 -0.0667  0.0914 -0.5794
 5769TIP3    H238799   0.369   6.724   5.056 -2.7100 -1.2383  1.9886
 5770TIP3   OH238800   0.532   2.506   2.170  0.7477  0.9330  0.1567
 5770TIP3    H138801   0.518   2.485   2.262 -0.2302  1.2878  0.1004
 5770TIP3    H238802   0.471   2.449   2.123  0.0127  1.9384 -0.1537
 5771TIP3   OH238803   4.793   0.326   0.297 -0.1272 -0.2158 -0.1874
 5771TIP3    H138804   4.799   0.383   0.373  0.9120 -0.7539  0.1556
 5771TIP3    H238805   4.700   0.301   0.293 -0.1573 -0.3298  1.0134
 5772TIP3   OH238806   3.820   3.920  14.356 -0.1280 -0.5503 -0.0000
 5772TIP3    H138807   3.728   3.896  14.347 -0.5029  1.1763 -1.3193
 5772TIP3    H238808   3.860   3.895  14.273  0.6766 -1.5569  0.6756
 5773TIP3   OH238809   1.600   1.478   0.164 -0.3812  0.3676 -0.0504
 5773TIP3    H138810   1.626   1.413   0.229  0.0540  1.6598  1.1208
 5773TIP3    H238811   1.662   1.468   0.092  0.8085  0.6551  0.9052
 5774TIP3   OH238812   2.389   0.617  13.623  0.2681  0.0999  0.2629
 5774TIP3    H138813   2.317   0.556  13.640 -0.8381  1.4278  0.5646
 5774TIP3    H238814   2.384   0.635  13.529 -1.4503  2.0747  0.6480
 5775TIP3   OH238815   3.962   3.482  11.138 -0.8019  0.3229 -0.0649
 5775TIP3    H138816   4.057   3.481  11.130 -0.4953 -0.3394  2.7655
 5775TIP3    H238817   3.934   3.401  11.094  0.2933 -1.1104  1.7218
 5776TIP3   OH238818   1.534   2.174  12.486 -0.2265 -0.1642  0.2602
 5776TIP3    H138819   1.541   2.079  12.496  1.0997 -0.1348 -0.2446
 5776TIP3    H238820   1.563   2.190  12.396 -2.1151  0.5668 -0.2875
 5777TIP3   OH238821   5.093   2.863  14.395 -0.4012 -0.5384  0.3937
 5777TIP3    H138822   5.004   2.877  14.363  0.3501  1.2502 -1.0341
 5777TIP3    H238823   5.130   2.797  14.337 -0.2502 -0.0222 -0.1014
 5778TIP3   OH238824   4.528   4.454  11.694  0.4646  0.0423 -0.4963
 5778TIP3    H138825   4.619   4.484  11.705  0.3951  0.5818 -1.2658
 5778TIP3    H238826   4.530   4.362  11.719  1.2556  0.0225 -0.6027
 5779TIP3   OH238827   2.051   0.823   1.405  0.0086  0.2493 -0.1134
 5779TIP3    H138828   2.070   0.896   1.346  0.2206 -0.4372 -0.9186
 5779TIP3    H238829   2.051   0.861   1.492 -2.2735  1.7070 -0.6586
 5780TIP3   OH238830   3.500   5.190   2.656 -0.3585  0.3819 -0.0435
 5780TIP3    H138831   3.444   5.112   2.665  2.4755 -1.9369 -0.9338
 5780TIP3    H238832   3.450   5.249   2.600 -1.8304 -1.6313 -0.9927
 5781TIP3   OH238833   6.357   6.402  12.581  0.3553 -0.1944 -0.0190
 5781TIP3    H138834   6.266   6.404  12.553  1.1104  1.0206 -2.7772
 5781TIP3    H238835   6.390   6.318  12.549  0.1144 -0.8723  1.4491
 5782TIP3   OH238836   6.542   6.065  12.488  0.3985  0.7141 -0.2817
 5782TIP3    H138837   6.510   6.014  12.562  0.6971  2.1027  0.8427
 5782TIP3    H238838   6.564   5.999  12.421 -2.2206 -0.4434 -0.1313
 5783TIP3   OH238839   1.338   0.137   1.306 -0.1535  0.5744 -0.0489
 5783TIP3    H138840   1.366   0.165   1.219 -1.8900 -0.6871 -1.0792
 5783TIP3    H238841   1.412   0.088   1.341  0.9222  1.8931 -0.3905
 5784TIP3   OH238842   2.153   6.032   2.561 -0.7607 -0.0553  0.6674
 5784TIP3    H138843   2.182   5.988   2.640 -0.6643  0.1506  0.7476
 5784TIP3    H238844   2.182   5.975   2.490  0.1210  0.3001  0.7346
 5785TIP3   OH238845   1.246   3.950  16.112 -0.4033 -0.7041 -0.4752
 5785TIP3    H138846   1.311   3.982  16.175  1.1146  0.4911 -2.5325
 5785TIP3    H238847   1.167   4.001  16.130 -0.8500 -2.1193  2.0148
 5786TIP3   OH238848   1.786   6.587   1.309 -0.0288  0.0849 -0.1120
 5786TIP3    H138849   1.777   6.499   1.346  1.4573  0.5333  1.3966
 5786TIP3    H238850   1.809   6.642   1.383 -2.7905  2.1730 -0.6337
 5787TIP3   OH238851   0.134   0.428   0.597 -0.2977  0.4408  0.1880
 5787TIP3    H138852   0.157   0.469   0.681  0.5043  1.9687 -0.7305
 5787TIP3    H238853   0.039   0.420   0.599 -0.2735  0.2700  1.3127
 5788TIP3   OH238854   2.700   6.102  11.908  0.5007  0.5581  0.5667
 5788TIP3    H138855   2.790   6.116  11.880 -0.1490  1.2820 -1.3448
 5788TIP3    H238856   2.681   6.011  11.884  0.0543  1.0735 -1.2134
 5789TIP3   OH238857   5.574   4.417   1.611  0.0667 -0.5358  0.4178
 5789TIP3    H138858   5.557   4.509   1.591  0.4897 -0.3518  0.8863
 5789TIP3    H238859   5.488   4.377   1.618 -0.1162 -0.1755  0.2213
 5790TIP3   OH238860   6.139   4.640  14.672  0.1992  0.4570  0.3321
 5790TIP3    H138861   6.164   4.584  14.599  1.7222 -0.7371  1.7052
 5790TIP3    H238862   6.182   4.724  14.654 -0.2486  0.4979 -0.5993
 5791TIP3   OH238863   2.323   6.058   3.846 -0.3461  0.3411 -0.2629
 5791TIP3    H138864   2.271   6.005   3.906  0.5803 -0.5958 -0.2496
 5791TIP3    H238865   2.291   6.147   3.858 -0.6535  0.0691  1.1170
 5792TIP3   OH238866   2.187   4.283   6.017  0.2677  0.1141 -0.1644
 5792TIP3    H138867   2.230   4.258   5.935 -2.1379 -0.8625 -1.2369
 5792TIP3    H238868   2.245   4.252   6.086  0.9269 -1.8095 -1.5143
 5793TIP3   OH238869   3.294   4.434  14.432  0.0554  0.8700 -0.2758
 5793TIP3    H138870   3.389   4.419  14.435 -0.0104  0.2724 -0.8800
 5793TIP3    H238871   3.285   4.517  14.385  0.3018  1.2995  0.4164
 5794TIP3   OH238872   4.515   0.509   2.582 -0.2248 -0.1449 -0.0806
 5794TIP3    H138873   4.520   0.575   2.651 -1.0293 -0.8261  0.6497
 5794TIP3    H238874   4.606   0.497   2.553  0.0716  0.4115  0.6139
 5795TIP3   OH238875   2.245   1.820  15.560 -0.3221 -0.2974 -0.0250
 5795TIP3    H138876   2.248   1.835  15.654  1.5254 -0.1196 -0.0822
 5795TIP3    H238877   2.169   1.870  15.530 -0.0941  0.7963  1.1600
 5796TIP3   OH238878   3.188   1.879  10.379  0.2470 -0.1304  0.1236
 5796TIP3    H138879   3.153   1.959  10.340 -0.0309 -1.5341 -2.7527
 5796TIP3    H238880   3.282   1.883  10.363  0.2216 -0.4039 -0.1072
 5797TIP3   OH238881   5.361   2.336  14.066 -0.4898 -0.1351  0.1798
 5797TIP3    H138882   5.325   2.331  14.154 -3.1687 -0.5749 -0.8343
 5797TIP3    H238883   5.450   2.302  14.074 -0.0928  1.2277  2.9290
 5798TIP3   OH238884   3.033   5.756   3.540 -0.2062 -0.1652  0.1677
 5798TIP3    H138885   2.952   5.707   3.526 -0.6554  1.0295 -1.9179
 5798TIP3    H238886   3.004   5.837   3.582  0.1280 -0.3747  0.8116
 5799TIP3   OH238887   0.752   2.255  11.834 -0.4423  0.2574 -0.3829
 5799TIP3    H138888   0.756   2.335  11.780 -1.0921  0.3017 -0.3811
 5799TIP3    H238889   0.663   2.223  11.821 -0.8240  0.6090  1.1486
 5800TIP3   OH238890   6.026   1.188   2.534 -0.0440 -0.3016 -0.8070
 5800TIP3    H138891   6.055   1.210   2.622  0.5870  0.7011 -1.2423
 5800TIP3    H238892   6.076   1.109   2.511  0.2594 -0.2015 -0.4981
 5801TIP3   OH238893   5.157   5.360   3.305 -0.4133 -0.0520  0.0401
 5801TIP3    H138894   5.113   5.379   3.222 -0.3963 -0.6743 -0.1198
 5801TIP3    H238895   5.221   5.430   3.316 -0.2399 -0.1043 -0.6049
 5802TIP3   OH238896   4.689   4.776   6.598 -0.5618 -0.1150 -0.1804
 5802TIP3    H138897   4.604   4.775   6.643 -0.5186  0.5969 -0.0753
 5802TIP3    H238898   4.668   4.797   6.507 -0.8107 -3.0480 -0.8935
 5803TIP3   OH238899   0.226   6.733   6.086  0.1000 -0.0937 -0.1601
 5803TIP3    H138900   0.131   6.730   6.101  0.2599 -0.6286  0.8793
 5803TIP3    H238901   0.264   6.709   6.171  1.1495 -1.5863 -1.0131
 5804TIP3   OH238902   2.590   1.304  17.094  0.2189 -0.5309 -0.3472
 5804TIP3    H138903   2.511   1.252  17.080 -1.0004  1.1936 -0.0924
 5804TIP3    H238904   2.601   1.355  17.014  0.8629 -0.4844 -0.2357
 5805TIP3   OH238905   3.544   2.933  11.325  0.2114  0.0520 -0.4295
 5805TIP3    H138906   3.552   2.961  11.416 -0.3402 -1.1072 -0.0079
 5805TIP3    H238907   3.630   2.895  11.304  0.4383  0.5902 -0.5026
 5806TIP3   OH238908   1.362   5.970   2.109  0.2682  0.1468  0.6463
 5806TIP3    H138909   1.457   5.967   2.093  0.1856 -0.3707  0.2513
 5806TIP3    H238910   1.335   6.055   2.075  0.7761  0.7982  1.8050
 5807TIP3   OH238911   1.213   0.902  14.770  0.3645  0.0884 -0.1135
 5807TIP3    H138912   1.226   0.884  14.677  2.0315  0.7545 -0.0529
 5807TIP3    H238913   1.160   0.982  14.773 -0.3795 -0.3832 -0.4617
 5808TIP3   OH238914   5.640   4.792  17.012  0.0768 -0.5426 -0.0176
 5808TIP3    H138915   5.570   4.842  16.969  0.2652  0.1007  0.4052
 5808TIP3    H238916   5.631   4.813  17.105  0.1554 -1.3177  0.1642
 5809TIP3   OH238917   5.829   4.842   5.151 -0.0021  0.5385  0.7843
 5809TIP3    H138918   5.889   4.772   5.177  0.0155 -0.1485 -0.9552
 5809TIP3    H238919   5.746   4.818   5.192  0.4482  0.4851  1.6826
 5810TIP3   OH238920   0.432   3.811   3.705 -0.3064 -0.5786 -0.6578
 5810TIP3    H138921   0.412   3.719   3.722  0.2440 -0.3274  1.7841
 5810TIP3    H238922   0.388   3.859   3.775  4.5374  0.3780  2.2340
 5811TIP3   OH238923   3.710   4.827  15.321  0.1382 -0.0877 -0.0539
 5811TIP3    H138924   3.702   4.773  15.399 -3.4846  0.3230  0.0411
 5811TIP3    H238925   3.709   4.765  15.248 -0.7355 -0.3207  0.1454
 5812TIP3   OH238926   5.984   2.453  13.039  0.0350  0.1340  0.1723
 5812TIP3    H138927   5.946   2.504  13.111  0.6262  2.5972 -1.1636
 5812TIP3    H238928   5.908   2.417  12.993 -0.4983  1.1698  0.2075
 5813TIP3   OH238929   1.498   4.977  15.133 -0.6486 -0.3111  0.2989
 5813TIP3    H138930   1.449   4.901  15.104  1.1604 -1.5429  0.3338
 5813TIP3    H238931   1.583   4.942  15.162  0.7359  1.8222 -0.8710
 5814TIP3   OH238932   1.010   4.571  15.578 -0.0237 -0.0664 -0.0842
 5814TIP3    H138933   1.003   4.591  15.484  0.1193 -0.4565 -0.1796
 5814TIP3    H238934   1.068   4.639  15.613 -0.8925  0.6977 -0.0817
 5815TIP3   OH238935   4.062   0.366  12.951  0.1460 -0.6445 -0.2086
 5815TIP3    H138936   4.124   0.406  12.891 -1.4447  1.1769 -0.7395
 5815TIP3    H238937   4.076   0.413  13.034 -1.9620  1.4239 -0.9238
 5816TIP3   OH238938   4.191   6.762  16.403 -0.6397 -0.6208 -0.2428
 5816TIP3    H138939   4.229   6.677  16.427 -1.5694 -1.0563 -0.2493
 5816TIP3    H238940   4.262   6.825  16.418  0.2890 -1.4769 -0.9085
 5817TIP3   OH238941   1.699   5.178  16.960 -0.2453 -0.4854 -0.1305
 5817TIP3    H138942   1.721   5.185  17.053  1.9722 -1.5483 -0.5038
 5817TIP3    H238943   1.607   5.206  16.955  0.4796  2.8267  1.8658
 5818TIP3   OH238944   6.811   2.455   4.684  0.1187 -0.0810 -0.3131
 5818TIP3    H138945   6.787   2.460   4.777  1.9111  2.1628  0.1427
 5818TIP3    H238946   6.892   2.403   4.683 -0.1407 -0.4787 -0.6784
 5819TIP3   OH238947   4.087   2.328  15.539  0.2702 -0.3638  0.3329
 5819TIP3    H138948   4.129   2.242  15.540 -2.3992 -1.7800  0.8125
 5819TIP3    H238949   4.067   2.344  15.447 -1.0811 -1.2911  0.4395
 5820TIP3   OH238950   1.585   5.782  12.587 -0.3403  0.2545 -0.1399
 5820TIP3    H138951   1.509   5.739  12.627 -0.4672  0.5373 -0.0707
 5820TIP3    H238952   1.633   5.711  12.544 -1.0482  0.1716 -0.8251
 5821TIP3   OH238953   1.571   3.369  13.473  0.2953 -0.3283  0.2386
 5821TIP3    H138954   1.599   3.416  13.552 -0.9566  0.8447  0.0252
 5821TIP3    H238955   1.640   3.387  13.409  0.2115  0.6002  0.3978
 5822TIP3   OH238956   3.695   2.052   1.494 -0.1111  1.5608  0.9895
 5822TIP3    H138957   3.765   2.009   1.542 -0.0823  2.0594  1.4069
 5822TIP3    H238958   3.644   1.981   1.456  0.5736  1.1926  0.7467
 5823TIP3   OH238959   4.293   3.520   3.289 -0.0486 -0.2453  0.6738
 5823TIP3    H138960   4.258   3.454   3.349  0.9653 -0.9775  0.4792
 5823TIP3    H238961   4.335   3.469   3.220  1.0577  0.6093  0.7008
 5824TIP3   OH238962   1.689   2.991   0.109 -0.1787  0.3952 -0.0539
 5824TIP3    H138963   1.601   2.959   0.090  0.4101 -0.2341 -1.8420
 5824TIP3    H238964   1.701   3.066   0.051 -0.1754  1.6622  1.5025
 5825TIP3   OH238965   3.790   4.173  11.238  0.4735  0.0073 -0.2881
 5825TIP3    H138966   3.865   4.228  11.213  0.5984 -0.3220 -0.6590
 5825TIP3    H238967   3.819   4.084  11.218  0.2408 -0.1833  0.2305
 5826TIP3   OH238968   1.896   5.224   6.591  0.3312  0.2184  0.1257
 5826TIP3    H138969   1.801   5.214   6.591  0.3757 -0.5531 -1.5830
 5826TIP3    H238970   1.929   5.135   6.574  1.2815  0.7550 -0.9720
 5827TIP3   OH238971   2.264   5.832   4.708  0.0943 -0.3499 -0.0506
 5827TIP3    H138972   2.293   5.786   4.629 -1.3037 -0.7647 -0.3421
 5827TIP3    H238973   2.189   5.884   4.679  0.0138  0.0561  0.8631
 5828TIP3   OH238974   0.798   3.508  13.846  0.5206 -0.3503 -0.5585
 5828TIP3    H138975   0.764   3.471  13.928 -0.3345  0.0278 -0.7255
 5828TIP3    H238976   0.724   3.501  13.785  1.3111 -1.1095 -1.4628
 5829TIP3   OH238977   5.117   0.924  16.711 -0.7889  0.7183 -0.3537
 5829TIP3    H138978   5.042   0.883  16.753  0.4402 -1.7886 -0.4160
 5829TIP3    H238979   5.081   0.960  16.630 -2.0021 -0.1708 -0.2519
 5830TIP3   OH238980   3.194   5.735   2.233  0.5802 -0.0267 -0.1622
 5830TIP3    H138981   3.120   5.737   2.294 -0.2188 -0.7070 -1.0724
 5830TIP3    H238982   3.195   5.822   2.194  0.3873  0.0603  0.0257
 5831TIP3   OH238983   5.819   4.457   0.064 -0.2644  0.2933 -0.0661
 5831TIP3    H138984   5.801   4.546   0.036  0.5569  0.0988 -1.2941
 5831TIP3    H238985   5.740   4.408   0.041 -0.7052  0.6797  0.5870
 5832TIP3   OH238986   3.843   1.133  16.613 -0.1912  0.2342 -0.3022
 5832TIP3    H138987   3.802   1.217  16.596 -0.2217  0.2760 -0.0251
 5832TIP3    H238988   3.771   1.075  16.637  0.0182  0.6325  1.4711
 5833TIP3   OH238989   3.411   6.150   5.794 -0.4566 -0.8364 -0.0832
 5833TIP3    H138990   3.447   6.208   5.727  0.7765 -1.0059  0.4096
 5833TIP3    H238991   3.330   6.117   5.755 -1.4633  1.5576 -0.1854
 5834TIP3   OH238992   0.626   0.858   1.403 -0.1449  0.2206 -0.4606
 5834TIP3    H138993   0.680   0.921   1.356 -2.2207  1.8831 -0.7587
 5834TIP3    H238994   0.591   0.801   1.335  1.6827 -1.3259 -0.1971
 5835TIP3   OH238995   1.857   6.642   0.676  0.0027  0.1500 -0.5779
 5835TIP3    H138996   1.806   6.623   0.754  1.5486  1.3724  0.7871
 5835TIP3    H238997   1.899   6.726   0.693 -0.5923  1.1124 -3.2603
 5836TIP3   OH238998   4.210   3.899   3.483  0.6809 -0.2254  0.3705
 5836TIP3    H138999   4.212   3.832   3.414  2.6710  0.1210  0.0496
 5836TIP3    H239000   4.169   3.975   3.441  0.4716 -0.5040  0.0601
 5837TIP3   OH239001   3.473   2.852  15.185  0.4502  0.3443  0.6371
 5837TIP3    H139002   3.533   2.915  15.224  0.4681  0.4530  0.4372
 5837TIP3    H239003   3.517   2.768  15.195  0.2855  0.3198  1.1871
 5838TIP3   OH239004   2.366   4.466  13.669 -0.1565 -0.0776  0.0022
 5838TIP3    H139005   2.335   4.432  13.585  1.0924 -1.0339 -0.0891
 5838TIP3    H239006   2.355   4.561  13.662 -0.3892 -0.1786 -1.1061
 5839TIP3   OH239007   2.549   4.030  11.700 -0.5283 -0.0440  0.3784
 5839TIP3    H139008   2.561   3.946  11.744  0.7753 -0.2094 -0.2403
 5839TIP3    H239009   2.568   4.096  11.766  2.4864 -0.2886 -0.1146
 5840TIP3   OH239010   4.400   0.723  11.857 -0.1529  0.4726 -0.0960
 5840TIP3    H139011   4.434   0.634  11.861  0.4440  0.6159 -1.5328
 5840TIP3    H239012   4.320   0.716  11.804 -0.0619  0.7995 -0.2801
 5841TIP3   OH239013   6.287   1.651  14.609 -0.6225 -0.1056  0.1713
 5841TIP3    H139014   6.370   1.612  14.583 -0.7549 -0.9765  1.0197
 5841TIP3    H239015   6.269   1.716  14.540  2.1147  2.1180  1.3193
 5842TIP3   OH239016   4.118   5.342   5.946 -0.0912 -0.0219  0.4648
 5842TIP3    H139017   4.156   5.280   5.884  0.9307  0.7170  0.3431
 5842TIP3    H239018   4.177   5.340   6.022  0.3447  1.3051  0.1811
 5843TIP3   OH239019   0.739   5.841   5.232 -0.5455  0.4943 -0.1976
 5843TIP3    H139020   0.672   5.874   5.292  0.2948  1.3060  0.3020
 5843TIP3    H239021   0.705   5.862   5.144 -1.5645 -0.3003 -0.0255
 5844TIP3   OH239022   1.827   0.079  14.722 -1.0373  0.0234 -0.1209
 5844TIP3    H139023   1.762   0.141  14.688  0.6581  1.4073 -0.9789
 5844TIP3    H239024   1.910   0.126  14.717 -0.0626 -1.3337  1.8443
 5845TIP3   OH239025   2.771   3.902  13.296 -0.1570  0.8414 -0.6591
 5845TIP3    H139026   2.675   3.906  13.296 -0.2453 -0.6663 -0.0052
 5845TIP3    H239027   2.792   3.823  13.247  0.5521 -0.9488  2.2600
 5846TIP3   OH239028   5.715   6.824  10.638  0.1079 -0.9812  1.5211
 5846TIP3    H139029   5.688   6.758  10.574  0.5384 -0.8073  1.1554
 5846TIP3    H239030   5.768   6.776  10.701  1.4175 -0.7880  0.6055
 5847TIP3   OH239031   4.166   6.563   3.138  0.2330 -0.2815  0.3057
 5847TIP3    H139032   4.202   6.576   3.050  2.1178 -0.8831  0.9412
 5847TIP3    H239033   4.203   6.634   3.190 -1.3250  0.4105  0.5347
 5848TIP3   OH239034   6.068   0.929  15.799 -0.1181  0.3099 -0.0354
 5848TIP3    H139035   6.081   0.995  15.867 -0.8443  1.3696 -0.8901
 5848TIP3    H239036   6.011   0.863  15.840  0.5567  0.2230  0.8026
 5849TIP3   OH239037   5.932   6.070  13.171 -0.0486  0.3588  0.0770
 5849TIP3    H139038   6.015   6.023  13.156  0.4845  0.8143  1.4220
 5849TIP3    H239039   5.891   6.023  13.243 -1.5587 -0.5646 -1.3273
 5850TIP3   OH239040   5.131   0.339   5.962  0.3048  0.1062 -0.0071
 5850TIP3    H139041   5.053   0.289   5.986 -0.5573  0.3404 -2.1422
 5850TIP3    H239042   5.103   0.396   5.891  2.1392  1.0954 -0.0149
 5851TIP3   OH239043   3.978   5.006   4.625  0.6008 -0.2387 -0.2502
 5851TIP3    H139044   3.947   5.097   4.620 -1.8010 -0.6417  3.1951
 5851TIP3    H239045   4.072   5.013   4.639  0.3309  1.8592  0.9896
 5852TIP3   OH239046   0.945   5.047  11.183 -0.6061 -0.3880 -0.2774
 5852TIP3    H139047   0.933   4.953  11.166 -1.7246 -0.0009 -1.7665
 5852TIP3    H239048   0.856   5.083  11.181 -0.2866  0.5850  1.2550
 5853TIP3   OH239049   6.600   2.557  17.050  0.3531 -0.3748  0.5053
 5853TIP3    H139050   6.644   2.614  17.113  0.0048 -0.0016  0.4122
 5853TIP3    H239051   6.551   2.495  17.104 -2.5234  1.8594  0.6904
 5854TIP3   OH239052   2.323   0.104  10.690 -0.4910 -0.0012 -0.3668
 5854TIP3    H139053   2.391   0.082  10.626 -0.0751 -0.0448  0.0836
 5854TIP3    H239054   2.371   0.133  10.767 -0.9203 -1.9185  0.6820
 5855TIP3   OH239055   5.677   1.220   0.248  0.3415 -0.1661 -0.4799
 5855TIP3    H139056   5.597   1.177   0.278  0.8770 -0.0448  1.2004
 5855TIP3    H239057   5.739   1.149   0.235  0.9324 -0.0486  1.3822
 5856TIP3   OH239058   2.909   3.744   2.837 -0.0478  0.3499 -0.0168
 5856TIP3    H139059   2.987   3.799   2.841  0.6080 -0.2690 -2.3674
 5856TIP3    H239060   2.841   3.802   2.802 -0.1677  0.4260  0.3388
 5857TIP3   OH239061   0.055   1.377  16.891  0.1189 -0.3314 -0.0744
 5857TIP3    H139062   0.037   1.471  16.887  0.3343 -0.2903 -0.0507
 5857TIP3    H239063   0.004   1.340  16.818  2.4112  0.1658 -2.0461
 5858TIP3   OH239064   5.501   2.327  12.310 -0.3483 -0.2171  0.4760
 5858TIP3    H139065   5.446   2.249  12.319  0.3257 -0.7856 -0.1605
 5858TIP3    H239066   5.490   2.354  12.219 -1.9895  1.5436  1.1350
 5859TIP3   OH239067   6.812   2.281   5.723 -0.3219 -0.1372  0.4968
 5859TIP3    H139068   6.893   2.244   5.757  0.3230 -1.5063 -2.2102
 5859TIP3    H239069   6.751   2.208   5.723 -0.6583  0.1338 -0.1110
 5860TIP3   OH239070   5.484   3.870   5.767  0.2305  0.0610 -0.0416
 5860TIP3    H139071   5.438   3.927   5.705 -1.3067  0.4372  1.3842
 5860TIP3    H239072   5.500   3.789   5.718 -1.2393  0.2266 -0.8485
 5861TIP3   OH239073   1.764   5.614  12.459 -0.7191  0.2823 -0.6944
 5861TIP3    H139074   1.804   5.660  12.386  0.7245 -1.9093 -1.3919
 5861TIP3    H239075   1.732   5.532  12.421 -2.4464  0.2625  0.6339
 5862TIP3   OH239076   0.536   4.789   5.301  0.3353 -0.3673  0.1517
 5862TIP3    H139077   0.557   4.832   5.218 -1.3254 -2.4404 -1.4158
 5862TIP3    H239078   0.592   4.712   5.303  0.3205 -0.3652  0.9612
 5863TIP3   OH239079   2.033   4.950  16.995 -0.2743  0.3050  0.3182
 5863TIP3    H139080   1.982   4.875  17.025  0.7774 -0.6724 -0.2352
 5863TIP3    H239081   2.079   4.981  17.074  0.2907 -0.4647  0.3008
 5864TIP3   OH239082   4.038   2.210  15.833  0.2798  0.0035 -0.3118
 5864TIP3    H139083   4.110   2.153  15.805  0.1004 -0.3573 -0.0442
 5864TIP3    H239084   4.066   2.244  15.918 -0.1269 -0.6119  0.0728
 5865TIP3   OH239085   1.412   1.063   0.793  0.1631  0.4229  0.0593
 5865TIP3    H139086   1.394   1.115   0.715  0.1037 -0.1966 -0.3450
 5865TIP3    H239087   1.486   1.107   0.834  1.1281 -0.0644 -1.1129
 5866TIP3   OH239088   1.664   1.081  13.758 -0.5135  0.1052 -0.4254
 5866TIP3    H139089   1.726   1.130  13.812  0.4551 -0.7792 -0.6874
 5866TIP3    H239090   1.641   1.005  13.812 -0.4851 -0.1491 -0.7673
 5867TIP3   OH239091   6.752   2.404  11.804 -0.5737 -0.2756  0.2812
 5867TIP3    H139092   6.730   2.486  11.847 -1.3101 -0.5902  0.5228
 5867TIP3    H239093   6.720   2.413  11.715 -1.1759 -0.5149  0.4704
 5868TIP3   OH239094   4.968   1.148  16.542 -1.0292 -0.5176  0.1585
 5868TIP3    H139095   4.892   1.196  16.576 -0.4025  1.7215 -1.3268
 5868TIP3    H239096   5.043   1.193  16.580 -0.4016  0.0769 -1.6760
 5869TIP3   OH239097   1.066   4.860  11.719  0.2967 -0.6920  0.4793
 5869TIP3    H139098   1.012   4.922  11.672  0.3029 -1.0419 -0.0026
 5869TIP3    H239099   1.005   4.811  11.774  0.4091  0.3417  1.5534
 5870TIP3   OH239100   6.348   4.544   0.304 -0.0273 -0.0196  0.6760
 5870TIP3    H139101   6.438   4.531   0.274 -0.4047  0.6338 -0.8902
 5870TIP3    H239102   6.297   4.551   0.223 -1.0117  2.8587  1.4227
 5871TIP3   OH239103   1.957   5.316   0.220  0.6005  0.1714 -0.3357
 5871TIP3    H139104   1.908   5.261   0.160 -0.1464 -1.8070  1.9416
 5871TIP3    H239105   2.024   5.358   0.166 -1.2829  0.0982 -2.8519
 5872TIP3   OH239106   6.716   6.487  12.551  0.0264 -0.6446 -0.3213
 5872TIP3    H139107   6.668   6.484  12.634  0.7407 -0.8216  0.0977
 5872TIP3    H239108   6.675   6.558  12.502 -0.5804 -0.7125  0.0729
 5873TIP3   OH239109   0.026   3.891  16.577 -0.2287 -0.6104  0.1705
 5873TIP3    H139110  -0.027   3.829  16.528 -1.1810  0.1405  0.2135
 5873TIP3    H239111  -0.038   3.947  16.622  0.5614 -1.8617  3.0645
 5874TIP3   OH239112   5.855   5.035  11.399 -0.5946  0.5087 -0.3837
 5874TIP3    H139113   5.839   5.029  11.305 -1.4931 -0.4538 -0.1994
 5874TIP3    H239114   5.890   4.949  11.423 -2.5659 -0.1062  0.5123
 5875TIP3   OH239115   3.339   5.642  13.418 -0.1163 -0.0715  0.5355
 5875TIP3    H139116   3.320   5.735  13.429 -0.3273 -0.1906  1.2040
 5875TIP3    H239117   3.261   5.597  13.451 -0.9335 -0.4630 -1.7309
 5876TIP3   OH239118   2.638   4.422  13.478  0.3424  0.2247  0.1157
 5876TIP3    H139119   2.677   4.507  13.456 -0.8783  1.6088  2.8600
 5876TIP3    H239120   2.696   4.386  13.546  0.5316 -0.9558 -0.6204
 5877TIP3   OH239121   5.301   4.717   3.616 -0.3930  0.1846 -0.1001
 5877TIP3    H139122   5.213   4.754   3.628 -0.2375  0.2032  1.1433
 5877TIP3    H239123   5.351   4.749   3.691  0.0677 -1.5774  0.3976
 5878TIP3   OH239124   5.255   4.906   2.922  0.6514  0.1179  0.2178
 5878TIP3    H139125   5.199   4.836   2.890 -0.7961  1.1698  0.3405
 5878TIP3    H239126   5.228   4.921   3.012  1.3569  0.4456  0.3890
 5879TIP3   OH239127   4.943   5.662  16.887  0.0515 -0.0888  0.4688
 5879TIP3    H139128   4.894   5.730  16.934  0.4336 -0.2546  1.1193
 5879TIP3    H239129   5.033   5.671  16.919  0.6685  0.7707 -1.3299
 5880TIP3   OH239130   5.041   3.144  14.985 -0.1216 -0.2930  0.4231
 5880TIP3    H139131   5.041   3.164  14.891  1.5310 -1.1304  0.2089
 5880TIP3    H239132   4.952   3.113  15.004 -0.6686  0.5216 -0.7035
 5881TIP3   OH239133   5.297   4.536  15.470 -0.0002 -0.4451  0.0897
 5881TIP3    H139134   5.331   4.547  15.381  0.4469  1.0885  0.4353
 5881TIP3    H239135   5.215   4.584  15.470  0.1418 -0.1980  0.5821
 5882TIP3   OH239136   0.123   2.218  12.973  0.1805  0.1762  0.3035
 5882TIP3    H139137   0.124   2.213  12.877  2.4799  0.7999  0.2372
 5882TIP3    H239138   0.189   2.284  12.994  1.0124 -1.2164  2.3638
 5883TIP3   OH239139   4.909   6.768   4.922 -1.2391 -0.3585 -0.0807
 5883TIP3    H139140   4.916   6.817   4.840  0.9049  0.4973  0.5649
 5883TIP3    H239141   4.971   6.696   4.912 -1.4359 -0.6265  0.5655
 5884TIP3   OH239142   0.055   0.981  11.930  0.3011 -0.0637 -0.8327
 5884TIP3    H139143   0.108   0.920  11.879 -0.6129  0.2761 -2.2625
 5884TIP3    H239144   0.097   0.983  12.016 -0.1390 -3.4068 -0.3858
 5885TIP3   OH239145   4.582   1.082  16.948  0.2910 -0.1550 -0.3489
 5885TIP3    H139146   4.672   1.088  16.981  0.8219 -0.0903 -1.7335
 5885TIP3    H239147   4.545   1.169  16.964  1.3648  0.6932 -2.1175
 5886TIP3   OH239148   5.306   5.996  14.810 -0.0276 -0.1898  0.5178
 5886TIP3    H139149   5.284   6.086  14.835  0.5171  0.0180  0.2849
 5886TIP3    H239150   5.305   5.947  14.892 -3.4198 -0.6946  0.3054
 5887TIP3   OH239151   2.111   4.315   1.773  0.7052  0.2408 -0.2310
 5887TIP3    H139152   2.065   4.380   1.720 -1.5619 -1.5005 -0.5461
 5887TIP3    H239153   2.160   4.367   1.837  1.3668  2.3092 -2.3011
 5888TIP3   OH239154   2.047   3.140  11.876 -0.1463  0.0191  0.7702
 5888TIP3    H139155   2.032   3.232  11.854 -0.0886 -0.2787 -0.5834
 5888TIP3    H239156   1.971   3.114  11.927 -0.5035  0.6296  0.5550
 5889TIP3   OH239157   6.536   6.329   0.227 -0.1137  0.5806  0.1633
 5889TIP3    H139158   6.583   6.309   0.308 -0.6659  0.0776  0.3687
 5889TIP3    H239159   6.513   6.243   0.191  1.3769  0.7504 -1.2820
 5890TIP3   OH239160   6.692   4.979  13.040 -0.0051 -0.0019 -0.6341
 5890TIP3    H139161   6.676   4.946  12.952 -0.8600  0.2292 -0.5795
 5890TIP3    H239162   6.672   5.073  13.035  2.0100  0.4734 -0.6950
 5891TIP3   OH239163   0.608   6.723  13.866 -0.0419 -0.0236 -0.3047
 5891TIP3    H139164   0.571   6.687  13.785  0.7686  0.1621 -0.7647
 5891TIP3    H239165   0.534   6.764  13.910 -0.4162  0.2215 -1.1418
 5892TIP3   OH239166   2.307   6.779   1.646 -0.2359 -0.1671 -0.1854
 5892TIP3    H139167   2.386   6.788   1.594 -0.2946  0.6431 -0.1469
 5892TIP3    H239168   2.246   6.844   1.611 -0.2938  0.3651  0.8384
 5893TIP3   OH239169   5.321   3.239  17.185 -0.1117  0.3632  0.0394
 5893TIP3    H139170   5.339   3.331  17.166 -0.3356  0.3370 -0.3163
 5893TIP3    H239171   5.337   3.193  17.103  1.2917 -0.1154  0.5473
 5894TIP3   OH239172   2.598   0.667   3.087  0.1352  0.4675  0.3650
 5894TIP3    H139173   2.612   0.578   3.118  2.0751  0.0745 -1.3615
 5894TIP3    H239174   2.582   0.657   2.993  0.1419  1.9210  0.1868
 5895TIP3   OH239175   1.086   5.022  13.647  0.7227  0.0106 -0.3126
 5895TIP3    H139176   1.023   5.046  13.579  0.9109 -0.6741 -0.7302
 5895TIP3    H239177   1.129   4.943  13.614  0.8127 -0.3357  0.6005
 5896TIP3   OH239178   5.826   3.441  15.964  0.0833 -0.2327  0.0213
 5896TIP3    H139179   5.739   3.473  15.940  0.4831  0.4746 -0.5245
 5896TIP3    H239180   5.881   3.460  15.887  0.6199 -1.0906  0.1768
 5897TIP3   OH239181   0.134   1.484  11.143  0.1352  0.1140  0.8124
 5897TIP3    H139182   0.113   1.572  11.175  0.0311  0.1875  0.5500
 5897TIP3    H239183   0.050   1.447  11.118  0.3513  0.7244 -1.0481
 5898TIP3   OH239184   6.549   0.748  13.018 -0.0379 -0.3181  0.3162
 5898TIP3    H139185   6.630   0.700  13.000  1.0993  0.1929  3.5508
 5898TIP3    H239186   6.503   0.695  13.083 -0.8579  0.8555  0.7296
 5899TIP3   OH239187   4.683   3.587   3.675 -0.1098 -0.1315  0.2428
 5899TIP3    H139188   4.638   3.562   3.755 -0.6696  3.1050  1.0730
 5899TIP3    H239189   4.616   3.581   3.607 -0.7533  0.9410  0.7685
 5900TIP3   OH239190   0.438   0.861  13.130 -0.4021 -0.2497  0.3312
 5900TIP3    H139191   0.371   0.927  13.112  0.2630  0.1165 -0.8680
 5900TIP3    H239192   0.512   0.886  13.075  0.8973 -0.4090  1.9127
 5901TIP3   OH239193   5.331   4.906  11.266 -0.4987  0.0815  0.1909
 5901TIP3    H139194   5.273   4.837  11.297  0.7783 -1.0945  0.0307
 5901TIP3    H239195   5.354   4.955  11.345  0.1719 -0.9205  0.6395
 5902TIP3   OH239196   0.812   5.804  15.138  0.6895 -0.1556 -0.1000
 5902TIP3    H139197   0.822   5.839  15.227  1.2521 -0.1057 -0.1774
 5902TIP3    H239198   0.880   5.737  15.131 -0.9260 -1.9367  0.3599
 5903TIP3   OH239199   5.007   6.468   2.441  0.1850 -0.4341 -0.1052
 5903TIP3    H139200   4.984   6.495   2.530 -0.9446  2.4093 -1.1344
 5903TIP3    H239201   4.935   6.411   2.414 -1.4606  1.6246 -0.3640
 5904TIP3   OH239202   0.918   6.766  14.681 -0.1893  0.0165 -0.2797
 5904TIP3    H139203   0.892   6.825  14.752  0.9028  0.0086  0.1351
 5904TIP3    H239204   0.870   6.800  14.604 -0.7449  0.5198  0.2716
 5905TIP3   OH239205   0.759   2.216   2.181  0.9509 -0.0207 -0.2086
 5905TIP3    H139206   0.813   2.138   2.165  0.4907 -0.4270  0.1669
 5905TIP3    H239207   0.669   2.182   2.179  0.7123  0.6226 -0.7058
 5906TIP3   OH239208   5.115   3.315   3.089 -0.0932  0.9005 -0.3780
 5906TIP3    H139209   5.028   3.355   3.081 -0.4003  0.1584 -0.7703
 5906TIP3    H239210   5.099   3.221   3.085  0.4572  0.6387  2.0983
 5907TIP3   OH239211   6.042   0.106   4.010 -0.6174  0.7877 -0.2253
 5907TIP3    H139212   5.990   0.041   3.963 -1.7145  2.1172 -0.9129
 5907TIP3    H239213   6.005   0.107   4.099  0.0294 -0.1551  0.0842
 5908TIP3   OH239214   6.152   1.459  12.041  0.8348 -0.3579 -0.0689
 5908TIP3    H139215   6.133   1.544  12.002 -1.4387  0.6463  2.8170
 5908TIP3    H239216   6.245   1.462  12.062  0.7193  1.5834  0.3255
 5909TIP3   OH239217   5.815   1.459  16.903  0.0392 -0.1157  0.0370
 5909TIP3    H139218   5.867   1.497  16.974  1.5242  1.4021 -1.7814
 5909TIP3    H239219   5.867   1.385  16.872  0.9354  1.0903 -1.4425
 5910TIP3   OH239220   4.677   1.546  11.659 -0.2385  0.1307  0.3512
 5910TIP3    H139221   4.654   1.601  11.735  1.4746  2.5207 -0.7182
 5910TIP3    H239222   4.630   1.586  11.586 -1.7386 -2.0504  0.0418
 5911TIP3   OH239223   5.350   3.427  13.017  0.1743  0.0968 -0.0302
 5911TIP3    H139224   5.379   3.337  13.003  0.1708  0.1843 -0.6120
 5911TIP3    H239225   5.320   3.429  13.108 -0.0830 -0.5589 -0.1023
 5912TIP3   OH239226   3.341   1.551  10.402 -0.1578  0.1813  0.3730
 5912TIP3    H139227   3.285   1.610  10.352  1.3377  1.7043  0.4071
 5912TIP3    H239228   3.306   1.464  10.384 -2.6031  1.0428  0.5249
 5913TIP3   OH239229   6.516   3.494  12.049  0.0158  0.0995  0.1192
 5913TIP3    H139230   6.425   3.476  12.026  0.3018 -0.7401 -0.4065
 5913TIP3    H239231   6.527   3.587  12.034 -1.0239  0.4080  1.1436
 5914TIP3   OH239232   5.323   5.254   2.865  0.0476  0.7132 -0.2873
 5914TIP3    H139233   5.368   5.269   2.948  0.2231 -1.2840  0.0289
 5914TIP3    H239234   5.251   5.195   2.886 -0.3037  0.6997 -1.4337
 5915TIP3   OH239235   4.299   4.559   2.580  0.0239  0.0494  0.9328
 5915TIP3    H139236   4.307   4.605   2.664  0.0114  1.4511  0.2037
 5915TIP3    H239237   4.290   4.629   2.516 -1.2985 -1.0180 -0.1062
 5916TIP3   OH239238   3.452   0.685  14.174  0.0335 -0.2689  0.6840
 5916TIP3    H139239   3.498   0.608  14.138  1.7130 -0.5201  3.1148
 5916TIP3    H239240   3.367   0.684  14.131  1.3538 -1.2603 -2.2091
 5917TIP3   OH239241   0.032   0.056  15.931 -0.1355 -0.3132  0.0766
 5917TIP3    H139242   0.063   0.124  15.871 -0.3543  1.6213  2.0549
 5917TIP3    H239243   0.050  -0.026  15.885 -0.7253  1.0616 -2.8079
 5918TIP3   OH239244   6.277   4.000  16.271 -0.0413 -0.2541  0.1379
 5918TIP3    H139245   6.317   3.936  16.330 -0.3068 -1.2391 -0.7173
 5918TIP3    H239246   6.258   4.075  16.327 -1.3281 -1.5787  1.5839
 5919TIP3   OH239247   2.308   6.181   1.209  0.3597  0.1060  0.4234
 5919TIP3    H139248   2.358   6.227   1.277 -0.1338  2.4728 -0.6971
 5919TIP3    H239249   2.221   6.170   1.247  1.0154 -1.8348  1.4673
 5920TIP3   OH239250   5.958   2.814   0.084 -0.0747 -0.7616 -0.9241
 5920TIP3    H139251   5.947   2.886   0.022  1.7145  0.2016 -0.1808
 5920TIP3    H239252   5.898   2.834   0.155  1.6313  0.9992  0.1069
 5921TIP3   OH239253   0.636   2.918  13.122  0.1303 -0.6689  0.3662
 5921TIP3    H139254   0.635   2.972  13.201 -0.5693 -0.8064  0.4555
 5921TIP3    H239255   0.574   2.848  13.140  0.4403 -1.0557 -0.0615
 5922TIP3   OH239256   6.026   3.860  17.199 -0.2825 -0.5166  0.5775
 5922TIP3    H139257   6.105   3.854  17.146 -1.0374  1.3969 -0.8701
 5922TIP3    H239258   6.032   3.945  17.242 -1.8714  0.0030 -0.1586
 5923TIP3   OH239259   2.740   4.975   1.243  0.3771 -0.6062  0.8326
 5923TIP3    H139260   2.710   4.885   1.252 -0.6546 -0.2358  1.3286
 5923TIP3    H239261   2.779   4.996   1.328  1.5202 -0.8884  0.3902
 5924TIP3   OH239262   6.419   0.562  13.172 -0.0057 -0.0597  0.0037
 5924TIP3    H139263   6.405   0.469  13.155 -0.4171  0.0550 -0.3162
 5924TIP3    H239264   6.481   0.565  13.245  1.4102 -0.5879 -1.1193
 5925TIP3   OH239265   0.231   5.412   2.748  0.6355 -0.0061  0.7925
 5925TIP3    H139266   0.264   5.345   2.688 -0.4439 -1.8237  2.1310
 5925TIP3    H239267   0.138   5.421   2.726  0.1639 -0.8649  2.2701
 5926TIP3   OH239268   2.094   2.355  11.471  0.0691  0.2568  0.3310
 5926TIP3    H139269   2.159   2.394  11.530  1.9214  0.6153 -1.8028
 5926TIP3    H239270   2.048   2.291  11.525  0.7631  1.4611  2.4733
 5927TIP3   OH239271   2.274   4.821   4.584 -0.2949  0.6708  0.0879
 5927TIP3    H139272   2.296   4.841   4.493 -2.9024  2.1856 -0.3386
 5927TIP3    H239273   2.245   4.905   4.620 -0.3671 -0.1205  1.9994
 5928TIP3   OH239274   1.650   6.809   2.673  0.1852 -0.2036 -0.1329
 5928TIP3    H139275   1.591   6.740   2.702 -0.6460  0.1214 -1.0102
 5928TIP3    H239276   1.694   6.838   2.753  0.7484 -1.9136  0.2086
 5929TIP3   OH239277   1.057   4.738  15.975 -0.7329 -0.3856  0.5595
 5929TIP3    H139278   1.077   4.672  16.042 -1.5829 -1.4808 -0.2367
 5929TIP3    H239279   1.090   4.820  16.012 -0.2626 -1.1357  1.8702
 5930TIP3   OH239280   4.263   2.795  10.466 -0.0197  0.6501  0.6622
 5930TIP3    H139281   4.276   2.887  10.491  1.4836  0.6835 -0.1151
 5930TIP3    H239282   4.168   2.783  10.465 -0.2144  1.8090  2.1115
 5931TIP3   OH239283   2.921   5.859  13.427 -0.9054  0.6485  0.1840
 5931TIP3    H139284   2.923   5.866  13.332  1.1025  0.1908  0.1583
 5931TIP3    H239285   2.867   5.933  13.455 -2.4612  0.1438 -1.3261
 5932TIP3   OH239286   1.025   5.251   1.933 -0.0332  0.2575 -0.1504
 5932TIP3    H139287   1.018   5.167   1.888  2.7271 -1.2231  1.8791
 5932TIP3    H239288   1.095   5.297   1.887  0.9399 -0.1304  0.8984
 5933TIP3   OH239289   4.541   2.241   2.538  0.1744  0.2370 -0.6538
 5933TIP3    H139290   4.493   2.158   2.530  0.1820  0.2005 -0.3392
 5933TIP3    H239291   4.474   2.308   2.526  0.0676  0.1853 -0.3716
 5934TIP3   OH239292   6.313   2.900  16.813 -0.2419  0.2373 -0.2462
 5934TIP3    H139293   6.319   2.806  16.794 -1.9164 -0.2063  1.1934
 5934TIP3    H239294   6.390   2.918  16.869  0.6400 -0.0265 -1.3449
 5935TIP3   OH239295   6.082   4.230   3.546  0.1229  0.0873  0.3327
 5935TIP3    H139296   6.015   4.228   3.477 -1.0634 -1.0463  1.4792
 5935TIP3    H239297   6.053   4.167   3.611  1.3070  0.9953  1.8314
 5936TIP3   OH239298   3.807   3.664   1.159  0.3180  0.1889 -0.6942
 5936TIP3    H139299   3.866   3.736   1.183  1.6358 -0.4773 -1.7667
 5936TIP3    H239300   3.735   3.670   1.222  1.5943  0.9503  0.7752
 5937TIP3   OH239301   6.341   2.382   3.382  0.1375  0.1564 -0.6896
 5937TIP3    H139302   6.385   2.322   3.442  0.2777 -0.4703 -1.4004
 5937TIP3    H239303   6.411   2.438   3.347 -0.1231  1.3943  0.6844
 5938TIP3   OH239304   4.730   4.399  15.123  0.1813  0.6322  0.4260
 5938TIP3    H139305   4.823   4.422  15.121  0.6776 -1.2703 -0.2857
 5938TIP3    H239306   4.729   4.307  15.148 -1.6111  0.9667  1.8003
 5939TIP3   OH239307   3.134   2.308  11.365  0.1008  0.3305 -0.0871
 5939TIP3    H139308   3.058   2.257  11.335 -1.3622  1.6029  1.2462
 5939TIP3    H239309   3.187   2.320  11.287 -0.5373 -1.4644 -0.8617
 5940TIP3   OH239310   5.090   6.317   1.125 -0.1171 -0.2479 -0.3517
 5940TIP3    H139311   5.176   6.287   1.154  0.0160  0.3602 -0.1122
 5940TIP3    H239312   5.062   6.380   1.191 -0.5212 -0.0523 -0.6999
 5941TIP3   OH239313   0.717   1.554   2.069 -0.2854  0.6139  0.3698
 5941TIP3    H139314   0.687   1.643   2.082  0.1716  0.7744  0.3375
 5941TIP3    H239315   0.777   1.537   2.141  1.3704  1.1163 -0.8317
 5942TIP3   OH239316   2.292   5.590  13.046 -0.1269  0.6869 -0.4354
 5942TIP3    H139317   2.227   5.636  13.098 -0.5238  0.7922 -1.0196
 5942TIP3    H239318   2.317   5.514  13.099  0.5932  1.6067  0.5757
 5943TIP3   OH239319   6.544   6.137   3.791 -0.3605 -0.2581 -0.2933
 5943TIP3    H139320   6.549   6.085   3.871  1.9574  0.3541  0.0158
 5943TIP3    H239321   6.548   6.073   3.720  0.9707 -0.6249  0.0872
 5944TIP3   OH239322   4.066   1.409  16.650 -0.0359  1.1498 -0.9473
 5944TIP3    H139323   3.980   1.405  16.610 -0.2099  0.5049 -0.5083
 5944TIP3    H239324   4.069   1.336  16.712  0.2395  2.0966  0.1996
 5945TIP3   OH239325   0.553   2.476  15.371  0.0365 -0.5140  0.1865
 5945TIP3    H139326   0.520   2.562  15.346  2.5042  0.5785  0.3988
 5945TIP3    H239327   0.475   2.426  15.395 -1.4121  1.9340  0.9023
 5946TIP3   OH239328   5.357   5.082  12.664  0.1936 -0.2340 -0.2748
 5946TIP3    H139329   5.285   5.131  12.624 -0.3190  0.3929  1.3319
 5946TIP3    H239330   5.431   5.096  12.605 -0.6472  0.2560 -1.2441
 5947TIP3   OH239331   3.798   6.539  15.458 -0.4172  0.0280  0.0280
 5947TIP3    H139332   3.798   6.524  15.553  1.5974  0.0554  0.0596
 5947TIP3    H239333   3.843   6.462  15.422  0.6801  0.9871 -0.7087
 5948TIP3   OH239334   1.873   4.770  17.093  0.0501 -0.2037 -0.2262
 5948TIP3    H139335   1.947   4.723  17.133  0.5931 -0.0265 -0.9897
 5948TIP3    H239336   1.812   4.786  17.165  0.3943 -1.0514  0.2691
 5949TIP3   OH239337   3.461   4.177   0.797 -0.0639  0.4090  0.4799
 5949TIP3    H139338   3.453   4.090   0.837 -0.3241  0.6467  0.9567
 5949TIP3    H239339   3.431   4.237   0.866  0.0292  0.8667  0.1204
 5950TIP3   OH239340   4.006   0.801   4.502  0.2065 -0.3572 -0.5564
 5950TIP3    H139341   4.001   0.713   4.539 -0.8496 -0.2645 -0.4689
 5950TIP3    H239342   4.051   0.789   4.418 -0.4626 -1.0763 -0.8250
 5951TIP3   OH239343   1.557   2.151   4.435 -0.9924  0.4193 -0.1750
 5951TIP3    H139344   1.561   2.202   4.354  1.2211  0.0883 -0.3138
 5951TIP3    H239345   1.543   2.061   4.406 -0.2966  0.3147 -0.2043
 5952TIP3   OH239346   4.108   3.221  12.874 -0.0714  0.1742  0.9307
 5952TIP3    H139347   4.186   3.263  12.839  0.4389 -1.6104 -0.1794
 5952TIP3    H239348   4.136   3.182  12.957  0.1378 -0.1993  0.6849
 5953TIP3   OH239349   5.107   6.431  14.225 -0.0051  0.0610 -0.1341
 5953TIP3    H139350   5.016   6.402  14.214  0.0166 -0.4771  0.9627
 5953TIP3    H239351   5.115   6.448  14.319  1.3302 -0.9574 -0.0274
 5954TIP3   OH239352   6.703   6.411   1.338  0.6459 -0.1879 -0.2093
 5954TIP3    H139353   6.682   6.319   1.327  1.3129 -0.4890  0.8870
 5954TIP3    H239354   6.797   6.417   1.321  0.4743  0.4226 -1.0040
 5955TIP3   OH239355   6.575   2.513  15.590 -0.1604 -0.4920 -0.4376
 5955TIP3    H139356   6.645   2.567  15.554 -0.6043  0.6462  0.3621
 5955TIP3    H239357   6.594   2.508  15.683 -1.2531  0.0347 -0.1666
 5956TIP3   OH239358   2.312   6.149  11.664 -0.2722 -0.0993 -0.2369
 5956TIP3    H139359   2.311   6.058  11.634  1.7228  0.1566 -1.2856
 5956TIP3    H239360   2.228   6.185  11.634 -2.0906 -2.0767  2.0854
 5957TIP3   OH239361   0.450   6.103   0.472  0.6912  0.0755  0.4749
 5957TIP3    H139362   0.487   6.152   0.545 -0.9363 -0.0540  1.4469
 5957TIP3    H239363   0.448   6.012   0.503 -0.3783  0.0779  0.4381
 5958TIP3   OH239364   6.563   6.216   1.902 -0.0132  0.0394  0.3105
 5958TIP3    H139365   6.471   6.189   1.907  0.0822 -0.7210 -1.1978
 5958TIP3    H239366   6.608   6.161   1.967 -0.4363 -0.5827  0.0875
 5959TIP3   OH239367   2.172   1.038   2.709  0.3460 -0.1750 -0.3955
 5959TIP3    H139368   2.079   1.017   2.711  0.2865  0.1100 -0.2278
 5959TIP3    H239369   2.176   1.126   2.671  0.5112  0.0082  0.0385
 5960TIP3   OH239370   2.477   2.997   0.834 -0.8340 -0.1476  0.8068
 5960TIP3    H139371   2.540   2.927   0.854 -0.2489  0.1540  0.0343
 5960TIP3    H239372   2.500   3.067   0.896 -0.0609  0.1629  0.1863
 5961TIP3   OH239373   4.113   2.425   1.729 -0.5858  0.3558  0.0739
 5961TIP3    H139374   4.118   2.389   1.640  1.2765  1.7469 -0.4696
 5961TIP3    H239375   4.040   2.380   1.770 -2.6836  0.9379 -2.7579
 5962TIP3   OH239376   4.922   0.084  15.763 -0.4200  0.3545 -0.0614
 5962TIP3    H139377   4.912  -0.001  15.806  1.5408  0.8977  1.6303
 5962TIP3    H239378   4.939   0.063  15.672 -0.4887 -1.0376  0.2254
 5963TIP3   OH239379   1.626   1.446   0.604  0.0172  1.1478  0.4380
 5963TIP3    H139380   1.626   1.373   0.666 -1.5606  0.7393 -0.0030
 5963TIP3    H239381   1.690   1.507   0.639 -1.0812  1.0911  2.6853
 5964TIP3   OH239382   6.671   0.547   3.092 -0.2642  0.1078 -0.2020
 5964TIP3    H139383   6.639   0.460   3.117 -1.2718  0.0169 -1.6825
 5964TIP3    H239384   6.766   0.543   3.106 -0.1454 -1.5826 -1.2193
 5965TIP3   OH239385   0.907   1.291  11.372  0.1743  0.2737  0.3820
 5965TIP3    H139386   0.887   1.286  11.279  1.7825  0.7470 -0.0168
 5965TIP3    H239387   0.828   1.328  11.412 -1.2407 -1.6423 -0.4996
 5966TIP3   OH239388   6.620   1.666  13.122  0.5485  0.4281  0.3759
 5966TIP3    H139389   6.685   1.655  13.192  1.3909 -1.5213 -0.6300
 5966TIP3    H239390   6.562   1.591  13.132 -1.0909  1.6963  0.7245
 5967TIP3   OH239391   2.230   4.648   4.004 -0.0551  0.2790 -0.5967
 5967TIP3    H139392   2.146   4.639   4.049  0.3601  0.2662  0.1864
 5967TIP3    H239393   2.294   4.662   4.074  0.7078 -0.4383 -1.1253
 5968TIP3   OH239394   3.445   0.963   2.485  0.1160 -0.1510 -0.4123
 5968TIP3    H139395   3.401   0.948   2.569  0.3529 -0.4962 -0.3514
 5968TIP3    H239396   3.378   0.944   2.419  0.2102 -0.8180 -0.3230
 5969TIP3   OH239397   1.589   0.208   6.059 -0.9899  0.4561 -0.1795
 5969TIP3    H139398   1.569   0.299   6.079  3.8075  1.4046  1.5955
 5969TIP3    H239399   1.587   0.164   6.145 -2.5619 -1.0662 -0.9215
 5970TIP3   OH239400   6.683   6.242   4.717 -0.0132  0.2281  0.2401
 5970TIP3    H139401   6.601   6.255   4.766 -0.0601  1.2121 -0.0751
 5970TIP3    H239402   6.716   6.158   4.748 -0.9968 -0.0490  0.5876
 5971TIP3   OH239403   4.418   6.463  17.007 -0.5385 -0.5180  0.0834
 5971TIP3    H139404   4.498   6.515  17.004 -0.3791 -0.7287  0.5067
 5971TIP3    H239405   4.383   6.479  17.095 -0.9403 -0.4573 -0.0851
 5972TIP3   OH239406   2.500   0.249  12.637  0.0784 -0.5684 -0.2497
 5972TIP3    H139407   2.516   0.238  12.543  0.7052  2.1761 -0.5591
 5972TIP3    H239408   2.586   0.269  12.674 -0.2135 -1.3233  0.8637
 5973TIP3   OH239409   6.272   3.952   3.198  0.2109 -0.3896  0.1869
 5973TIP3    H139410   6.204   3.928   3.260 -0.6964  0.9128 -0.2728
 5973TIP3    H239411   6.234   3.935   3.112  0.6299 -0.0692 -0.0675
 5974TIP3   OH239412   4.673   5.292  14.334  0.0466 -0.1204  0.3344
 5974TIP3    H139413   4.647   5.384  14.327  0.2127  0.1672  2.6835
 5974TIP3    H239414   4.768   5.295  14.348  0.3094 -0.7686 -1.1395
 5975TIP3   OH239415   5.461   1.778   2.063 -0.2077 -0.2464 -0.3516
 5975TIP3    H139416   5.475   1.824   2.145  1.7528 -0.2875 -0.6079
 5975TIP3    H239417   5.501   1.692   2.077  2.7538  0.6593 -2.1362
 5976TIP3   OH239418   4.420   4.187  16.105 -0.1966 -0.2082 -0.1000
 5976TIP3    H139419   4.383   4.236  16.178 -0.7120 -0.2155 -0.3548
 5976TIP3    H239420   4.364   4.208  16.031  0.0370 -0.5794 -0.3835
 5977TIP3   OH239421   3.185   1.025  14.194 -0.3843  0.1043 -0.3551
 5977TIP3    H139422   3.249   1.089  14.226  1.1259 -1.2870 -0.4564
 5977TIP3    H239423   3.167   1.051  14.104 -0.1351  0.6505 -0.2496
 5978TIP3   OH239424   0.483   2.339  13.347 -0.5275 -0.2222  0.0845
 5978TIP3    H139425   0.565   2.342  13.396 -0.2801 -0.0573 -0.3409
 5978TIP3    H239426   0.502   2.284  13.271 -0.8172 -0.1963 -0.0078
 5979TIP3   OH239427   4.970   4.852   0.699 -0.1658 -0.6745 -0.2189
 5979TIP3    H139428   4.894   4.807   0.736 -0.6133  1.7544  2.1446
 5979TIP3    H239429   4.935   4.899   0.623 -0.1072 -2.5899 -1.4919
 5980TIP3   OH239430   2.264   5.230   6.263  0.3893  0.2072  0.0530
 5980TIP3    H139431   2.254   5.325   6.274 -1.5926 -0.0825  1.2574
 5980TIP3    H239432   2.176   5.200   6.238  1.3097 -1.1741 -1.7551
 5981TIP3   OH239433   2.306   6.290  14.763 -0.0783  0.5291  0.1374
 5981TIP3    H139434   2.228   6.319  14.811 -0.3211  1.0441 -0.5351
 5981TIP3    H239435   2.357   6.370  14.751  0.1848  0.3313 -0.0751
 5982TIP3   OH239436   0.767   3.281  15.519  0.0004  0.1998  0.4877
 5982TIP3    H139437   0.753   3.254  15.429 -0.6435  0.0464  0.6302
 5982TIP3    H239438   0.688   3.329  15.543 -0.4942 -1.0426  1.4531
 5983TIP3   OH239439   4.610   1.649   2.258 -0.5730  0.3258  0.0756
 5983TIP3    H139440   4.683   1.601   2.219 -0.1833  1.0905 -0.1598
 5983TIP3    H239441   4.547   1.660   2.186 -0.9252 -0.3114  0.2721
 5984TIP3   OH239442   0.442   6.403  13.845 -0.1114 -0.3322  0.2570
 5984TIP3    H139443   0.523   6.391  13.896 -0.2056  0.3795  0.5809
 5984TIP3    H239444   0.464   6.468  13.779 -0.4806  0.0248  0.4822
 5985TIP3   OH239445   5.243   5.913   4.919  0.3276 -0.4206  0.3100
 5985TIP3    H139446   5.183   5.960   4.977 -1.5526 -1.4129 -0.7284
 5985TIP3    H239447   5.317   5.973   4.907 -0.0318  0.4897  2.3294
 5986TIP3   OH239448   6.187   1.801  14.022 -0.3715  0.1701 -0.4626
 5986TIP3    H139449   6.250   1.740  13.986 -2.2026 -2.6494  0.7596
 5986TIP3    H239450   6.125   1.817  13.951 -0.8802 -0.8962 -0.2767
 5987TIP3   OH239451   4.028   1.418   3.236  0.0582 -0.0060  0.6684
 5987TIP3    H139452   3.949   1.395   3.189 -0.3439  0.8355  0.9097
 5987TIP3    H239453   4.057   1.336   3.276 -1.5424 -0.0360  1.8523
 5988TIP3   OH239454   1.918   2.475   0.216 -0.1414  0.3517 -0.6501
 5988TIP3    H139455   1.930   2.461   0.310 -0.6544  0.5310 -0.5560
 5988TIP3    H239456   1.926   2.388   0.177  1.2475  0.4245 -0.5760
 5989TIP3   OH239457   0.660   0.569  16.146  0.3914 -0.1588 -0.2425
 5989TIP3    H139458   0.579   0.567  16.198  1.2669  2.8487  1.4275
 5989TIP3    H239459   0.631   0.585  16.056 -0.9040 -0.7723  0.0394
 5990TIP3   OH239460   3.119   3.065  11.781 -0.1315  0.4258  0.4337
 5990TIP3    H139461   3.155   3.138  11.832 -3.5334  1.6559  1.3653
 5990TIP3    H239462   3.028   3.091  11.764 -0.7146 -2.4755 -1.5139
 5991TIP3   OH239463   4.692   0.614  14.403 -0.2093 -0.2431 -0.8015
 5991TIP3    H139464   4.643   0.549  14.353 -0.3088 -1.3296  0.6617
 5991TIP3    H239465   4.638   0.632  14.480  1.7512 -1.7532  1.0576
 5992TIP3   OH239466   1.702   0.273   1.902 -0.3358 -0.8947  0.5491
 5992TIP3    H139467   1.688   0.368   1.901  1.0752 -0.5749 -2.9459
 5992TIP3    H239468   1.778   0.261   1.959 -1.2146 -0.1392  1.9565
 5993TIP3   OH239469   5.159   3.397   5.954  0.3149 -0.0804 -0.3280
 5993TIP3    H139470   5.221   3.371   5.885  0.2830  0.9074 -0.7450
 5993TIP3    H239471   5.114   3.316   5.977  0.9717 -0.5993 -0.8184
 5994TIP3   OH239472   5.216   5.827  11.972  0.2276  1.0390  0.0360
 5994TIP3    H139473   5.270   5.890  11.924  2.6632 -0.5553  0.5050
 5994TIP3    H239474   5.236   5.845  12.064 -0.9960  1.1776  0.2910
 5995TIP3   OH239475   3.082   3.780  12.637  0.3315  0.4432  0.0801
 5995TIP3    H139476   3.092   3.868  12.672  0.8987  0.1606  0.6481
 5995TIP3    H239477   3.039   3.793  12.552 -1.0099  1.1369  0.8305
 5996TIP3   OH239478   2.766   3.640   2.168  0.4487 -0.0569 -0.6200
 5996TIP3    H139479   2.822   3.562   2.170 -0.1430 -0.4761 -0.1534
 5996TIP3    H239480   2.736   3.650   2.258  0.2658  0.5265 -0.7472
 5997TIP3   OH239481   4.027   0.713   1.295 -0.5192  0.3395  0.3466
 5997TIP3    H139482   3.932   0.702   1.292 -0.5837  0.5720 -3.1781
 5997TIP3    H239483   4.061   0.646   1.236  1.2302  2.0638 -0.7304
 5998TIP3   OH239484   1.741   4.043   4.393  0.4961  0.0499  0.1001
 5998TIP3    H139485   1.780   4.085   4.316 -1.0730 -0.2398 -0.9014
 5998TIP3    H239486   1.685   4.110   4.431 -0.8734 -0.6424 -0.6448
 5999TIP3   OH239487   4.501   0.102  15.291 -0.1317  0.7577 -0.5465
 5999TIP3    H139488   4.520   0.010  15.275 -0.1432  0.8282 -0.9648
 5999TIP3    H239489   4.489   0.140  15.204 -1.5580  0.8510 -0.3304
 6000TIP3   OH239490   3.367   0.004  10.944  0.4917  0.3851  0.0550
 6000TIP3    H139491   3.428   0.064  10.988  0.4062  0.0836  0.5888
 6000TIP3    H239492   3.422  -0.069  10.915  0.2971 -0.2309  1.1580
 6001TIP3   OH239493   3.168   5.650   3.917 -0.3196  0.7045 -0.3511
 6001TIP3    H139494   3.188   5.741   3.941  0.1665  0.5145 -0.0133
 6001TIP3    H239495   3.203   5.598   3.990 -0.6246  0.2482 -0.5260
 6002TIP3   OH239496   3.643   5.913  16.258  0.2250  0.3524 -0.1389
 6002TIP3    H139497   3.660   5.818  16.258 -2.0422 -0.1221 -1.0378
 6002TIP3    H239498   3.710   5.949  16.201  1.8821 -0.5245  1.1816
 6003TIP3   OH239499   1.992   1.883  16.603 -0.2509 -0.0368  0.5808
 6003TIP3    H139500   1.995   1.913  16.694 -0.3985  2.3968 -0.1398
 6003TIP3    H239501   2.074   1.914  16.565 -1.0714  0.7771 -0.5930
 6004TIP3   OH239502   2.611   0.870  11.271  0.3136 -0.0675 -0.1895
 6004TIP3    H139503   2.530   0.900  11.231 -0.0800  0.0505  0.6866
 6004TIP3    H239504   2.652   0.816  11.203 -0.1880  0.3703 -0.8601
 6005TIP3   OH239505   3.768   3.607   4.061 -0.1558  0.5603 -0.3500
 6005TIP3    H139506   3.738   3.525   4.022 -0.5091  0.7714 -0.5343
 6005TIP3    H239507   3.760   3.593   4.155  1.9821 -0.4361 -0.2633
 6006TIP3   OH239508   1.057   4.280  14.242  0.2341 -0.1623  0.1061
 6006TIP3    H139509   1.070   4.362  14.289  0.3225  0.6287 -1.2384
 6006TIP3    H239510   1.020   4.306  14.158  0.1163 -1.5208 -0.2966
 6007TIP3   OH239511   0.944   1.617   4.714 -0.7562 -0.0520  1.0658
 6007TIP3    H139512   0.920   1.618   4.806 -0.6673 -0.3285  1.0933
 6007TIP3    H239513   1.038   1.632   4.713 -0.2840 -2.5305  1.1934
 6008TIP3   OH239514   3.638   4.327  12.242 -0.7265  0.8170  0.0214
 6008TIP3    H139515   3.673   4.411  12.274  2.4058 -1.3276  2.9407
 6008TIP3    H239516   3.701   4.300  12.174 -2.1002  1.0361 -1.3941
 6009TIP3   OH239517   6.218   4.749  13.403  0.0020  0.1500  0.1990
 6009TIP3    H139518   6.129   4.717  13.394  0.2770 -1.3694  2.1713
 6009TIP3    H239519   6.272   4.669  13.406  1.0921  0.8955  1.9540
 6010TIP3   OH239520   2.107   2.889  15.657 -0.1333 -0.4913  0.1935
 6010TIP3    H139521   2.032   2.941  15.629 -1.0115 -1.4374  0.7144
 6010TIP3    H239522   2.138   2.846  15.577 -0.0825 -0.0331 -0.0371
 6011TIP3   OH239523   1.484   1.814  10.617 -0.9098  0.1568 -0.0220
 6011TIP3    H139524   1.411   1.874  10.632 -0.4854  0.8070 -0.5384
 6011TIP3    H239525   1.450   1.729  10.647 -1.3497  0.7150  1.1649
 6012TIP3   OH239526   0.372   0.291  15.514 -0.6006 -0.5972 -0.3280
 6012TIP3    H139527   0.386   0.225  15.446  0.7092 -0.8662  0.1655
 6012TIP3    H239528   0.389   0.244  15.596 -1.1492 -0.0230  0.1168
 6013TIP3   OH239529   0.923   5.542  15.043 -0.4954 -0.6989 -0.1441
 6013TIP3    H139530   1.011   5.534  15.081 -0.8262  0.2911  0.8746
 6013TIP3    H239531   0.905   5.455  15.007  1.8334 -0.3133 -2.5096
 6014TIP3   OH239532   2.072   4.320  14.261  0.0846 -0.0230  0.4730
 6014TIP3    H139533   2.032   4.316  14.175 -0.9218  0.7319  0.8848
 6014TIP3    H239534   2.127   4.242  14.266 -1.7102 -1.3737  0.0838
 6015TIP3   OH239535   1.732   4.973  15.267  0.3786  0.2572 -0.4730
 6015TIP3    H139536   1.682   5.033  15.323  0.5821  1.1321 -1.2004
 6015TIP3    H239537   1.787   4.923  15.328 -1.7403 -1.1226  0.4023
 6016TIP3   OH239538   5.823   4.015  16.706  0.8884 -0.0187  0.0011
 6016TIP3    H139539   5.740   3.980  16.739  0.1600  1.1210 -0.5764
 6016TIP3    H239540   5.873   4.036  16.785  0.3868 -0.1282  0.3528
 6017TIP3   OH239541   1.590   5.418  13.592 -0.3673  0.4645 -0.0317
 6017TIP3    H139542   1.587   5.345  13.530  0.5657  0.7558 -0.4510
 6017TIP3    H239543   1.566   5.379  13.676 -0.0911 -0.2817 -0.2885
 6018TIP3   OH239544   0.242   2.313  11.797 -0.4116  0.0223  0.2543
 6018TIP3    H139545   0.251   2.387  11.858 -2.3367 -0.5934  1.3534
 6018TIP3    H239546   0.148   2.301  11.787 -0.1424 -2.2688  0.0612
 6019TIP3   OH239547   2.023   5.371  14.077 -0.2714  0.1012  0.4810
 6019TIP3    H139548   2.112   5.350  14.049 -1.2001  0.0188 -2.7763
 6019TIP3    H239549   2.029   5.461  14.110  0.6805  0.9180 -1.7741
 6020TIP3   OH239550   3.312   0.811  14.463 -0.1484 -0.6305  0.5296
 6020TIP3    H139551   3.371   0.830  14.390 -0.0320 -1.2951  0.4428
 6020TIP3    H239552   3.252   0.885  14.466 -0.0429 -0.5126 -0.1350
 6021TIP3   OH239553   3.565   1.033  16.712 -0.1637 -0.9387 -0.2213
 6021TIP3    H139554   3.497   1.050  16.777  1.8994  1.2881  1.5981
 6021TIP3    H239555   3.520   0.990  16.640 -3.0979 -1.2010  1.5923
 6022TIP3   OH239556   3.941   6.693   2.031 -0.5993  0.3388 -0.2601
 6022TIP3    H139557   4.025   6.673   1.989  0.4092 -0.0859  1.8420
 6022TIP3    H239558   3.953   6.666   2.122 -2.9151  0.6078  0.1751
 6023TIP3   OH239559   1.404   5.453   5.831  0.1566  0.9585  0.7868
 6023TIP3    H139560   1.326   5.498   5.864 -0.2902 -0.1716  1.3521
 6023TIP3    H239561   1.448   5.420   5.909 -0.4014 -0.9318  0.3566
 6024TIP3   OH239562   4.619   2.265   3.352 -0.2475  0.5948  0.6768
 6024TIP3    H139563   4.570   2.190   3.320 -1.1119  2.1131 -1.9144
 6024TIP3    H239564   4.558   2.338   3.346  0.3626  1.5079  3.6756
 6025TIP3   OH239565   3.500   5.982   3.740  0.3840 -0.2120 -0.6950
 6025TIP3    H139566   3.447   5.954   3.665 -0.3892 -0.9499  0.0998
 6025TIP3    H239567   3.510   6.077   3.728  0.8387 -0.4075 -2.0670
 6026TIP3   OH239568   0.909   2.268  15.911 -0.3366  0.2703  0.2367
 6026TIP3    H139569   0.848   2.216  15.860 -1.1973  0.9488  0.5529
 6026TIP3    H239570   0.880   2.257  16.002  0.8555 -0.5058  0.5521
 6027TIP3   OH239571   0.343   3.191   0.995  0.1463 -0.2025 -0.3308
 6027TIP3    H139572   0.358   3.218   0.905 -0.0305 -2.2997 -1.0476
 6027TIP3    H239573   0.251   3.166   0.998  0.1066  0.0101  0.4716
 6028TIP3   OH239574   0.442   1.552  16.430 -0.1050  1.1709  0.1809
 6028TIP3    H139575   0.364   1.513  16.470  0.2349  1.0126  0.6966
 6028TIP3    H239576   0.425   1.646  16.432 -1.0130  1.0602 -1.2402
 6029TIP3   OH239577   2.704   4.549  15.937 -0.2225 -0.1826 -0.2590
 6029TIP3    H139578   2.716   4.638  15.971  2.5893 -0.2886 -0.7182
 6029TIP3    H239579   2.705   4.558  15.842 -3.0434 -0.4445 -0.3938
 6030TIP3   OH239580   1.235   0.942  12.216  0.0173 -0.1708 -0.0273
 6030TIP3    H139581   1.159   0.884  12.220  0.8181 -1.5766 -2.5964
 6030TIP3    H239582   1.298   0.896  12.160  1.5703  2.2419 -0.4461
 6031TIP3   OH239583   5.500   6.659  15.259  0.1918  0.4215  0.1160
 6031TIP3    H139584   5.410   6.686  15.239 -0.9691 -1.3318  2.4424
 6031TIP3    H239585   5.491   6.572  15.297  2.6331  0.9764  2.2934
 6032TIP3   OH239586   1.722   1.401  10.741 -0.1262 -0.4337  0.6983
 6032TIP3    H139587   1.633   1.388  10.708 -1.0283  0.2196  2.7072
 6032TIP3    H239588   1.771   1.326  10.708 -0.7250  0.4826 -2.5716
 6033TIP3   OH239589   6.438   2.402  11.498  0.4225  0.1021 -0.0172
 6033TIP3    H139590   6.368   2.341  11.523 -0.1038  0.9867  0.7353
 6033TIP3    H239591   6.394   2.470  11.448  1.2232 -0.8076 -2.0624
 6034TIP3   OH239592   1.529   5.253  12.997  0.8006  0.7153  0.1213
 6034TIP3    H139593   1.504   5.286  13.084  0.9582  1.7975 -0.2237
 6034TIP3    H239594   1.450   5.209  12.965  0.4460  1.1016  0.4461
 6035TIP3   OH239595   2.380   6.258  12.966 -0.7068  0.5070 -0.3605
 6035TIP3    H139596   2.446   6.194  12.939 -0.2608  1.0432 -0.5474
 6035TIP3    H239597   2.397   6.271  13.060  0.2251  1.5292 -0.6565
 6036TIP3   OH239598   3.406   4.017  15.788 -0.5435  0.1683 -0.1909
 6036TIP3    H139599   3.364   4.023  15.874  0.0157 -1.4013  0.2305
 6036TIP3    H239600   3.373   3.934  15.752  2.0703 -1.1075  0.1407
 6037TIP3   OH239601   1.057   2.979   2.146  0.0040  0.0864  0.6589
 6037TIP3    H139602   0.970   2.940   2.133 -0.2712  1.2693 -1.3722
 6037TIP3    H239603   1.064   2.990   2.241 -2.4073  0.6706  0.8346
 6038TIP3   OH239604   2.097   2.739  11.502 -0.1500 -0.0032  0.3070
 6038TIP3    H139605   2.063   2.747  11.414  0.0368  2.7684  0.4083
 6038TIP3    H239606   2.020   2.732  11.558 -0.3152 -0.1119  0.0647
 6039TIP3   OH239607   0.795   3.636  14.975 -0.2240 -0.1249 -0.7551
 6039TIP3    H139608   0.735   3.643  14.901 -0.3713  2.9397 -0.4667
 6039TIP3    H239609   0.876   3.676  14.945  0.7137 -1.4964 -0.1633
 6040TIP3   OH239610   6.738   3.165  13.088  0.4332 -0.0656 -0.0300
 6040TIP3    H139611   6.799   3.219  13.037 -1.2990  0.1871 -1.9835
 6040TIP3    H239612   6.691   3.228  13.143  0.7941 -0.0584  0.2772
 6041TIP3   OH239613   5.196   6.684  16.188 -0.0724 -0.3230 -0.2073
 6041TIP3    H139614   5.259   6.756  16.195  0.7189 -1.0438  0.3051
 6041TIP3    H239615   5.196   6.643  16.274  1.1941 -2.2990 -1.0500
 6042TIP3   OH239616   1.368   2.242   0.464  0.0541  0.4130  0.5112
 6042TIP3    H139617   1.317   2.163   0.483  0.5020 -0.0321 -0.0946
 6042TIP3    H239618   1.445   2.235   0.520  1.4302 -0.9553 -1.3985
 6043TIP3   OH239619   0.767   5.404  17.057  0.4022  0.5624  0.0891
 6043TIP3    H139620   0.731   5.316  17.050  0.0616  0.5085  1.9420
 6043TIP3    H239621   0.862   5.392  17.055  0.3601  0.1099  0.5321
 6044TIP3   OH239622   5.519   2.655   5.209 -0.1870  0.0846  0.0821
 6044TIP3    H139623   5.455   2.591   5.240 -0.9675  1.0076  0.4305
 6044TIP3    H239624   5.496   2.736   5.256 -1.0553  1.3976 -2.4341
 6045TIP3   OH239625   1.079   5.589  15.898  0.0414  0.4671 -0.0477
 6045TIP3    H139626   1.018   5.624  15.962 -1.7637  0.9885 -1.9467
 6045TIP3    H239627   1.091   5.497  15.923  1.0513  1.1432  2.1786
 6046TIP3   OH239628   6.712   2.401  12.899 -0.2317  0.0589 -0.4568
 6046TIP3    H139629   6.800   2.415  12.931 -1.0682  3.1924  0.8456
 6046TIP3    H239630   6.671   2.342  12.963  0.0241  1.1231  0.7209
 6047TIP3   OH239631   0.706   3.963   5.872 -0.4692 -0.2167 -0.0584
 6047TIP3    H139632   0.615   3.950   5.845  0.4541 -2.2686 -2.5363
 6047TIP3    H239633   0.722   4.056   5.857 -1.8746 -0.0062 -0.4304
 6048TIP3   OH239634   0.633   2.693   0.242 -0.1726  0.1813  0.2639
 6048TIP3    H139635   0.605   2.719   0.154  1.0804  0.5438 -0.0491
 6048TIP3    H239636   0.728   2.682   0.234 -0.1424 -0.4691  1.4072
 6049TIP3   OH239637   5.951   2.852  14.076 -0.3466  0.1796 -0.7729
 6049TIP3    H139638   5.964   2.800  13.997  1.6288 -0.5698 -0.0126
 6049TIP3    H239639   5.929   2.788  14.144 -0.5112  0.6427 -0.3829
 6050TIP3   OH239640   4.447   4.502   3.009  0.0944  0.4294  0.2351
 6050TIP3    H139641   4.524   4.518   2.955 -0.2139  3.3754  0.4895
 6050TIP3    H239642   4.375   4.494   2.946  0.2309  0.3575  0.0880
 6051TIP3   OH239643   5.135   5.817  14.678  0.1524 -0.1804 -0.4480
 6051TIP3    H139644   5.043   5.844  14.684  0.5476  1.4567 -1.3152
 6051TIP3    H239645   5.183   5.886  14.724  1.0922 -0.0340 -1.6141
 6052TIP3   OH239646   1.878   4.238   3.870  0.4320 -0.1012  0.8725
 6052TIP3    H139647   1.898   4.144   3.876  0.7411 -0.1165 -0.1508
 6052TIP3    H239648   1.956   4.281   3.906  1.8077 -0.1991 -1.7086
 6053TIP3   OH239649   5.003   2.641  16.082  0.0904 -0.0733 -0.1315
 6053TIP3    H139650   4.985   2.682  15.997  1.6325 -0.1586 -0.5318
 6053TIP3    H239651   5.050   2.560  16.061 -0.5483 -0.7033  0.7675
 6054TIP3   OH239652   6.157   5.878  13.090  0.0349  0.1274  0.2724
 6054TIP3    H139653   6.172   5.794  13.134  0.4211 -0.3944 -0.8120
 6054TIP3    H239654   6.245   5.912  13.073 -0.1053  0.2157 -0.2864
 6055TIP3   OH239655   2.147   6.596   3.657 -0.0999  0.1855  0.1133
 6055TIP3    H139656   2.068   6.648   3.672 -1.0379 -1.1939  0.0711
 6055TIP3    H239657   2.202   6.612   3.734 -0.5458  0.8906  0.2937
 6056TIP3   OH239658   0.328   1.507  14.442  0.2283 -0.0068 -0.2455
 6056TIP3    H139659   0.304   1.590  14.400 -2.0660  0.7990  2.3221
 6056TIP3    H239660   0.317   1.441  14.373 -0.8055  1.4969 -1.5975
 6057TIP3   OH239661   3.389   2.516  16.111 -0.0109  0.1205 -0.5043
 6057TIP3    H139662   3.480   2.493  16.126 -0.2098 -0.6230 -0.4055
 6057TIP3    H239663   3.343   2.432  16.105 -0.6372  0.4795 -0.8784
 6058TIP3   OH239664   2.937   1.472  15.605 -0.4768 -0.1677  0.0769
 6058TIP3    H139665   2.931   1.456  15.699 -2.1087 -2.4501 -0.3354
 6058TIP3    H239666   2.864   1.531  15.585  0.4394  1.1084  0.3166
 6059TIP3   OH239667   1.339   0.030   6.485 -0.0136  0.0369  0.2520
 6059TIP3    H139668   1.330   0.011   6.578  1.3309 -1.8951  0.0369
 6059TIP3    H239669   1.257  -0.002   6.446  0.6317 -2.0065  0.4290
 6060TIP3   OH239670   6.107   6.420   6.003 -0.2736  0.3169 -0.4328
 6060TIP3    H139671   6.063   6.497   5.965  0.5622  1.3975  0.7178
 6060TIP3    H239672   6.190   6.453   6.035 -0.1993 -0.9361  0.7483
 6061TIP3   OH239673   5.001   3.140  16.820  0.4572 -0.4346 -0.1106
 6061TIP3    H139674   4.925   3.146  16.762  0.3423 -0.1980  0.0607
 6061TIP3    H239675   4.967   3.101  16.901  0.0347  1.5950  0.7549
 6062TIP3   OH239676   6.078   5.148  13.217  0.9866  0.0160 -0.0733
 6062TIP3    H139677   6.088   5.141  13.311  0.4122 -1.5194 -0.0859
 6062TIP3    H239678   6.166   5.137  13.182  1.3307  1.4742  0.2994
 6063TIP3   OH239679   0.600   5.644   5.042 -0.0742  0.3577 -0.4006
 6063TIP3    H139680   0.605   5.643   4.947  0.4548  1.3729 -0.3888
 6063TIP3    H239681   0.550   5.723   5.063 -1.5586 -0.6618  0.1283
 6064TIP3   OH239682   3.042   2.053  12.493 -0.2538 -0.0861 -0.0003
 6064TIP3    H139683   2.953   2.028  12.467 -0.3029  1.4943 -1.5163
 6064TIP3    H239684   3.069   2.118  12.428  0.8506  1.7757  2.1538
 6065TIP3   OH239685   4.308   1.897  11.603 -0.0711 -0.0714  0.3846
 6065TIP3    H139686   4.213   1.890  11.609  0.0422 -1.5825  0.8591
 6065TIP3    H239687   4.331   1.971  11.659 -0.9780  0.4620  0.0619
 6066TIP3   OH239688   4.773   2.075  15.825 -0.4176  0.1101  0.0246
 6066TIP3    H139689   4.827   2.151  15.803 -0.4268 -0.7031 -3.3427
 6066TIP3    H239690   4.823   2.029  15.892  1.2203  1.3684 -0.2660
 6067TIP3   OH239691   3.532   2.121   4.179  0.1473 -0.4829  0.1237
 6067TIP3    H139692   3.540   2.071   4.261  1.5071 -1.4469 -0.5486
 6067TIP3    H239693   3.461   2.078   4.132  0.0315 -0.5706  0.3759
 6068TIP3   OH239694   5.237   1.318   0.468  0.1520  0.7422 -0.4731
 6068TIP3    H139695   5.208   1.321   0.559  0.8995 -0.2487 -0.1804
 6068TIP3    H239696   5.162   1.287   0.419  0.0467  0.3269 -0.0493
 6069TIP3   OH239697   2.211   1.627  16.162  0.0607 -0.1482  0.4130
 6069TIP3    H139698   2.127   1.582  16.150 -0.0831  0.1959  0.0971
 6069TIP3    H239699   2.236   1.607  16.252  0.0771 -0.9856  0.2314
 6070TIP3   OH239700   2.922   1.942  16.803  0.8279 -0.0002  0.2029
 6070TIP3    H139701   2.985   1.916  16.871 -0.8972 -1.1655  1.4502
 6070TIP3    H239702   2.905   2.035  16.821  1.6680  0.1398  0.2942
 6071TIP3   OH239703   5.058   0.323  17.217 -0.1749 -0.2299  0.3769
 6071TIP3    H139704   5.095   0.382  17.282 -0.9666 -0.7459  1.3067
 6071TIP3    H239705   5.008   0.380  17.159  2.6808  0.6427 -1.4690
 6072TIP3   OH239706   0.180   4.781  17.230 -0.4944 -0.2630  0.1381
 6072TIP3    H139707   0.200   4.852  17.169 -2.5404  0.9167  0.7461
 6072TIP3    H239708   0.132   4.717  17.176 -0.7132 -0.0676  0.0958
 6073TIP3   OH239709   3.621   6.107  11.763 -0.7020  0.3692 -0.5530
 6073TIP3    H139710   3.683   6.042  11.730  0.1717  0.2029  1.3030
 6073TIP3    H239711   3.554   6.057  11.808 -0.9031  0.6668 -0.5179
 6074TIP3   OH239712   0.731   5.732  13.199 -0.3788 -0.1118  0.1393
 6074TIP3    H139713   0.695   5.677  13.129 -0.5077 -0.4601  0.4793
 6074TIP3    H239714   0.680   5.813  13.195 -0.2668 -0.0583 -0.2846
 6075TIP3   OH239715   3.182   1.340  11.223 -0.3149  0.0992  0.2193
 6075TIP3    H139716   3.248   1.359  11.157 -0.7785 -2.4677 -1.1100
 6075TIP3    H239717   3.206   1.254  11.258 -1.6913  0.1152  1.3159
 6076TIP3   OH239718   5.975   1.768   1.002  0.0499  1.0728 -0.1200
 6076TIP3    H139719   6.057   1.804   1.037  1.0573 -0.8567 -0.3206
 6076TIP3    H239720   5.906   1.808   1.055  1.3295  0.5539  2.0411
 6077TIP3   OH239721   5.066   4.966  16.696 -0.8610  0.2047  0.4807
 6077TIP3    H139722   5.080   4.884  16.647 -0.1207  0.1803  0.7192
 6077TIP3    H239723   5.119   5.031  16.649  0.5784 -0.0112  1.7393
 6078TIP3   OH239724   4.516   3.529  13.786  0.2976  0.3191  0.3204
 6078TIP3    H139725   4.468   3.469  13.728 -2.8112  3.0793 -0.2686
 6078TIP3    H239726   4.487   3.505  13.874  1.5810 -0.9890  0.4369
 6079TIP3   OH239727   6.825   4.599  12.279  0.1026  0.9065  0.1779
 6079TIP3    H139728   6.912   4.603  12.318  0.4113 -2.7573  0.2962
 6079TIP3    H239729   6.840   4.604  12.184  0.4793  0.3563  0.2038
 6080TIP3   OH239730   3.993   4.115  16.246 -0.0391 -0.4179  0.0823
 6080TIP3    H139731   4.070   4.064  16.272  0.6910  1.7391  2.6645
 6080TIP3    H239732   3.921   4.077  16.296 -0.0827 -0.6494 -0.1526
 6081TIP3   OH239733   0.418   5.443  13.297 -0.3712 -0.1347  0.2346
 6081TIP3    H139734   0.345   5.502  13.280 -0.9890 -0.9482 -0.0594
 6081TIP3    H239735   0.434   5.451  13.391 -0.3062  0.6403  0.1636
 6082TIP3   OH239736   1.932   3.281   3.748  0.3777  0.3280  0.0238
 6082TIP3    H139737   1.892   3.290   3.662 -0.1428  0.5696  0.2851
 6082TIP3    H239738   2.009   3.225   3.734  0.9636  1.3073 -0.8024
 6083TIP3   OH239739   5.735   6.051   1.234  0.3877  0.3254  0.4311
 6083TIP3    H139740   5.814   6.010   1.200  0.4646 -0.0287  1.0063
 6083TIP3    H239741   5.732   6.136   1.192 -0.2354 -0.5720 -1.4564
 6084TIP3   OH239742   4.567   5.924   5.747  0.1261  0.3082 -0.2544
 6084TIP3    H139743   4.656   5.944   5.717 -0.2582  0.7339 -1.1293
 6084TIP3    H239744   4.550   5.835   5.717 -0.1420  0.6206 -1.0387
 6085TIP3   OH239745   5.234   4.970   4.273  0.0170  0.4129 -0.3624
 6085TIP3    H139746   5.143   4.997   4.265 -0.1358 -0.0096 -0.0643
 6085TIP3    H239747   5.266   5.017   4.351  0.4106  1.5170 -1.1648
 6086TIP3   OH239748   4.255   0.847  12.470 -0.6751  0.7349 -0.5966
 6086TIP3    H139749   4.327   0.910  12.478  0.0055 -0.1664  0.8156
 6086TIP3    H239750   4.259   0.818  12.379 -2.4653  4.3386 -2.0385
 6087TIP3   OH239751   0.443   0.302  12.013 -0.0518  0.0216  0.4780
 6087TIP3    H139752   0.440   0.395  11.991 -0.2317 -0.0414  0.2436
 6087TIP3    H239753   0.385   0.259  11.950 -1.1372 -0.0707  1.5049
 6088TIP3   OH239754   4.009   1.297  14.773 -0.2085 -0.6051  0.1876
 6088TIP3    H139755   4.094   1.312  14.814  1.7890 -0.2766 -3.6327
 6088TIP3    H239756   3.981   1.384  14.744 -0.2508 -1.0838 -1.2971
 6089TIP3   OH239757   6.689   1.800  13.564 -0.1046 -0.1163 -0.5680
 6089TIP3    H139758   6.757   1.858  13.599 -1.0244 -0.6130  2.3694
 6089TIP3    H239759   6.647   1.763  13.642 -1.3035 -2.7024 -2.2963
 6090TIP3   OH239760   4.804   1.548   0.767 -0.6570  0.1878 -0.4018
 6090TIP3    H139761   4.807   1.638   0.735 -1.4529  0.2880 -0.2020
 6090TIP3    H239762   4.758   1.553   0.851  1.9068  0.0169  1.1267
 6091TIP3   OH239763   3.277   6.241   1.667 -0.4478  0.0216  0.9632
 6091TIP3    H139764   3.279   6.258   1.573 -0.0912 -0.2781  0.9136
 6091TIP3    H239765   3.368   6.247   1.695 -0.6946  1.4135  1.5363
 6092TIP3   OH239766   1.021   5.770   5.701 -0.0058 -0.2337 -0.1504
 6092TIP3    H139767   1.033   5.813   5.616  0.9109  1.6758  0.8685
 6092TIP3    H239768   1.032   5.841   5.764 -1.1258 -1.5235  1.5545
 6093TIP3   OH239769   0.183   1.846  11.439  0.6852 -0.0019 -0.2590
 6093TIP3    H139770   0.197   1.890  11.523  2.2568  0.7297 -0.8583
 6093TIP3    H239771   0.265   1.798  11.423  0.2230 -0.5143 -1.1467
 6094TIP3   OH239772   6.788   1.610  11.571 -0.5255  0.3882  0.3301
 6094TIP3    H139773   6.799   1.518  11.596 -0.3377  0.0213 -1.0238
 6094TIP3    H239774   6.798   1.610  11.475 -1.4554  1.6771  0.2098
 6095TIP3   OH239775   2.392   3.589  15.053 -0.0887 -0.2798 -0.1871
 6095TIP3    H139776   2.471   3.594  14.999 -0.1008  2.0811 -0.0719
 6095TIP3    H239777   2.420   3.539  15.131  0.5125 -1.8057 -1.3222
 6096TIP3   OH239778   2.833   0.860   0.655 -0.0105 -0.1243  0.0968
 6096TIP3    H139779   2.791   0.861   0.569  0.4293 -1.8726 -0.1926
 6096TIP3    H239780   2.798   0.936   0.701  0.5418  1.4761 -1.9915
 6097TIP3   OH239781   5.564   2.611  10.707  0.2046 -0.0496 -0.5577
 6097TIP3    H139782   5.525   2.696  10.687  2.0555  1.1487  0.5776
 6097TIP3    H239783   5.506   2.573  10.773 -0.6921  0.2759 -1.1399
 6098TIP3   OH239784   4.836   2.456   1.767 -0.0385  0.8588  0.4012
 6098TIP3    H139785   4.870   2.368   1.782 -0.5213  0.6057  0.0326
 6098TIP3    H239786   4.913   2.508   1.742 -0.0048  0.1527 -1.0365
 6099TIP3   OH239787   6.339   5.243   4.402  0.0857 -0.2582  0.7257
 6099TIP3    H139788   6.373   5.331   4.384  0.5842 -0.4709  0.6147
 6099TIP3    H239789   6.339   5.200   4.316 -1.7587  0.1661  0.4584
 6100TIP3   OH239790   2.957   0.287  11.072  0.0771 -0.1297  0.0803
 6100TIP3    H139791   2.963   0.306  11.166  0.0101 -0.1883  0.0970
 6100TIP3    H239792   3.001   0.202  11.062 -0.9661 -0.7167  0.2515
 6101TIP3   OH239793   1.056   5.375  13.249  0.0010 -0.2124 -0.1155
 6101TIP3    H139794   1.055   5.469  13.262  0.3455 -0.2384  0.1031
 6101TIP3    H239795   0.972   5.355  13.209 -0.8103 -0.0339  1.4141
 6102TIP3   OH239796   0.403   6.735  15.793 -0.1299 -0.0431 -0.4025
 6102TIP3    H139797   0.457   6.693  15.725  0.3476  0.6111 -0.4288
 6102TIP3    H239798   0.331   6.672  15.807  1.3706 -1.5975  0.6578
 6103TIP3   OH239799   4.987   5.738   1.022  0.2705  0.2338 -0.2739
 6103TIP3    H139800   4.927   5.680   0.975  1.7629  0.5688 -2.7411
 6103TIP3    H239801   5.041   5.680   1.074 -0.3961 -0.2935 -0.1604
 6104TIP3   OH239802   6.154   4.985  17.196  0.1018 -0.0267 -0.5732
 6104TIP3    H139803   6.075   4.960  17.148  0.3284 -0.2336 -0.8433
 6104TIP3    H239804   6.212   5.021  17.129  1.3584 -2.4585 -0.9019
 6105TIP3   OH239805   0.562   4.288  12.933 -0.5078  0.0056  0.3909
 6105TIP3    H139806   0.574   4.196  12.909  0.2788  0.3598 -0.6516
 6105TIP3    H239807   0.612   4.336  12.868  0.0596  1.1297  1.6281
 6106TIP3   OH239808   2.860   1.811   2.463 -0.4353  0.6685 -0.0736
 6106TIP3    H139809   2.789   1.769   2.414 -0.2328  0.2119  0.0169
 6106TIP3    H239810   2.815   1.867   2.527 -0.7030  1.7783 -1.1936
 6107TIP3   OH239811   2.923   5.876  10.344  0.3110  0.2005 -0.1915
 6107TIP3    H139812   3.012   5.863  10.376  0.3718  0.7697 -0.1027
 6107TIP3    H239813   2.912   5.971  10.342 -0.3401  0.1372 -0.0688
 6108TIP3   OH239814   4.605   4.138  12.261  0.3567 -0.2567 -0.3687
 6108TIP3    H139815   4.546   4.213  12.251  1.7203  0.9927  0.5988
 6108TIP3    H239816   4.593   4.110  12.352  0.2184 -0.8967 -0.5829
 6109TIP3   OH239817   0.844   3.141   5.413 -0.1621  0.4638 -0.0192
 6109TIP3    H139818   0.907   3.109   5.477 -1.3929 -0.0767  0.9675
 6109TIP3    H239819   0.853   3.236   5.415  0.4075  0.4036  0.3258
 6110TIP3   OH239820   0.147   4.711   5.842 -0.0024  0.0222  0.1196
 6110TIP3    H139821   0.177   4.794   5.806  2.1917 -0.9228 -0.3719
 6110TIP3    H239822   0.152   4.723   5.937 -1.8070  1.1167  0.1349
 6111TIP3   OH239823   5.854   1.382  12.058 -0.0922 -0.5650  0.4929
 6111TIP3    H139824   5.843   1.376  11.963 -1.6718  2.6569  0.3507
 6111TIP3    H239825   5.943   1.414  12.070  0.4772 -1.9573  0.2160
 6112TIP3   OH239826   3.756   2.630   4.153  0.2925 -0.1823  0.4137
 6112TIP3    H139827   3.838   2.592   4.184  1.0334  0.7946 -0.2980
 6112TIP3    H239828   3.782   2.711   4.109 -0.8814 -0.6677 -1.2722
 6113TIP3   OH239829   0.814   3.335  15.242 -0.0173  0.4236 -0.0243
 6113TIP3    H139830   0.909   3.320  15.251  0.2201  0.8783 -1.4826
 6113TIP3    H239831   0.794   3.305  15.154 -1.4150 -0.4466  0.5687
 6114TIP3   OH239832   3.445   6.665   5.676  0.0314 -0.1038 -0.2104
 6114TIP3    H139833   3.492   6.584   5.695 -0.0712 -0.3116 -0.8022
 6114TIP3    H239834   3.457   6.719   5.754  1.7774  0.1051 -0.5744
 6115TIP3   OH239835   1.145   0.313   0.526 -0.8254  0.2453  0.6881
 6115TIP3    H139836   1.122   0.221   0.537 -0.6072  0.0306 -0.5203
 6115TIP3    H239837   1.156   0.324   0.431  0.0745  1.2875  0.8964
 6116TIP3   OH239838   3.044   5.325  13.884  0.4510  0.3505 -0.5214
 6116TIP3    H139839   3.073   5.408  13.845  0.7152  0.2737 -0.4904
 6116TIP3    H239840   2.952   5.340  13.906  0.3642  0.4725 -0.9618
 6117TIP3   OH239841   3.022   1.184  16.835 -0.1545 -1.0823 -0.3058
 6117TIP3    H139842   2.977   1.122  16.892  2.6590 -1.5407  1.5617
 6117TIP3    H239843   2.984   1.269  16.858 -0.8973 -1.5702  0.3151
 6118TIP3   OH239844   4.487   5.874  15.579 -0.4672  0.2589  0.9009
 6118TIP3    H139845   4.467   5.962  15.548  0.6595  0.2236 -0.0130
 6118TIP3    H239846   4.435   5.816  15.524 -0.0429  0.2967  0.4508
 6119TIP3   OH239847   0.250   2.044  13.182  0.3176 -0.5897 -0.0402
 6119TIP3    H139848   0.241   2.085  13.267 -2.0888  0.8938 -0.9019
 6119TIP3    H239849   0.213   2.107  13.120  4.1001 -0.5264 -2.5885
 6120TIP3   OH239850   6.125   5.409  10.289 -0.4017  0.4785 -0.0166
 6120TIP3    H139851   6.145   5.434  10.379  1.2044  0.2705 -0.2830
 6120TIP3    H239852   6.145   5.316  10.285 -1.4911  0.2420 -0.3348
 6121TIP3   OH239853   5.196   2.047  12.689  0.0826  0.2275  0.0888
 6121TIP3    H139854   5.231   2.024  12.603 -2.0502  0.6679 -0.9709
 6121TIP3    H239855   5.120   1.990  12.700 -0.7315  1.4019  0.8626
 6122TIP3   OH239856   4.270   0.425  14.789 -0.3072 -0.0608 -0.1592
 6122TIP3    H139857   4.358   0.432  14.752  0.1854  0.1227  1.0239
 6122TIP3    H239858   4.238   0.340  14.757  0.1341  0.0429 -0.9130
 6123TIP3   OH239859   3.380   6.341  12.610 -0.0438  0.0715  0.3906
 6123TIP3    H139860   3.453   6.287  12.641  1.2704  2.1093  1.1403
 6123TIP3    H239861   3.422   6.409  12.558 -1.3636  1.4765  1.0765
 6124TIP3   OH239862   0.823   6.227   4.120 -0.2163  0.2666 -0.5671
 6124TIP3    H139863   0.834   6.317   4.151 -2.3295  0.3043  0.2772
 6124TIP3    H239864   0.756   6.233   4.052 -0.7269 -0.7077 -0.1763
 6125TIP3   OH239865   4.839   3.454   4.185  0.4294 -0.0848 -0.6032
 6125TIP3    H139866   4.916   3.480   4.235 -0.3357  1.5456 -0.2091
 6125TIP3    H239867   4.852   3.361   4.168  2.5259  0.1736 -0.6458
 6126TIP3   OH239868   4.144   3.765   0.970 -0.3027 -1.1249  0.3649
 6126TIP3    H139869   4.114   3.813   1.048  0.1012 -1.1133  0.5207
 6126TIP3    H239870   4.064   3.737   0.926 -0.5429 -0.6502  0.4874
 6127TIP3   OH239871   1.793   4.607   0.371 -0.1683  0.3722 -0.2568
 6127TIP3    H139872   1.827   4.675   0.429  0.6008 -0.1363 -0.1004
 6127TIP3    H239873   1.711   4.580   0.412  0.0810  0.4165  0.2838
 6128TIP3   OH239874   0.038   2.879   3.548 -0.9634 -0.3653 -0.4415
 6128TIP3    H139875   0.057   2.823   3.623 -0.5290 -1.0886 -1.0724
 6128TIP3    H239876  -0.053   2.860   3.527 -1.7095  1.2872  1.0797
 6129TIP3   OH239877   2.346   3.233  16.832  0.4946  0.3076 -0.8058
 6129TIP3    H139878   2.403   3.311  16.839  0.4974  0.3034 -0.7837
 6129TIP3    H239879   2.331   3.224  16.738 -0.5395  1.0774 -0.7259
 6130TIP3   OH239880   3.971   0.873  16.777  0.1436  0.2093 -0.5212
 6130TIP3    H139881   4.012   0.926  16.846  0.2196 -0.3382 -0.1415
 6130TIP3    H239882   4.045   0.835  16.729  0.0937  0.7583 -1.0456
 6131TIP3   OH239883   0.148   3.253  13.346  0.1026 -0.2539 -0.3202
 6131TIP3    H139884   0.153   3.300  13.263  1.2042  0.5900  0.1945
 6131TIP3    H239885   0.126   3.163  13.322 -0.6895  0.2139 -1.4300
 6132TIP3   OH239886   5.207   1.970   0.345 -0.0885 -1.0170  0.1813
 6132TIP3    H139887   5.184   1.957   0.253  0.2650 -0.8627  0.0704
 6132TIP3    H239888   5.184   1.888   0.388  1.5730 -1.8070 -0.3913
 6133TIP3   OH239889   6.732   1.094   4.100 -0.1778 -0.1604 -0.3256
 6133TIP3    H139890   6.772   1.075   4.015 -1.7466  0.3658 -1.2106
 6133TIP3    H239891   6.646   1.053   4.097 -0.7208  0.8513  0.5526
 6134TIP3   OH239892   6.385   5.525  14.944 -0.5614  0.2228 -0.1639
 6134TIP3    H139893   6.451   5.579  14.987 -0.4060  1.3181 -1.7040
 6134TIP3    H239894   6.415   5.435  14.956  0.2220  0.5918  0.7320
 6135TIP3   OH239895   1.196   3.411  17.119  0.5655  0.7873  0.8620
 6135TIP3    H139896   1.246   3.334  17.146 -0.8858 -0.6345 -0.3667
 6135TIP3    H239897   1.260   3.466  17.074  1.5400  0.1567  1.4225
 6136TIP3   OH239898   2.299   2.573   3.506 -0.1279  0.0815  0.6989
 6136TIP3    H139899   2.227   2.632   3.528 -0.3897  0.5116 -1.1617
 6136TIP3    H239900   2.343   2.615   3.432 -0.3411 -2.0197 -0.7270
 6137TIP3   OH239901   4.017   5.981   0.384 -0.5383  0.3797 -0.0932
 6137TIP3    H139902   4.101   5.970   0.339 -0.2842 -0.1932  0.5026
 6137TIP3    H239903   4.040   6.020   0.469 -0.8765  0.2515  0.0594
 6138TIP3   OH239904   1.185   3.187  16.099  0.0396  0.1204 -0.4096
 6138TIP3    H139905   1.276   3.215  16.091  0.8263 -1.6959  1.1901
 6138TIP3    H239906   1.172   3.126  16.026  0.5211 -0.5449  0.0481
 6139TIP3   OH239907   4.230   4.643   5.334  0.3849  0.4894 -0.1698
 6139TIP3    H139908   4.310   4.592   5.349 -0.2277 -0.3488  0.3317
 6139TIP3    H239909   4.170   4.613   5.402 -0.5709  0.6603 -0.9263
 6140TIP3   OH239910   0.830   3.134   4.838  0.0711  0.1207 -0.3062
 6140TIP3    H139911   0.888   3.189   4.891 -1.3349  1.7929 -0.4208
 6140TIP3    H239912   0.879   3.052   4.826  1.5802  0.7479  1.1914
 6141TIP3   OH239913   6.006   0.018  17.093  0.9752  0.4943 -0.1910
 6141TIP3    H139914   6.081   0.005  17.151  0.7520 -0.4093 -0.0879
 6141TIP3    H239915   5.969   0.102  17.120  0.9182  0.1220  0.9292
 6142TIP3   OH239916   5.730   0.170   0.508  0.2348 -0.2671  0.4942
 6142TIP3    H139917   5.706   0.239   0.570  0.6666 -0.6803  1.1351
 6142TIP3    H239918   5.647   0.141   0.469  0.0811  0.8426 -0.0428
 6143TIP3   OH239919   3.930   6.819   3.663 -0.5391 -0.1801  0.0521
 6143TIP3    H139920   3.968   6.755   3.723 -0.5550  0.6227  0.9420
 6143TIP3    H239921   3.884   6.767   3.598  2.0738 -1.2162 -1.0983
 6144TIP3   OH239922   1.122   1.725  10.696 -0.2060 -0.3473  0.3846
 6144TIP3    H139923   1.149   1.806  10.651  1.0906  0.2591  2.1398
 6144TIP3    H239924   1.198   1.668  10.689 -1.0120 -1.3437 -0.5861
 6145TIP3   OH239925   6.226   3.542  11.569 -0.3315 -0.6406  0.2967
 6145TIP3    H139926   6.317   3.514  11.554 -0.8213 -1.3827 -1.6862
 6145TIP3    H239927   6.184   3.466  11.610 -0.3146 -0.7134  0.1809
 6146TIP3   OH239928   3.095   3.086   2.007  0.3811  0.2445  0.0903
 6146TIP3    H139929   3.169   3.058   1.954 -1.3797 -1.9707 -1.3457
 6146TIP3    H239930   3.111   3.046   2.093  1.5443  1.0299  0.2656
 6147TIP3   OH239931   5.601   1.525  13.413 -0.5112  0.5328  0.1664
 6147TIP3    H139932   5.563   1.499  13.497 -0.7110  0.1089 -0.0502
 6147TIP3    H239933   5.535   1.582  13.374 -2.4303 -2.5901 -1.5747
 6148TIP3   OH239934   5.332   5.021   3.697 -0.3429 -0.0511  0.7428
 6148TIP3    H139935   5.367   5.110   3.701  2.1599 -0.9059 -0.2155
 6148TIP3    H239936   5.280   5.012   3.777  0.3626  1.8780  1.4610
 6149TIP3   OH239937   6.039   4.033  14.111 -0.5384  0.0263 -0.1444
 6149TIP3    H139938   6.121   3.994  14.080 -1.4218 -1.4063 -0.7213
 6149TIP3    H239939   6.040   4.017  14.205 -0.3024 -0.2534 -0.1912
 6150TIP3   OH239940   6.491   5.775  15.631 -0.1339  0.3604  0.2885
 6150TIP3    H139941   6.517   5.732  15.713 -1.6539 -1.5731 -0.1631
 6150TIP3    H239942   6.546   5.734  15.564  0.2612  1.0629  0.1780
 6151TIP3   OH239943   6.361   2.543   0.275  0.7384 -0.1543 -0.1097
 6151TIP3    H139944   6.331   2.466   0.322 -0.1459  0.8595  1.0800
 6151TIP3    H239945   6.286   2.571   0.223 -0.2881  1.9364  2.2698
 6152TIP3   OH239946   1.564   2.552   1.832  0.3070 -0.5203 -0.1574
 6152TIP3    H139947   1.483   2.601   1.816  1.4986  1.7456  0.3285
 6152TIP3    H239948   1.566   2.485   1.763 -2.1991 -1.0054  0.1392
 6153TIP3   OH239949   3.748   4.118  13.083 -0.6048 -0.5370 -0.0064
 6153TIP3    H139950   3.800   4.096  13.160  0.0094 -0.8070 -0.4991
 6153TIP3    H239951   3.657   4.105  13.111 -0.6881  2.9776  1.8847
 6154TIP3   OH239952   2.424   3.102  12.308 -0.0005 -0.2453  0.2487
 6154TIP3    H139953   2.413   3.169  12.376  0.0726 -1.6402  1.7037
 6154TIP3    H239954   2.343   3.106  12.257 -1.1140 -0.7189  1.8935
 6155TIP3   OH239955   2.919   6.184  15.893  0.3215  0.3650 -0.5633
 6155TIP3    H139956   3.003   6.211  15.856  0.7877 -0.5702 -0.2259
 6155TIP3    H239957   2.943   6.133  15.971 -0.5591  0.0785 -0.4718
 6156TIP3   OH239958   3.146   4.511  15.031 -0.0161 -0.0628 -0.3639
 6156TIP3    H139959   3.181   4.499  14.943  0.5443 -1.0692 -0.0177
 6156TIP3    H239960   3.212   4.563  15.076  0.2095 -0.4626 -0.2287
 6157TIP3   OH239961   0.626   3.306   0.809  0.6771 -0.0200  0.1806
 6157TIP3    H139962   0.700   3.263   0.851 -2.5891 -2.3700  4.2561
 6157TIP3    H239963   0.567   3.235   0.785 -1.6607  1.8467 -0.0293
 6158TIP3   OH239964   2.062   4.138  16.541  0.1875 -0.4000 -0.1004
 6158TIP3    H139965   2.121   4.184  16.600  2.1874 -0.8859 -1.5934
 6158TIP3    H239966   2.045   4.054  16.583 -1.8559  0.8212  1.6890
 6159TIP3   OH239967   3.347   4.955   0.160  0.7572  0.0293  0.3961
 6159TIP3    H139968   3.427   4.945   0.109  2.0848  1.0298  2.1594
 6159TIP3    H239969   3.302   4.871   0.150  1.9985 -0.5554 -0.6604
 6160TIP3   OH239970   2.359   1.626  15.939  0.1608 -0.3961 -0.3249
 6160TIP3    H139971   2.410   1.552  15.972 -0.6081 -0.1796  1.4808
 6160TIP3    H239972   2.299   1.647  16.010 -0.4806  1.1906 -1.2800
 6161TIP3   OH239973   0.688   0.239  12.543  0.5074  0.5028 -0.8497
 6161TIP3    H139974   0.675   0.215  12.451  0.2140  0.3123 -0.7593
 6161TIP3    H239975   0.772   0.200  12.566  0.4719  0.3512 -0.9713
 6162TIP3   OH239976   3.546   0.121   5.861 -0.1398 -0.4471  1.0037
 6162TIP3    H139977   3.628   0.169   5.854  0.1205 -0.6531  2.4557
 6162TIP3    H239978   3.517   0.135   5.951 -2.0497  0.1561  0.3409
 6163TIP3   OH239979   6.718   4.095  13.976 -0.1728  0.1094  0.3271
 6163TIP3    H139980   6.683   4.007  13.963 -0.9606  0.6116 -1.1663
 6163TIP3    H239981   6.763   4.091  14.060 -3.1572 -0.7786  2.0346
 6164TIP3   OH239982   4.637   5.747  16.570 -0.1748  0.0556 -0.1137
 6164TIP3    H139983   4.577   5.674  16.557  1.7305 -1.4937 -0.7323
 6164TIP3    H239984   4.720   5.706  16.595  0.3179  2.1660  2.0888
 6165TIP3   OH239985   4.278   4.230   5.261 -0.2496  0.3435 -0.1797
 6165TIP3    H139986   4.186   4.246   5.280 -0.6049 -1.0879 -0.5321
 6165TIP3    H239987   4.314   4.196   5.344 -0.5783 -1.0858 -0.5840
 6166TIP3   OH239988   3.268   1.473   6.229  0.3452  0.0478  0.2718
 6166TIP3    H139989   3.238   1.539   6.291 -0.0921 -0.2521  0.3809
 6166TIP3    H239990   3.311   1.407   6.283  0.7179  0.2040  0.1695
 6167TIP3   OH239991   2.920   4.587  16.138  1.0078 -0.0560 -0.3887
 6167TIP3    H139992   2.990   4.529  16.170  0.8071 -0.1737 -0.1577
 6167TIP3    H239993   2.849   4.527  16.113 -0.3562  0.1475  2.5640
 6168TIP3   OH239994   1.093   2.673   2.759  0.5053 -0.2405  0.2769
 6168TIP3    H139995   1.068   2.747   2.814  1.0364 -0.8354  1.3524
 6168TIP3    H239996   1.036   2.679   2.683 -1.8180 -0.6661  1.8878
 6169TIP3   OH239997   5.401   2.871   5.362 -0.8241 -0.1019  0.4030
 6169TIP3    H139998   5.305   2.877   5.354 -0.6481  1.9129 -1.2882
 6169TIP3    H239999   5.426   2.952   5.405  0.2436  0.5249 -1.2835
 6170TIP3   OH240000   2.181   0.541   3.392  0.0191  0.4932 -0.2822
 6170TIP3    H140001   2.238   0.533   3.469 -1.2336  2.2793  0.9121
 6170TIP3    H240002   2.237   0.579   3.325  0.7942  0.1564  0.1623
 6171TIP3   OH240003   5.049   4.841   3.602 -0.3690 -0.4006 -0.4508
 6171TIP3    H140004   4.963   4.866   3.635  0.4354 -0.5142  1.9394
 6171TIP3    H240005   5.030   4.781   3.530 -2.2527  1.5741 -1.7153
 6172TIP3   OH240006   1.917   4.514   4.168 -0.6959  0.0994  0.4916
 6172TIP3    H140007   1.826   4.494   4.145 -0.0210  0.5558 -3.0582
 6172TIP3    H240008   1.909   4.579   4.238 -3.0985  0.0339  0.3689
 6173TIP3   OH240009   3.938   0.370  16.037  0.7080 -0.1077  0.0130
 6173TIP3    H140010   3.891   0.352  15.956  1.9137 -0.2813 -0.6772
 6173TIP3    H240011   3.999   0.441  16.014 -0.5735  1.5170  1.4118
 6174TIP3   OH240012   5.753   4.497   5.462  0.2028  0.1815  0.2931
 6174TIP3    H140013   5.792   4.581   5.487  0.8726 -0.4134  1.3557
 6174TIP3    H240014   5.725   4.458   5.545 -0.7971 -0.3197 -0.2602
 6175TIP3   OH240015   6.123   6.501   5.694  0.1013 -0.5125  0.0319
 6175TIP3    H140016   6.097   6.409   5.694  1.4423 -0.9817  2.5690
 6175TIP3    H240017   6.217   6.500   5.708  0.1023  1.2586  0.4516
 6176TIP3   OH240018   5.615   4.175  11.342  0.3906  1.1848 -0.7461
 6176TIP3    H140019   5.703   4.139  11.328  0.0237 -0.1513  0.1869
 6176TIP3    H240020   5.625   4.230  11.420  0.2398  0.3766 -0.1457
 6177TIP3   OH240021   6.399   4.548  16.289  0.2616  0.3225  0.1515
 6177TIP3    H140022   6.330   4.588  16.343  0.7614 -1.3931  2.1863
 6177TIP3    H240023   6.356   4.474  16.246  0.8046 -0.8506  1.5530
 6178TIP3   OH240024   5.058   0.789   3.086 -0.4115 -0.0752 -0.2574
 6178TIP3    H140025   5.008   0.868   3.109 -0.9965 -0.1497 -1.2209
 6178TIP3    H240026   5.126   0.820   3.027  1.9262  0.3313  2.4479
 6179TIP3   OH240027   2.949   5.618  16.139 -0.1422 -0.6572 -0.3139
 6179TIP3    H140028   2.981   5.528  16.127  2.1175  0.0908 -0.5261
 6179TIP3    H240029   2.905   5.616  16.224 -0.8491 -2.1270 -0.6735
 6180TIP3   OH240030   0.616   6.403   5.043  0.5066  0.0343  0.3493
 6180TIP3    H140031   0.539   6.458   5.057 -0.7732 -0.7292 -2.7126
 6180TIP3    H240032   0.677   6.460   4.996 -0.3361 -0.6542 -1.7350
 6181TIP3   OH240033   4.610   1.322  16.362  0.3439  0.3951 -0.0736
 6181TIP3    H140034   4.578   1.249  16.415 -2.6884  1.1018 -0.7057
 6181TIP3    H240035   4.647   1.281  16.284 -0.3972 -0.5198  0.0393
 6182TIP3   OH240036   6.416   0.516  14.644  0.0237  0.0346 -0.3670
 6182TIP3    H140037   6.334   0.468  14.641  0.5335 -0.8753 -0.1808
 6182TIP3    H240038   6.477   0.464  14.591  0.3716  0.9228 -0.8668
 6183TIP3   OH240039   3.846   6.808  15.563  0.5628 -0.4782 -0.6719
 6183TIP3    H140040   3.934   6.771  15.562  0.7000 -0.2157  0.3120
 6183TIP3    H240041   3.789   6.738  15.532  1.2118 -0.3497 -2.2371
 6184TIP3   OH240042   5.126   2.564  15.139  0.1942 -0.5009  0.5131
 6184TIP3    H140043   5.206   2.588  15.185 -0.0784  2.6997 -0.4678
 6184TIP3    H240044   5.092   2.646  15.104 -3.0666 -1.8541  0.1068
 6185TIP3   OH240045   5.475   0.374   4.927 -0.0867  0.2242  0.0892
 6185TIP3    H140046   5.546   0.324   4.966 -0.5035 -1.0070 -0.6984
 6185TIP3    H240047   5.409   0.309   4.903 -1.1693  1.2631  0.1290
 6186TIP3   OH240048   4.584   5.896  14.856 -0.0472  0.2331  0.3999
 6186TIP3    H140049   4.511   5.853  14.811 -1.0381  1.4076  0.8269
 6186TIP3    H240050   4.657   5.891  14.794 -1.1914  1.2376 -1.0951
 6187TIP3   OH240051   4.812   0.565  12.415  0.1880 -0.0453 -0.7525
 6187TIP3    H140052   4.735   0.545  12.467  1.6215 -0.5168  1.3058
 6187TIP3    H240053   4.796   0.652  12.379  0.4995  1.9302  3.3650
 6188TIP3   OH240054   1.169   2.760   5.601 -0.0157  0.2476  0.5282
 6188TIP3    H140055   1.087   2.759   5.651 -0.4661  2.2260 -0.1094
 6188TIP3    H240056   1.216   2.837   5.632  0.4471  0.5691 -0.9012
 6189TIP3   OH240057   2.497   3.884  13.353  0.4287 -0.0376  0.2690
 6189TIP3    H140058   2.477   3.935  13.274  0.6605 -3.4096 -2.2266
 6189TIP3    H240059   2.420   3.895  13.409 -0.0361  1.9652 -0.6741
 6190TIP3   OH240060   0.734   0.900  15.205  0.0075  0.0519 -0.4687
 6190TIP3    H140061   0.676   0.877  15.278  0.7017 -1.5402 -0.3818
 6190TIP3    H240062   0.677   0.896  15.128 -0.5233  0.8554 -0.1302
 6191TIP3   OH240063   0.621   3.073   5.255 -0.0571 -0.1908 -0.2284
 6191TIP3    H140064   0.708   3.103   5.278  0.3082 -0.8810 -0.6772
 6191TIP3    H240065   0.570   3.084   5.336 -0.1895  2.3937 -0.5908
 6192TIP3   OH240066   1.835   1.833   2.480  0.4483  0.4267 -0.0649
 6192TIP3    H140067   1.895   1.899   2.446 -0.1583  0.4666 -1.0719
 6192TIP3    H240068   1.766   1.825   2.414  0.2607 -0.8816  0.2467
 6193TIP3   OH240069   5.654   0.054   6.152  0.8902 -0.1671  0.6195
 6193TIP3    H140070   5.598   0.132   6.156 -0.2532 -0.9789  3.7183
 6193TIP3    H240071   5.741   0.087   6.130 -0.1325  1.5585 -1.0526
 6194TIP3   OH240072   5.763   0.194   4.910  0.3317 -0.5888 -0.2424
 6194TIP3    H140073   5.798   0.255   4.844 -1.2119 -1.0389 -1.5489
 6194TIP3    H240074   5.786   0.233   4.994 -2.3172  2.9970 -0.9349
 6195TIP3   OH240075   5.341   0.356  12.396  0.3423 -0.0963 -0.1878
 6195TIP3    H140076   5.436   0.362  12.387  0.5626 -0.8963  1.2875
 6195TIP3    H240077   5.326   0.268  12.429 -0.9606 -0.0940 -0.7145
 6196TIP3   OH240078   0.380   0.504   1.460 -0.2382 -0.3522  0.2467
 6196TIP3    H140079   0.303   0.465   1.502  0.6306  0.6001  2.9308
 6196TIP3    H240080   0.453   0.484   1.519  1.3885 -0.2549 -1.6472
 6197TIP3   OH240081   0.548   1.334   1.557  0.5200  0.1461  0.0403
 6197TIP3    H140082   0.605   1.279   1.505 -1.5028 -2.0863 -0.0124
 6197TIP3    H240083   0.600   1.358   1.634  1.4008 -2.2539  0.2768
 6198TIP3   OH240084   2.480   6.771  13.196  0.2195  0.5648 -0.1393
 6198TIP3    H140085   2.412   6.775  13.129  1.3528  2.0706 -1.2675
 6198TIP3    H240086   2.555   6.731  13.153  0.6038  0.4850  0.5809
 6199TIP3   OH240087   4.725   5.201  13.697 -0.2732  0.0951  1.0937
 6199TIP3    H140088   4.752   5.247  13.618  1.7734 -0.7416  1.2499
 6199TIP3    H240089   4.649   5.250  13.728 -0.2185  1.3279 -0.5577
 6200TIP3   OH240090   4.435   5.889   2.786 -0.0900  0.0241  0.0178
 6200TIP3    H140091   4.455   5.957   2.721 -1.7664  0.0762 -0.4924
 6200TIP3    H240092   4.475   5.810   2.750  0.9447  0.5133  0.0690
 6201TIP3   OH240093   5.766   5.443  15.442  0.2082 -0.0078 -0.0690
 6201TIP3    H140094   5.796   5.519  15.393  1.3342 -0.6105 -0.3501
 6201TIP3    H240095   5.742   5.478  15.528 -4.9197  1.6555 -1.8062
 6202TIP3   OH240096   3.227   0.354  12.867  0.3046  0.3251 -0.2475
 6202TIP3    H140097   3.187   0.315  12.945 -0.1196  0.3857 -0.4329
 6202TIP3    H240098   3.157   0.354  12.801  0.2173  1.5845 -0.1922
 6203TIP3   OH240099   4.377   3.362   2.046 -0.2294 -0.0851 -0.3866
 6203TIP3    H140100   4.428   3.435   2.081  0.6497 -0.8378 -0.0642
 6203TIP3    H240101   4.298   3.360   2.099 -0.5756  1.0506 -0.8400
 6204TIP3   OH240102   0.492   6.534  15.569 -0.4879  0.2836 -0.5852
 6204TIP3    H140103   0.525   6.448  15.542 -0.8035 -0.1732  0.4531
 6204TIP3    H240104   0.436   6.562  15.496  0.6945  0.2518 -1.5503
 6205TIP3   OH240105   5.923   5.777  12.300  0.2396  0.3766 -0.2257
 6205TIP3    H140106   5.884   5.747  12.382 -1.6385  1.6135 -0.5925
 6205TIP3    H240107   6.011   5.739  12.299  1.0813  1.8904  3.2919
 6206TIP3   OH240108   2.261   3.230  16.245  0.3230  0.0183 -0.5592
 6206TIP3    H140109   2.317   3.189  16.178  0.9935  0.3277 -0.2011
 6206TIP3    H240110   2.316   3.299  16.282 -1.2040  2.2079 -2.0979
 6207TIP3   OH240111   2.135   2.248  11.903 -0.4079 -0.0689  0.4013
 6207TIP3    H140112   2.166   2.318  11.960 -0.8076  0.4775 -0.0445
 6207TIP3    H240113   2.145   2.168  11.955  0.1079  0.3099  0.8865
 6208TIP3   OH240114   1.091   5.286   3.834 -0.2522 -0.0954 -0.3503
 6208TIP3    H140115   1.089   5.380   3.853 -0.6879 -0.3120  0.7674
 6208TIP3    H240116   1.171   5.255   3.877  0.5892 -0.0294 -1.8252
 6209TIP3   OH240117   0.146   6.102   5.213  0.2863  0.4371 -0.0026
 6209TIP3    H140118   0.111   6.147   5.137  1.5531 -0.2567 -1.0465
 6209TIP3    H240119   0.240   6.096   5.196  0.1516 -3.0492 -0.2407
 6210TIP3   OH240120   5.294   5.627   0.976  0.0381  0.1936  0.6667
 6210TIP3    H140121   5.373   5.666   1.014  1.1059 -0.7799 -0.4702
 6210TIP3    H240122   5.285   5.543   1.021 -0.0544  0.0870  0.4496
 6211TIP3   OH240123   0.586   1.551  15.009  0.1820  0.4850  0.0574
 6211TIP3    H140124   0.498   1.515  15.023  0.3139  0.4459  0.8484
 6211TIP3    H240125   0.576   1.611  14.936  0.1727 -1.9157 -2.0469
 6212TIP3   OH240126   6.142   4.023  11.407  0.0122 -0.3357 -1.0505
 6212TIP3    H140127   6.122   4.016  11.500  0.4369  0.6331 -0.8744
 6212TIP3    H240128   6.213   3.961  11.393  1.3592  0.9604 -0.2761
 6213TIP3   OH240129   5.004   1.181   0.345 -0.4856 -0.3232 -0.0042
 6213TIP3    H140130   4.961   1.110   0.296 -1.8580 -0.2280  0.9849
 6213TIP3    H240131   4.970   1.172   0.434 -0.7064  1.5821  0.1406
 6214TIP3   OH240132   4.887   0.548   5.108 -0.2744  0.2899  0.1550
 6214TIP3    H140133   4.835   0.608   5.054 -0.5504 -0.9441 -0.9886
 6214TIP3    H240134   4.822   0.491   5.149 -0.1022  1.3809  2.1067
 6215TIP3   OH240135   5.510   3.118   3.433 -0.7451  0.1967 -0.5793
 6215TIP3    H140136   5.431   3.066   3.448 -1.7031  2.0696  1.4218
 6215TIP3    H240137   5.478   3.203   3.404  0.5472  0.8288 -0.2444
 6216TIP3   OH240138   2.387   5.096   0.167  0.6322  0.0705 -0.2805
 6216TIP3    H140139   2.366   5.189   0.160 -1.2178 -0.2717  0.2209
 6216TIP3    H240140   2.402   5.068   0.076 -1.0147  0.4137 -0.6991
 6217TIP3   OH240141   3.819   0.862  13.409  0.7191 -0.1344 -0.5567
 6217TIP3    H140142   3.854   0.922  13.344 -0.1189 -0.6517 -1.5164
 6217TIP3    H240143   3.866   0.780  13.394  2.1632  0.3422  1.0269
 6218TIP3   OH240144   6.485   5.568   4.708 -0.1694  0.3297  0.2325
 6218TIP3    H140145   6.511   5.628   4.637  0.4592  1.7652  1.6282
 6218TIP3    H240146   6.507   5.615   4.788  0.6766 -1.9421  1.4052
 6219TIP3   OH240147   0.188   1.241   5.904 -0.6074  0.2055 -0.1106
 6219TIP3    H140148   0.281   1.266   5.908 -0.8842  1.5812 -1.5862
 6219TIP3    H240149   0.144   1.303   5.962 -0.7368  0.2107 -0.2152
 6220TIP3   OH240150   1.672   5.097   2.637  0.1802  0.3101 -0.1795
 6220TIP3    H140151   1.646   5.113   2.728 -0.5143  0.2148 -0.3515
 6220TIP3    H240152   1.624   5.018   2.612 -0.4418  0.9089 -0.9438
 6221TIP3   OH240153   3.474   5.093  17.133  0.3484  0.1889  0.1129
 6221TIP3    H140154   3.380   5.074  17.133  0.5541 -1.1686 -2.2645
 6221TIP3    H240155   3.512   5.027  17.191  0.0698 -1.0981 -1.0941
 6222TIP3   OH240156   4.925   2.642  13.504 -0.4677 -0.0521 -0.2214
 6222TIP3    H140157   4.973   2.610  13.427  1.7763  0.2746  0.9787
 6222TIP3    H240158   4.847   2.685  13.467  1.1154  1.1175 -2.4189
 6223TIP3   OH240159   0.525   4.853  15.221  0.4522 -0.0532  0.5423
 6223TIP3    H140160   0.536   4.790  15.150  1.5924  0.0212  0.6465
 6223TIP3    H240161   0.561   4.809  15.298  2.3390  1.1492  0.3864
 6224TIP3   OH240162   6.071   3.062  11.507 -0.7327 -0.0210 -0.8413
 6224TIP3    H140163   6.083   3.148  11.467  0.6032  0.0127 -0.3975
 6224TIP3    H240164   5.980   3.039  11.487 -0.9723  1.2908 -1.3437
 6225TIP3   OH240165   2.051   4.259   4.501  0.1528  0.7577 -0.0309
 6225TIP3    H140166   2.077   4.271   4.410 -0.8297  0.5035 -0.3623
 6225TIP3    H240167   2.106   4.188   4.533  2.7642  2.8800  0.5674
 6226TIP3   OH240168   5.286   6.643  14.670 -0.5010  0.4951 -0.1568
 6226TIP3    H140169   5.207   6.690  14.698 -0.4507  0.4878 -0.0036
 6226TIP3    H240170   5.338   6.634  14.750 -1.4127 -1.5890  0.2576
 6227TIP3   OH240171   2.386   2.832   6.505  0.2823 -0.0079 -0.2001
 6227TIP3    H140172   2.354   2.882   6.581 -1.3426 -0.0172 -0.8266
 6227TIP3    H240173   2.426   2.898   6.449 -0.2166  0.3166 -0.1877
 6228TIP3   OH240174   6.324   1.693  14.321  0.2657  0.0509  0.4310
 6228TIP3    H140175   6.369   1.778  14.319 -1.9596  1.2933 -1.3591
 6228TIP3    H240176   6.391   1.629  14.297  1.9366  1.2849  1.5819
 6229TIP3   OH240177   4.518   3.821   5.602 -0.3505 -0.0317 -0.3277
 6229TIP3    H140178   4.606   3.800   5.634 -0.3139  0.0313 -0.3884
 6229TIP3    H240179   4.481   3.736   5.577 -0.1257 -0.0038 -0.7659
 6230TIP3   OH240180   0.193   1.812  15.363 -0.7072  0.0172  0.5328
 6230TIP3    H140181   0.230   1.798  15.276 -0.0006  0.3320  0.7716
 6230TIP3    H240182   0.100   1.826  15.347 -0.2045  2.9425 -0.5163
 6231TIP3   OH240183   5.839   5.436  16.157  0.2309 -0.2755  0.4793
 6231TIP3    H140184   5.904   5.486  16.208  0.5228  2.2079 -2.0598
 6231TIP3    H240185   5.892   5.382  16.098 -0.0771 -1.0351  0.8887
 6232TIP3   OH240186   5.068   4.253   2.150 -0.5019 -0.1253 -0.2657
 6232TIP3    H140187   5.038   4.181   2.206  0.6881 -0.8292 -0.4968
 6232TIP3    H240188   5.001   4.260   2.082 -0.9690 -0.5784  0.1390
 6233TIP3   OH240189   3.330   0.385   1.202 -0.0977  0.2146 -0.2865
 6233TIP3    H140190   3.347   0.457   1.141 -1.7167  0.3438 -0.6355
 6233TIP3    H240191   3.260   0.417   1.258  0.1249 -0.5848  0.4690
 6234TIP3   OH240192   5.482   6.637  13.614 -0.0940 -0.1240 -0.3610
 6234TIP3    H140193   5.558   6.657  13.559  1.3124 -0.3993  1.3995
 6234TIP3    H240194   5.489   6.698  13.687  0.3039 -2.2989  1.4912
 6235TIP3   OH240195   6.374   2.168  17.044 -0.4622  0.0172  0.0999
 6235TIP3    H140196   6.353   2.099  16.981 -1.5365 -0.2729  0.7561
 6235TIP3    H240197   6.467   2.187  17.028 -0.1144 -1.6312 -0.0439
 6236TIP3   OH240198   3.930   6.155  13.996  0.2635  0.0057 -0.6644
 6236TIP3    H140199   3.986   6.232  13.986 -0.6521  0.8199  0.2008
 6236TIP3    H240200   3.862   6.183  14.057  1.1865 -2.1968  1.5424
 6237TIP3   OH240201   3.846   5.360  15.415 -0.5394 -0.2518  0.5130
 6237TIP3    H140202   3.779   5.305  15.454 -0.8217  0.5943  1.2649
 6237TIP3    H240203   3.927   5.309  15.422 -1.0845 -1.2994 -0.4437
 6238TIP3   OH240204   6.018   1.969  14.757  0.0788  0.1366  0.1917
 6238TIP3    H140205   5.931   1.939  14.781  0.9358 -1.2564  1.7835
 6238TIP3    H240206   6.017   1.971  14.661 -1.6382  0.0113  0.1760
 6239TIP3   OH240207   4.790   0.932   4.090 -0.3507 -0.2778 -0.0135
 6239TIP3    H140208   4.793   0.855   4.147  0.8734  0.0255  0.3531
 6239TIP3    H240209   4.794   1.006   4.150 -3.3177  0.1892 -0.2101
 6240TIP3   OH240210   5.126   6.806   4.531 -0.0821 -0.5502  0.2159
 6240TIP3    H140211   5.186   6.837   4.463 -0.7049 -0.2664 -0.2089
 6240TIP3    H240212   5.184   6.770   4.599  0.6201  0.7014  0.3201
 6241TIP3   OH240213   1.215   2.951  11.100  0.2560  0.0615  0.8533
 6241TIP3    H140214   1.230   2.862  11.066 -2.7787 -0.1099 -0.3300
 6241TIP3    H240215   1.213   3.006  11.022 -3.3998  0.2123  0.9261
 6242TIP3   OH240216   2.426   0.178   3.544 -0.0797 -0.3572  0.1105
 6242TIP3    H140217   2.454   0.234   3.616 -0.8741 -0.2581  0.3620
 6242TIP3    H240218   2.421   0.237   3.468  2.9143 -0.8939 -0.6138
 6243TIP3   OH240219   3.026   2.060   3.550 -0.4937  0.2516 -0.1395
 6243TIP3    H140220   3.058   2.030   3.636 -0.4139 -0.2926 -0.3581
 6243TIP3    H240221   3.074   2.142   3.535  0.7065 -0.4812 -0.3965
 6244TIP3   OH240222   6.497   4.006  17.219  0.3054 -0.2343 -0.2198
 6244TIP3    H140223   6.563   3.965  17.274 -0.7320 -0.4437  0.9109
 6244TIP3    H240224   6.543   4.079  17.176  1.6619 -1.3475 -0.7473
 6245TIP3   OH240225   4.094   3.097  16.577 -0.0247  0.0393  0.3196
 6245TIP3    H140226   4.015   3.150  16.581 -0.2979 -0.4138  1.0228
 6245TIP3    H240227   4.071   3.015  16.620  0.7298 -0.2235  0.2447
 6246TIP3   OH240228   5.444   0.802  15.168 -0.2438  0.6824 -0.1877
 6246TIP3    H140229   5.442   0.895  15.149 -0.3033  0.4263 -1.6046
 6246TIP3    H240230   5.521   0.769  15.120 -0.0313  0.0502  0.5549
 6247TIP3   OH240231   4.802   5.195   4.633 -0.3514  0.1115  0.3031
 6247TIP3    H140232   4.850   5.268   4.672 -1.5319  0.2194  1.6580
 6247TIP3    H240233   4.760   5.151   4.707  1.1395 -2.6206 -0.3344
 6248TIP3   OH240234   5.433   1.331  12.351  0.1314  0.2352 -0.0438
 6248TIP3    H140235   5.481   1.295  12.426 -0.1763  0.9842  0.5263
 6248TIP3    H240236   5.497   1.330  12.280  0.4684 -0.3690  0.2551
 6249TIP3   OH240237   0.008   3.638  16.099  0.0943 -0.9941  0.0602
 6249TIP3    H140238  -0.023   3.687  16.023 -1.5244 -0.0059  1.2831
 6249TIP3    H240239   0.079   3.692  16.135  2.0432 -2.2751 -1.5955
 6250TIP3   OH240240   1.162   2.061  11.432 -0.1295 -0.3400 -0.2287
 6250TIP3    H140241   1.251   2.087  11.458 -0.5438 -0.2232  1.1744
 6250TIP3    H240242   1.168   1.967  11.420 -0.0100 -0.4896  0.8471
 6251TIP3   OH240243   2.528   4.317  10.809 -0.3283  1.0448 -0.8322
 6251TIP3    H140244   2.586   4.264  10.754 -0.1190  1.0239 -0.5901
 6251TIP3    H240245   2.514   4.397  10.759 -0.2804  0.9523 -0.9947
 6252TIP3   OH240246   0.471   6.369  13.458  0.2542 -0.4479  0.0297
 6252TIP3    H140247   0.521   6.297  13.497  0.3210  0.7094  2.1933
 6252TIP3    H240248   0.510   6.380  13.371  1.7222 -1.5554  0.4987
 6253TIP3   OH240249   1.285   4.479  11.438  0.0918  0.2832  0.1633
 6253TIP3    H140250   1.266   4.465  11.531  0.3381  1.2657  0.3684
 6253TIP3    H240251   1.356   4.418  11.419 -0.3365 -0.3318  0.4681
 6254TIP3   OH240252   1.637   3.541   0.987  0.0644  0.2217  0.1237
 6254TIP3    H140253   1.732   3.545   0.981 -0.0035  0.0887 -1.1812
 6254TIP3    H240254   1.619   3.539   1.082  1.3032  1.0722  0.3895
 6255TIP3   OH240255   2.607   6.123  14.231  0.2875  1.0580 -0.6098
 6255TIP3    H140256   2.541   6.161  14.288  0.6934  0.3661  0.3416
 6255TIP3    H240257   2.664   6.197  14.207  1.1017  1.0824  1.2591
 6256TIP3   OH240258   2.732   3.106  12.408  0.0888 -0.2745 -0.4100
 6256TIP3    H140259   2.694   3.184  12.368 -0.3277 -0.5366 -0.5231
 6256TIP3    H240260   2.797   3.076  12.345  0.5092  0.1850 -0.2065
 6257TIP3   OH240261   1.962   4.278   3.231  0.0741  0.3667 -0.2476
 6257TIP3    H140262   2.038   4.337   3.240 -0.0976  0.4672  0.7112
 6257TIP3    H240263   1.890   4.336   3.208  0.1406  0.3731 -0.4409
 6258TIP3   OH240264   6.326   1.885   4.228  0.3506 -0.1408 -0.3730
 6258TIP3    H140265   6.397   1.948   4.230 -1.8644  2.5426  1.7088
 6258TIP3    H240266   6.335   1.836   4.310  0.6388 -0.8832 -0.8339
 6259TIP3   OH240267   2.029   0.884   3.995 -0.0209  0.2804  1.4003
 6259TIP3    H140268   2.020   0.913   4.085  0.8709 -0.0644  1.6143
 6259TIP3    H240269   2.047   0.790   4.001  1.4801  0.5089  0.9604
 6260TIP3   OH240270   5.072   5.034   1.319  0.1313  0.1873 -0.0613
 6260TIP3    H140271   5.132   5.039   1.245 -0.1926  1.2315 -0.2643
 6260TIP3    H240272   5.127   5.004   1.392  0.4510 -0.8419 -0.7091
 6261TIP3   OH240273   3.934   2.220  13.245 -0.6848 -0.1582 -0.2837
 6261TIP3    H140274   3.930   2.139  13.193 -0.9770 -0.8157  0.7331
 6261TIP3    H240275   3.941   2.290  13.180  1.5048 -1.1065 -1.1536
 6262TIP3   OH240276   4.839   6.796  10.934  0.4960  0.6884  0.3445
 6262TIP3    H140277   4.839   6.859  10.862  1.2562  0.2955 -0.0165
 6262TIP3    H240278   4.927   6.758  10.931 -0.2772 -1.1574 -0.1207
 6263TIP3   OH240279   4.910   1.022   3.189 -0.5272 -0.5485 -0.0365
 6263TIP3    H140280   4.884   1.079   3.116  0.0047  0.3884  0.4821
 6263TIP3    H240281   4.904   1.079   3.266  0.4592 -1.0746  0.4350
 6264TIP3   OH240282   6.547   4.061   2.760 -0.1216 -0.3922  0.3660
 6264TIP3    H140283   6.539   4.065   2.665  1.0146 -1.5961  0.1875
 6264TIP3    H240284   6.488   3.990   2.786 -2.1459  1.3652  0.8519
 6265TIP3   OH240285   6.813   1.113  16.994 -0.0569  0.6166  0.2742
 6265TIP3    H140286   6.799   1.208  16.992 -1.8385  0.3811 -1.3119
 6265TIP3    H240287   6.793   1.089  17.085 -0.1776  1.6772  0.5490
 6266TIP3   OH240288   0.571   5.932  14.406  0.7639 -0.4259  0.5853
 6266TIP3    H140289   0.655   5.908  14.365  0.7899 -2.0856  1.5047
 6266TIP3    H240290   0.552   5.858  14.464 -1.2864 -0.0151  0.4819
 6267TIP3   OH240291   0.673   1.201   2.788  0.6290 -0.3685 -0.5375
 6267TIP3    H140292   0.675   1.185   2.694  1.1991  0.2434 -0.6329
 6267TIP3    H240293   0.759   1.175   2.820  0.1086 -1.5583  0.0018
 6268TIP3   OH240294   3.345   6.221  13.885 -0.4547  0.0986 -0.5484
 6268TIP3    H140295   3.347   6.244  13.792 -0.8569  0.8017 -0.3897
 6268TIP3    H240296   3.423   6.167  13.898  1.5706  2.8060 -0.5634
 6269TIP3   OH240297   1.062   0.685   4.940  0.6588  0.1582  0.1347
 6269TIP3    H140298   1.097   0.629   5.009 -0.6497 -2.2277 -0.9863
 6269TIP3    H240299   0.974   0.708   4.970  0.5162  0.0727 -0.2114
 6270TIP3   OH240300   0.563   6.717  17.250 -0.2015  0.4870  0.1200
 6270TIP3    H140301   0.513   6.636  17.252  0.8773 -0.1906  2.0713
 6270TIP3    H240302   0.602   6.719  17.163 -0.7699 -0.7414 -0.1838
 6271TIP3   OH240303   6.698   1.637   6.145 -0.7398  0.1650 -0.1511
 6271TIP3    H140304   6.739   1.635   6.231 -1.4783 -1.2724  0.2019
 6271TIP3    H240305   6.607   1.611   6.161 -0.8632 -0.2379 -1.3724
 6272TIP3   OH240306   0.249   4.225  12.055 -0.2449  0.0823  0.0288
 6272TIP3    H140307   0.316   4.265  12.111 -0.8422 -0.7843  1.3872
 6272TIP3    H240308   0.206   4.300  12.013  1.8611  0.6471 -1.2773
 6273TIP3   OH240309   5.709   2.903   5.542  1.0120  0.1356  0.3510
 6273TIP3    H140310   5.668   2.985   5.514  0.2609 -0.0621  0.8513
 6273TIP3    H240311   5.761   2.927   5.619  1.2699  0.2504  0.1430
 6274TIP3   OH240312   4.338   5.907   3.696 -0.5375 -0.0847  0.9169
 6274TIP3    H140313   4.399   5.889   3.768  0.5060 -1.2062 -0.1857
 6274TIP3    H240314   4.378   5.863   3.621  0.0805  3.5906 -1.1354
 6275TIP3   OH240315   1.689   4.417   0.147 -0.1266  0.5094 -0.1091
 6275TIP3    H140316   1.727   4.438   0.061  0.2515  0.2324 -0.0162
 6275TIP3    H240317   1.703   4.496   0.199  1.5714 -0.0437  0.3377
 6276TIP3   OH240318   5.365   6.512  13.002  0.3350 -0.2470 -0.3018
 6276TIP3    H140319   5.345   6.432  13.049  0.5180 -0.8596 -1.2370
 6276TIP3    H240320   5.279   6.543  12.970  0.3713 -0.6176 -0.7764
 6277TIP3   OH240321   4.885   3.460   4.500  0.2321 -0.2867 -0.6012
 6277TIP3    H140322   4.931   3.377   4.509  1.7158  0.5027 -0.7071
 6277TIP3    H240323   4.843   3.473   4.585  0.7972 -0.6733 -0.2545
 6278TIP3   OH240324   4.888   5.530   4.298  0.3763  0.5990 -0.2991
 6278TIP3    H140325   4.806   5.539   4.249  0.3492  0.8562 -0.2114
 6278TIP3    H240326   4.919   5.442   4.278  0.1298  0.5367 -0.4143
 6279TIP3   OH240327   6.666   4.762   0.039 -0.3812 -0.1469  0.0667
 6279TIP3    H140328   6.649   4.793  -0.050 -0.3135  1.1456  0.4866
 6279TIP3    H240329   6.675   4.667   0.030 -1.6001 -0.1722 -1.1051
 6280TIP3   OH240330   0.864   1.446   2.605 -0.3181  0.5092 -0.3039
 6280TIP3    H140331   0.913   1.363   2.608  1.7326  1.5935 -1.2834
 6280TIP3    H240332   0.826   1.455   2.692 -1.5241 -1.9460 -0.4839
 6281TIP3   OH240333   0.738   3.663  14.264  0.2979  0.2480  0.0212
 6281TIP3    H140334   0.767   3.573  14.284  1.1797  0.3112 -0.8912
 6281TIP3    H240335   0.709   3.659  14.173 -0.9061  0.6094  0.3764
 6282TIP3   OH240336   1.772   1.286   2.132  0.0395 -0.2608 -0.3901
 6282TIP3    H140337   1.791   1.218   2.067 -0.0389 -0.2342 -0.4402
 6282TIP3    H240338   1.731   1.356   2.083  1.3854  0.4122 -0.5885
 6283TIP3   OH240339   5.711   3.575  13.529 -0.0559  0.2615 -0.0173
 6283TIP3    H140340   5.666   3.586  13.445  2.4435  2.0087 -1.2626
 6283TIP3    H240341   5.758   3.492  13.519 -1.2071 -0.4623  0.4248
 6284TIP3   OH240342   2.562   5.574  16.375  0.0926  0.0757 -0.0653
 6284TIP3    H140343   2.501   5.611  16.439  0.4507  0.8563 -0.1552
 6284TIP3    H240344   2.646   5.575  16.419 -0.1914 -2.5449  0.6591
 6285TIP3   OH240345   3.696   4.932   3.074 -0.2459  0.4126  0.7598
 6285TIP3    H140346   3.655   4.928   3.160  1.0670  0.0148  1.4019
 6285TIP3    H240347   3.699   5.025   3.052 -0.9790  0.4838  0.9342
 6286TIP3   OH240348   5.017   5.138   6.139 -0.2682 -0.5734  0.0222
 6286TIP3    H140349   5.018   5.066   6.203 -0.2923 -0.7681 -0.1955
 6286TIP3    H240350   4.934   5.182   6.154  2.0589  3.1683  4.3057
 6287TIP3   OH240351   4.043   0.085  17.190 -0.2572  0.0712 -0.0219
 6287TIP3    H140352   3.982   0.159  17.197 -1.5260 -0.9407  0.0997
 6287TIP3    H240353   4.051   0.069  17.096  1.4623  1.4732 -0.1572
 6288TIP3   OH240354   2.422   4.982   4.868  0.6107 -1.0012  0.0839
 6288TIP3    H140355   2.464   5.012   4.787  0.6974 -0.3155  0.3769
 6288TIP3    H240356   2.345   5.037   4.876 -0.4806 -2.3749 -0.5474
 6289TIP3   OH240357   4.036   0.385  16.777  0.2510 -0.0790  0.2666
 6289TIP3    H140358   4.034   0.416  16.687  1.0826  0.1182  0.3079
 6289TIP3    H240359   3.948   0.349  16.792  0.1970 -0.3770 -0.7110
 6290TIP3   OH240360   4.477   4.257   1.342  0.0514 -0.1028 -0.2898
 6290TIP3    H140361   4.455   4.313   1.268 -1.2626  0.6794  0.6405
 6290TIP3    H240362   4.461   4.168   1.311  1.4570  0.0509 -1.5554
 6291TIP3   OH240363   4.946   4.037  15.746 -0.3191 -0.3634  0.2399
 6291TIP3    H140364   4.873   4.093  15.717  1.0770  1.4626  0.0750
 6291TIP3    H240365   4.943   4.042  15.841 -0.7572 -0.7584  0.2465
 6292TIP3   OH240366   2.310   4.915  16.387 -0.4667  0.1228  0.0014
 6292TIP3    H140367   2.286   4.972  16.314  0.2981 -0.6172 -0.8637
 6292TIP3    H240368   2.281   4.961  16.465  0.3091  1.7885 -0.6478
 6293TIP3   OH240369   0.237   5.166   3.566  0.6562  0.4620  0.1507
 6293TIP3    H140370   0.242   5.165   3.662 -0.8137 -0.5024  0.2590
 6293TIP3    H240371   0.318   5.208   3.538  1.3610  0.2909  1.8007
 6294TIP3   OH240372   0.524   3.564   5.041 -0.5037  1.3190 -0.0592
 6294TIP3    H140373   0.589   3.612   4.989 -1.4959  0.9545 -1.7226
 6294TIP3    H240374   0.557   3.474   5.043  0.3161  1.6297  1.3031
 6295TIP3   OH240375   5.057   1.566   5.687 -0.1251 -0.5490  1.2384
 6295TIP3    H140376   4.993   1.636   5.673 -0.3591 -0.9096  0.4743
 6295TIP3    H240377   5.099   1.588   5.771  1.6315  1.9573 -0.1480
 6296TIP3   OH240378   5.194   3.439   2.427  0.2929  0.0415 -0.0321
 6296TIP3    H140379   5.132   3.371   2.400  0.2391  0.2916 -0.5585
 6296TIP3    H240380   5.279   3.396   2.429 -0.0535 -0.6936  2.1253
 6297TIP3   OH240381   4.006   2.639   0.286  0.2509  0.0994 -0.7534
 6297TIP3    H140382   4.079   2.599   0.241  1.0477  1.2893 -0.5758
 6297TIP3    H240383   3.956   2.566   0.321  0.2797 -0.8013 -2.5023
 6298TIP3   OH240384   2.169   0.058   4.049  0.3777  0.3558  0.3632
 6298TIP3    H140385   2.079   0.082   4.070  0.3580  0.0437  0.6504
 6298TIP3    H240386   2.223   0.114   4.105  0.3533  0.3035  0.4391
 6299TIP3   OH240387   0.414   6.584   3.889  0.4217  0.1810 -0.6441
 6299TIP3    H140388   0.440   6.640   3.963  1.2284 -0.1389 -0.6775
 6299TIP3    H240389   0.333   6.624   3.856 -1.3812 -1.0371  1.9218
 6300TIP3   OH240390   1.205   0.441  15.194 -0.4074 -0.6515  0.0720
 6300TIP3    H140391   1.185   0.399  15.111 -1.3181 -1.3547  0.6373
 6300TIP3    H240392   1.184   0.376  15.260 -0.0871  0.0449  0.8798
 6301TIP3   OH240393   0.072   6.143   1.337  0.3163 -0.2493 -0.0337
 6301TIP3    H140394   0.117   6.158   1.421  1.4763  1.0468 -0.8462
 6301TIP3    H240395  -0.003   6.088   1.360  0.6779 -0.0442  1.8329
 6302TIP3   OH240396   3.937   1.205  12.893  0.2501  0.7100 -0.3419
 6302TIP3    H140397   3.880   1.162  12.957 -0.9834  1.3676 -0.9562
 6302TIP3    H240398   3.982   1.273  12.941  0.5934  0.1335  0.1707
 6303TIP3   OH240399   2.326   2.240   2.401 -0.2162  0.0926 -0.3231
 6303TIP3    H140400   2.258   2.223   2.336 -1.6845 -0.1248  1.1887
 6303TIP3    H240401   2.354   2.153   2.429  0.8240  0.1769 -1.0186
 6304TIP3   OH240402   1.760   5.472  16.065  0.1863  0.4806 -0.1727
 6304TIP3    H140403   1.758   5.559  16.025  1.3124  0.8219  0.4588
 6304TIP3    H240404   1.848   5.439  16.045  0.4682  0.3169  1.2829
 6305TIP3   OH240405   3.806   2.104   2.165  0.3065 -0.1701  0.1240
 6305TIP3    H140406   3.736   2.165   2.188  2.1853  1.7353  1.1310
 6305TIP3    H240407   3.844   2.079   2.249  0.9413 -1.0583 -0.4133
 6306TIP3   OH240408   5.765   5.108  11.834  0.0493  0.2683 -0.1534
 6306TIP3    H140409   5.761   5.199  11.865  0.1765  0.4560 -0.6718
 6306TIP3    H240410   5.676   5.089  11.805  0.5347  1.0993 -2.4162
 6307TIP3   OH240411   1.841   2.318  12.449  0.2874 -0.1371  0.3898
 6307TIP3    H140412   1.878   2.395  12.492  0.1295  0.3275 -0.2901
 6307TIP3    H240413   1.749   2.341  12.434  0.4254 -0.1397 -0.5163
 6308TIP3   OH240414   2.009   4.331  12.624 -0.9824 -0.0509 -0.1395
 6308TIP3    H140415   2.028   4.418  12.588  1.2513 -0.6443 -0.5669
 6308TIP3    H240416   1.970   4.348  12.709 -0.1975  1.3846 -0.0322
 6309TIP3   OH240417   2.634   4.618   5.382  0.7567 -0.4186  0.4531
 6309TIP3    H140418   2.577   4.679   5.336  0.9341 -0.5746  0.0224
 6309TIP3    H240419   2.659   4.665   5.462 -2.0415 -1.3256  2.0068
 6310TIP3   OH240420   3.013   0.592  13.451 -0.4297 -0.4206 -0.2775
 6310TIP3    H140421   3.108   0.597  13.444 -0.3462  0.7460  1.2771
 6310TIP3    H240422   2.981   0.660  13.391 -0.0706  2.1749  2.2357
 6311TIP3   OH240423   5.737   6.757  15.147  0.2895  0.0026  0.0051
 6311TIP3    H140424   5.793   6.786  15.218 -0.2207 -0.1517  0.4807
 6311TIP3    H240425   5.663   6.714  15.190 -0.8156  1.2748 -0.5470
 6312TIP3   OH240426   2.704   3.267  14.992  0.1310  0.3737  0.1349
 6312TIP3    H140427   2.703   3.313  14.908  0.7190 -0.1253 -0.1523
 6312TIP3    H240428   2.779   3.208  14.986 -1.2294 -1.4273  0.0553
 6313TIP3   OH240429   6.583   2.702   4.883  0.2963  0.5683  0.3859
 6313TIP3    H140430   6.525   2.775   4.861  0.2818  0.0543 -1.4602
 6313TIP3    H240431   6.523   2.627   4.894  0.3823  0.6384  1.4231
 6314TIP3   OH240432   1.361   5.602   3.305  0.0362  0.3671  0.4536
 6314TIP3    H140433   1.300   5.672   3.280 -0.1018 -0.4868 -1.7626
 6314TIP3    H240434   1.305   5.527   3.323  0.3047  0.2651  0.8870
 6315TIP3   OH240435   0.746   5.565   1.086  0.1612  0.3581  0.2423
 6315TIP3    H140436   0.736   5.652   1.126  0.8378 -0.0342  1.3052
 6315TIP3    H240437   0.790   5.513   1.153  1.6704 -0.2375 -1.1597
 6316TIP3   OH240438   0.240   2.387  13.201  0.1271 -0.1388  0.2529
 6316TIP3    H140439   0.182   2.344  13.264  2.0358 -2.9351  0.2632
 6316TIP3    H240440   0.323   2.397  13.248  0.2973  2.0004 -0.3917
 6317TIP3   OH240441   1.244   3.704   4.750  0.4833  0.7262 -0.2286
 6317TIP3    H140442   1.311   3.767   4.776  0.6774 -0.2322  1.7943
 6317TIP3    H240443   1.261   3.628   4.806 -0.8684 -0.4156 -1.3259
 6318TIP3   OH240444   2.327   6.634  14.528 -0.1813  0.3733 -0.6685
 6318TIP3    H140445   2.408   6.673  14.496  0.7021 -0.7690  0.0776
 6318TIP3    H240446   2.328   6.545  14.493 -0.6797  0.0700  0.0638
 6319TIP3   OH240447   0.140   6.623  16.388  0.3109 -0.1685 -0.0279
 6319TIP3    H140448   0.220   6.674  16.393  0.4701 -0.4808  0.8677
 6319TIP3    H240449   0.144   6.579  16.303  1.8190 -1.3132  0.5800
 6320TIP3   OH240450   3.426   6.096  15.636 -0.0298 -0.3772 -0.0298
 6320TIP3    H140451   3.460   6.184  15.655  1.1257 -0.7641 -0.2275
 6320TIP3    H240452   3.428   6.051  15.721 -0.6590 -0.2113  0.0794
 6321TIP3   OH240453   0.049   2.344  14.816  0.2766  0.4914  0.2242
 6321TIP3    H140454  -0.016   2.398  14.771  0.1796  0.8372  0.7649
 6321TIP3    H240455   0.037   2.256  14.780 -0.8958  0.4270  0.7481
 6322TIP3   OH240456   2.795   1.492   5.948  0.1231  0.3322  0.6656
 6322TIP3    H140457   2.749   1.438   6.012 -1.1373 -1.5862 -1.6968
 6322TIP3    H240458   2.734   1.562   5.926 -0.9417 -1.0375 -0.9520
 6323TIP3   OH240459   2.461   4.558   2.801  0.3814  0.3190 -0.0067
 6323TIP3    H140460   2.549   4.521   2.806  0.0499 -0.5018 -0.0101
 6323TIP3    H240461   2.472   4.651   2.819  0.9254 -0.2189  3.0923
 6324TIP3   OH240462   1.188   6.152   3.237 -0.2987  0.4180 -0.1127
 6324TIP3    H140463   1.164   6.188   3.323 -1.8178  0.8363 -0.6808
 6324TIP3    H240464   1.282   6.133   3.245 -0.1354  1.5570  1.2440
 6325TIP3   OH240465   2.834   3.998  14.382 -0.6419 -0.9240 -0.0388
 6325TIP3    H140466   2.744   3.986  14.412 -0.6835 -0.8956 -0.1483
 6325TIP3    H240467   2.854   3.916  14.335 -1.0768 -0.4101 -1.1653
 6326TIP3   OH240468   3.955   1.782  13.266 -0.1766 -0.1643 -0.1148
 6326TIP3    H140469   3.999   1.823  13.342 -1.5925  0.3865  0.4422
 6326TIP3    H240470   3.887   1.845  13.242 -0.6147 -0.9673 -1.0014
 6327TIP3   OH240471   5.645   3.700  14.213  0.4534 -0.2990 -0.5011
 6327TIP3    H140472   5.683   3.647  14.283  0.9500 -0.2861 -0.7587
 6327TIP3    H240473   5.702   3.776  14.206 -1.6261  1.5890  1.5765
 6328TIP3   OH240474   3.834   0.636  12.686 -0.1488  0.2202  0.5584
 6328TIP3    H140475   3.911   0.579  12.677  0.1288  0.6051  0.4462
 6328TIP3    H240476   3.857   0.714  12.635 -0.3883  0.5706  0.9819
 6329TIP3   OH240477   4.440   4.684  14.631 -0.2519 -0.6205 -0.2960
 6329TIP3    H140478   4.468   4.769  14.667  0.0974 -0.8098 -0.1142
 6329TIP3    H240479   4.408   4.635  14.707  2.7250 -1.9354  0.2407
 6330TIP3   OH240480   6.330   5.927  16.040 -0.1346 -0.0300 -0.0184
 6330TIP3    H140481   6.366   5.852  16.087 -0.2178  0.4002  0.7429
 6330TIP3    H240482   6.247   5.946  16.084  0.5737  1.4219  0.7671
 6331TIP3   OH240483   3.003   4.219  11.404  0.0415  0.2894 -0.5692
 6331TIP3    H140484   3.032   4.145  11.350  0.8906 -0.3538  0.7171
 6331TIP3    H240485   3.042   4.202  11.490 -2.7913  0.2865  0.8251
 6332TIP3   OH240486   5.108   1.139   1.460  0.1785  0.1826 -0.2111
 6332TIP3    H140487   5.198   1.119   1.482  0.1407  0.1235 -0.1108
 6332TIP3    H240488   5.078   1.065   1.407  0.0252 -0.0474  0.1937
 6333TIP3   OH240489   6.319   4.227  11.294 -0.0925  0.0263  0.0404
 6333TIP3    H140490   6.396   4.179  11.266 -0.7654 -0.1586 -1.6494
 6333TIP3    H240491   6.265   4.162  11.339  1.0908  0.3717  2.1121
 6334TIP3   OH240492   1.358   2.799  10.659  0.3582  0.3592  0.0908
 6334TIP3    H140493   1.295   2.735  10.626  1.4706 -0.3228 -0.7935
 6334TIP3    H240494   1.379   2.853  10.583  0.5920  0.7830  0.4551
 6335TIP3   OH240495   3.201   1.067   1.319  0.2515  0.7076 -0.0911
 6335TIP3    H140496   3.245   1.018   1.250 -0.6856 -0.2444 -0.0259
 6335TIP3    H240497   3.218   1.159   1.297 -0.9966  0.4829 -2.2672
 6336TIP3   OH240498   1.142   2.977   4.192  0.7785  0.2416 -0.7475
 6336TIP3    H140499   1.120   3.064   4.225  0.4201 -0.1966  0.2154
 6336TIP3    H240500   1.194   2.993   4.113 -0.6244  1.3215 -1.4988
 6337TIP3   OH240501   5.462   0.344   3.598 -0.4723  0.4655  0.6328
 6337TIP3    H140502   5.420   0.313   3.679  1.6301  1.3631  2.1616
 6337TIP3    H240503   5.555   0.326   3.611  0.1142  2.0896 -0.9069
 6338TIP3   OH240504   4.363   4.892   5.273  0.2868 -0.5204 -0.0224
 6338TIP3    H140505   4.315   4.816   5.305  0.9389 -0.7566  0.4139
 6338TIP3    H240506   4.298   4.945   5.227 -0.8737  0.2471  2.3624
 6339TIP3   OH240507   0.739   3.699   4.963  0.1170  0.0366  0.3206
 6339TIP3    H140508   0.832   3.678   4.948 -0.1072 -1.3101  0.6355
 6339TIP3    H240509   0.737   3.793   4.975  1.0219  0.6202 -2.9885
 6340TIP3   OH240510   4.396   5.197  13.619  0.3160 -0.1148 -0.4397
 6340TIP3    H140511   4.348   5.164  13.694 -0.5585  1.0680 -0.4365
 6340TIP3    H240512   4.366   5.288  13.609  2.5694  0.7078 -0.4348
 6341TIP3   OH240513   4.764   3.754   4.386  0.4855  0.0008 -0.2307
 6341TIP3    H140514   4.711   3.674   4.380 -0.6812  0.5339  1.9361
 6341TIP3    H240515   4.822   3.750   4.310 -1.3123 -1.6081 -1.6251
 6342TIP3   OH240516   3.475   6.310  15.987  0.2294  0.3594  0.2305
 6342TIP3    H140517   3.423   6.232  16.003  1.8850 -0.7580  0.3727
 6342TIP3    H240518   3.513   6.332  16.072  2.1137 -0.4591 -0.3519
 6343TIP3   OH240519   6.225   2.713  13.359 -0.1255  0.1841  0.0086
 6343TIP3    H140520   6.319   2.726  13.372  0.4129 -2.2540 -0.9453
 6343TIP3    H240521   6.215   2.700  13.264 -1.5882  1.3858 -0.0365
 6344TIP3   OH240522   1.562   5.548   0.657  0.7690 -0.7429 -0.4569
 6344TIP3    H140523   1.496   5.498   0.609  0.5656 -0.5938 -0.3331
 6344TIP3    H240524   1.539   5.538   0.749 -0.2598  0.9175 -0.4948
 6345TIP3   OH240525   4.819   6.756   6.147 -0.6465  0.0783  0.2579
 6345TIP3    H140526   4.734   6.774   6.187 -1.4031 -2.6157  0.0543
 6345TIP3    H240527   4.865   6.703   6.212  0.0150 -0.2982 -0.5002
 6346TIP3   OH240528   3.260   1.230   1.609 -0.0110  0.4228  0.6188
 6346TIP3    H140529   3.269   1.173   1.533  1.4214  1.4509 -0.0299
 6346TIP3    H240530   3.296   1.179   1.681  1.4523  0.5616  0.0101
 6347TIP3   OH240531   4.040   4.765  12.307 -0.3549  0.6052  0.3786
 6347TIP3    H140532   4.099   4.840  12.315  1.9001 -1.2375  2.9452
 6347TIP3    H240533   3.955   4.803  12.283  1.3084  3.6058 -1.2810
 6348TIP3   OH240534   5.822   0.876  15.201 -0.0771 -0.2523 -0.0936
 6348TIP3    H140535   5.784   0.824  15.130  1.4277 -0.2385 -0.9563
 6348TIP3    H240536   5.870   0.813  15.254  0.0119 -0.0444  0.0764
 6349TIP3   OH240537   4.146   6.626  10.519  0.2040 -0.6178  0.3629
 6349TIP3    H140538   4.084   6.575  10.467 -0.5639  0.4252  0.2168
 6349TIP3    H240539   4.226   6.628  10.466 -0.5466  0.3720 -0.7861
 6350TIP3   OH240540   2.892   4.214   2.383  0.3812 -0.4230 -0.0457
 6350TIP3    H140541   2.821   4.258   2.431  0.0700 -0.1042 -0.7773
 6350TIP3    H240542   2.924   4.147   2.443  0.0640  0.0291  0.6399
 6351TIP3   OH240543   5.069   5.922  11.208 -0.5212  0.3664 -0.3237
 6351TIP3    H140544   5.026   6.008  11.202 -0.2344  0.4316 -1.6805
 6351TIP3    H240545   5.022   5.867  11.146  0.2255 -0.0658 -0.5180
 6352TIP3   OH240546   2.559   2.920   3.383  0.4608 -0.0961 -0.3675
 6352TIP3    H140547   2.617   2.951   3.452  0.6008 -1.6892  0.2818
 6352TIP3    H240548   2.609   2.933   3.302  2.7100 -3.2769  0.3092
 6353TIP3   OH240549   2.862   4.249  11.663 -0.1775 -0.0136  0.2883
 6353TIP3    H140550   2.854   4.326  11.607  1.8401  0.1347  0.1049
 6353TIP3    H240551   2.815   4.180  11.617 -1.6325  0.9772  0.2315
 6354TIP3   OH240552   6.366   2.246   0.124  0.7780 -0.0629  0.1380
 6354TIP3    H140553   6.330   2.249   0.213  1.4817 -1.5230  0.5110
 6354TIP3    H240554   6.319   2.174   0.081  1.4949 -0.3719 -0.1578
 6355TIP3   OH240555   4.135   5.327   3.672 -0.2653  0.5075  0.1523
 6355TIP3    H140556   4.179   5.249   3.639  0.0830  1.2159 -1.1511
 6355TIP3    H240557   4.069   5.348   3.606 -1.0455  0.7542  0.9779
 6356TIP3   OH240558   2.432   1.576   1.153  0.4130  0.1893  0.6131
 6356TIP3    H140559   2.353   1.609   1.195 -0.7630 -2.1190  0.3508
 6356TIP3    H240560   2.503   1.622   1.197 -1.0106  1.7115  1.4321
 6357TIP3   OH240561   3.207   5.669   0.260  0.6313 -0.0680 -0.3686
 6357TIP3    H140562   3.176   5.757   0.280  0.8066  0.1104 -0.8585
 6357TIP3    H240563   3.228   5.672   0.167  0.0242 -0.8071 -0.5454
 6358TIP3   OH240564   5.568   4.412   2.576  0.1042  0.1481 -0.3110
 6358TIP3    H140565   5.547   4.353   2.648 -0.1647  1.6173  0.8599
 6358TIP3    H240566   5.652   4.451   2.601 -0.7589  1.8739  0.0530
 6359TIP3   OH240567   1.582   5.295  14.407  0.0500 -0.1959  0.4306
 6359TIP3    H140568   1.488   5.312  14.393  0.2161 -0.5444 -1.4099
 6359TIP3    H240569   1.623   5.380  14.396  0.3395 -0.6212 -3.5014
 6360TIP3   OH240570   2.563   3.308   4.283 -0.2109 -0.1302  0.9129
 6360TIP3    H140571   2.598   3.263   4.360  0.7293  0.7052  0.9989
 6360TIP3    H240572   2.562   3.241   4.214  1.3372 -0.2671  0.9806
 6361TIP3   OH240573   4.568   2.962   2.376  0.4502 -0.2385 -0.0777
 6361TIP3    H140574   4.533   3.045   2.410  2.4330  0.2031  1.0183
 6361TIP3    H240575   4.565   2.972   2.281  1.7907  1.6379  0.0243
 6362TIP3   OH240576   3.795   3.617  15.381  0.0852 -0.0596  0.8756
 6362TIP3    H140577   3.725   3.577  15.433  0.4366 -0.8919  0.7342
 6362TIP3    H240578   3.842   3.542  15.343  0.0367  0.5184 -0.3779
 6363TIP3   OH240579   2.781   3.142   0.022  0.5583  0.0025  0.5838
 6363TIP3    H140580   2.705   3.177   0.068  0.1810  0.3101 -0.2380
 6363TIP3    H240581   2.759   3.153  -0.071  0.0028 -3.2093  0.1856
 6364TIP3   OH240582   0.320   5.753   4.781 -0.1809 -0.1792 -0.4001
 6364TIP3    H140583   0.267   5.785   4.854 -1.0849 -0.9651 -0.6941
 6364TIP3    H240584   0.311   5.821   4.714  0.6101  0.5203  0.1934
 6365TIP3   OH240585   4.660   3.764   1.421 -0.3384  0.4093  0.5608
 6365TIP3    H140586   4.673   3.718   1.338 -0.4841 -1.3985  1.4978
 6365TIP3    H240587   4.713   3.844   1.412  0.4287 -0.2189 -0.8871
 6366TIP3   OH240588   3.677   5.444  12.253  0.1142  0.2058 -0.4209
 6366TIP3    H140589   3.701   5.356  12.222  1.6930  1.2507 -2.4536
 6366TIP3    H240590   3.688   5.439  12.348  2.0544 -1.3204 -0.6366
 6367TIP3   OH240591   1.232   2.639   5.352  0.2223 -0.4145  0.0063
 6367TIP3    H140592   1.327   2.655   5.347 -0.2410  3.1823 -0.4658
 6367TIP3    H240593   1.207   2.669   5.439 -0.6607  0.1112 -0.4136
 6368TIP3   OH240594   0.287   0.355  15.010 -0.0778 -0.2731  0.0758
 6368TIP3    H140595   0.337   0.290  14.960 -1.4390  0.1607 -1.9691
 6368TIP3    H240596   0.338   0.368  15.090  1.7938 -1.6195 -0.8263
 6369TIP3   OH240597   0.371   6.591  15.337  0.4005  0.2794 -0.2964
 6369TIP3    H140598   0.371   6.629  15.250 -0.0613  2.7164  0.6975
 6369TIP3    H240599   0.320   6.651  15.391 -0.9969 -2.1214  1.2939
 6370TIP3   OH240600   0.391   4.047  16.025  0.0938  0.3321 -0.6192
 6370TIP3    H140601   0.323   3.997  15.980 -0.8849  0.6156  0.5157
 6370TIP3    H240602   0.385   4.019  16.116  1.2028  0.7035 -0.4221
 6371TIP3   OH240603   0.033   2.102   0.412  0.3099 -0.3126 -0.3799
 6371TIP3    H140604   0.065   2.018   0.379  0.2477 -0.0647 -1.1000
 6371TIP3    H240605  -0.024   2.134   0.342  0.3673  0.3477 -0.1242
 6372TIP3   OH240606   0.548   2.563  16.820 -0.0948 -0.3356  0.5862
 6372TIP3    H140607   0.558   2.468  16.820 -0.1160 -0.3373  1.1378
 6372TIP3    H240608   0.494   2.582  16.896  0.6346  0.1921  0.9855
 6373TIP3   OH240609   1.730   6.753   0.421  0.1807 -0.3040 -0.1115
 6373TIP3    H140610   1.771   6.737   0.506 -1.3714  0.5733  0.8402
 6373TIP3    H240611   1.713   6.666   0.386  0.1205 -0.6794  0.8244
 6374TIP3   OH240612   4.351   0.386  15.294 -0.0678  0.2326  0.1432
 6374TIP3    H140613   4.315   0.414  15.209  0.4644  0.5182  0.0023
 6374TIP3    H240614   4.283   0.330  15.332 -0.5181  0.4953 -0.2565
 6375TIP3   OH240615   2.153   1.544  15.737 -0.4734 -0.3351 -0.4986
 6375TIP3    H140616   2.176   1.570  15.826 -1.6199  0.9383 -0.5427
 6375TIP3    H240617   2.237   1.539  15.691 -0.0332  1.5114  0.0257
 6376TIP3   OH240618   0.903   5.330   4.926 -0.0365 -0.5524  0.0062
 6376TIP3    H140619   0.939   5.247   4.957  0.7214 -0.1093  0.3645
 6376TIP3    H240620   0.846   5.359   4.997  0.8890 -0.0459  0.5775
 6377TIP3   OH240621   2.969   3.781  17.175 -0.2186 -0.1706  0.5441
 6377TIP3    H140622   2.900   3.841  17.204  0.3439  0.1355  1.2835
 6377TIP3    H240623   3.004   3.821  17.096  0.8985  1.0904  1.6273
 6378TIP3   OH240624   0.379   3.336  11.978  0.0412  0.6674 -0.0862
 6378TIP3    H140625   0.473   3.322  11.991 -0.1378  0.0079  0.5726
 6378TIP3    H240626   0.373   3.390  11.899  0.9483  0.1990 -0.4851
 6379TIP3   OH240627   6.112   6.022   1.411 -0.1863  0.1724 -0.1330
 6379TIP3    H140628   6.115   5.996   1.503 -0.3168 -0.7814 -0.3900
 6379TIP3    H240629   6.071   6.109   1.413  0.6014  0.5480  0.7774
 6380TIP3   OH240630   4.395   1.943  15.227  0.1112 -0.4236  0.4898
 6380TIP3    H140631   4.383   1.901  15.312 -0.0438  0.5531  0.9678
 6380TIP3    H240632   4.401   2.037  15.248  2.7769 -0.3368 -0.2757
 6381TIP3   OH240633   5.725   3.154  14.583 -0.4946 -0.5358 -0.0791
 6381TIP3    H140634   5.713   3.136  14.677 -0.9996 -1.0871 -0.2480
 6381TIP3    H240635   5.819   3.171  14.574 -0.4324 -0.5328  0.5157
 6382TIP3   OH240636   5.998   1.808  12.204  0.9586 -0.1123  0.0672
 6382TIP3    H140637   5.927   1.769  12.153  1.9911 -2.4704  0.2613
 6382TIP3    H240638   5.955   1.855  12.275 -0.4097  0.0424 -0.8261
 6383TIP3   OH240639   4.096   2.890   2.245 -0.1674 -0.5847  0.3803
 6383TIP3    H140640   4.056   2.949   2.180  0.5429 -0.4860  0.0252
 6383TIP3    H240641   4.161   2.944   2.289  1.4908 -1.4498 -0.9048
 6384TIP3   OH240642   3.293   5.269   4.020  0.8061 -0.1005  0.1650
 6384TIP3    H140643   3.218   5.223   4.059  2.1601 -0.7944  2.0649
 6384TIP3    H240644   3.287   5.249   3.927 -1.7949  0.5181  0.1141
 6385TIP3   OH240645   5.773   4.846   2.600 -0.0263 -0.0202 -1.0293
 6385TIP3    H140646   5.832   4.827   2.527  0.1301  1.0949 -1.2048
 6385TIP3    H240647   5.819   4.913   2.651 -1.0113  0.6600 -1.0168
 6386TIP3   OH240648   3.682   3.578  13.710 -0.0931 -0.2397 -0.2936
 6386TIP3    H140649   3.663   3.484  13.712 -1.3966 -0.1013 -2.6580
 6386TIP3    H240650   3.692   3.602  13.802 -1.5729 -2.3502  0.5068
 6387TIP3   OH240651   6.283   6.534  17.179  0.4308  0.5136  0.3249
 6387TIP3    H140652   6.337   6.541  17.258  2.6790  0.0679 -1.0892
 6387TIP3    H240653   6.317   6.600  17.120  0.2283 -0.5791 -1.0682
 6388TIP3   OH240654   4.043   1.527   2.058 -0.3355 -0.3283 -0.2305
 6388TIP3    H140655   4.045   1.451   2.000 -2.3221  0.6770 -1.7571
 6388TIP3    H240656   4.023   1.492   2.145  0.8634 -1.7020 -0.4837
 6389TIP3   OH240657   3.886   1.869  12.038  0.0095  0.1746 -0.0179
 6389TIP3    H140658   3.886   1.785  11.990 -2.0000  0.1390 -0.0552
 6389TIP3    H240659   3.849   1.847  12.123 -0.3299  0.9762  0.0466
 6390TIP3   OH240660   2.923   1.240   4.469 -0.3520  0.2585  0.0801
 6390TIP3    H140661   2.955   1.179   4.404 -0.4188  0.1669  0.1330
 6390TIP3    H240662   2.894   1.185   4.542 -0.3411  0.3559  0.1592
 6391TIP3   OH240663   4.396   3.694   4.255 -0.0381  0.5012  0.6614
 6391TIP3    H140664   4.325   3.710   4.317  0.3261  1.0567  0.9433
 6391TIP3    H240665   4.457   3.637   4.302 -0.0987  0.3528  0.5621
 6392TIP3   OH240666   2.312   0.346  11.451  0.4611 -0.2595  0.2396
 6392TIP3    H140667   2.364   0.427  11.455  1.2142 -0.7830  1.5129
 6392TIP3    H240668   2.224   0.373  11.477  0.8674  0.0355  1.3481
 6393TIP3   OH240669   0.343   0.942  13.480  0.0988  0.0454  0.0641
 6393TIP3    H140670   0.381   0.854  13.472 -0.0736  0.0770 -1.6245
 6393TIP3    H240671   0.360   0.982  13.395 -1.4420  0.9852  0.1597
 6394TIP3   OH240672   0.781   2.682   2.721  0.0475  0.4882 -0.8387
 6394TIP3    H140673   0.837   2.659   2.646 -0.1303  0.8988 -1.1027
 6394TIP3    H240674   0.773   2.601   2.771  0.4630  0.3004 -1.0754
 6395TIP3   OH240675   1.268   2.264  12.379  0.1326  0.6170 -0.2098
 6395TIP3    H140676   1.323   2.319  12.322  1.1986  0.7535  0.9027
 6395TIP3    H240677   1.327   2.237  12.449 -0.0893 -2.7589 -1.1856
 6396TIP3   OH240678   1.606   5.841   3.565  0.2026 -0.0715  0.0386
 6396TIP3    H140679   1.568   5.800   3.643 -0.1438  0.4853  0.1691
 6396TIP3    H240680   1.674   5.898   3.599  1.2432 -1.1419 -0.2030
 6397TIP3   OH240681   2.503   0.959   2.945 -0.2402  0.1537  0.3129
 6397TIP3    H140682   2.415   0.991   2.964 -0.5337 -0.4931  0.0871
 6397TIP3    H240683   2.537   1.018   2.878 -0.2734  0.7588  0.8209
 6398TIP3   OH240684   3.988   2.997  12.258 -0.0740  0.0842  0.1524
 6398TIP3    H140685   3.937   3.076  12.279  1.2984  0.4367  2.5347
 6398TIP3    H240686   3.955   2.931  12.319  2.4470  0.4424  2.0910
 6399TIP3   OH240687   6.529   3.322  16.465 -0.3648 -0.5186  0.4424
 6399TIP3    H140688   6.490   3.402  16.432  0.2666 -0.3214  0.1496
 6399TIP3    H240689   6.492   3.252  16.411  1.7745 -0.0681 -1.7945
 6400TIP3   OH240690   2.119   2.107   3.565 -0.1783  0.0177  0.5470
 6400TIP3    H140691   2.141   2.167   3.494  0.3723  0.6235  1.2260
 6400TIP3    H240692   2.046   2.149   3.610 -1.5888 -1.1124 -0.5823
 6401TIP3   OH240693   5.406   3.079   5.078  0.3807 -0.0005  0.0285
 6401TIP3    H140694   5.355   3.091   4.998  2.0981  1.5442 -0.8974
 6401TIP3    H240695   5.481   3.026   5.050  0.0249 -1.1013  1.0761
 6402TIP3   OH240696   5.031   6.513  16.068 -0.1544  0.3244 -0.3522
 6402TIP3    H140697   5.044   6.427  16.109  0.5431  1.3245  1.5847
 6402TIP3    H240698   5.105   6.565  16.097 -1.1079  1.9129 -0.6823
 6403TIP3   OH240699   4.638   0.166   5.841  0.0743 -0.0832 -0.0660
 6403TIP3    H140700   4.639   0.175   5.746 -0.2244 -2.2479 -0.3234
 6403TIP3    H240701   4.645   0.256   5.874  1.7402  0.5985 -2.1067
 6404TIP3   OH240702   3.364   3.333  12.561 -0.0372  0.6913  0.3950
 6404TIP3    H140703   3.451   3.293  12.560 -0.3386  0.0363  0.1168
 6404TIP3    H240704   3.382   3.427  12.556  0.6547  0.5648  0.3229
 6405TIP3   OH240705   6.533   3.582   3.359  0.0272 -0.0072  0.1513
 6405TIP3    H140706   6.470   3.635   3.310 -0.5331 -1.0048 -0.2537
 6405TIP3    H240707   6.479   3.524   3.412  0.6112  1.5963  2.6664
 6406TIP3   OH240708   4.776   6.735  11.194  0.2460 -0.1531 -0.3824
 6406TIP3    H140709   4.812   6.751  11.107  2.0840  0.2748  0.3983
 6406TIP3    H240710   4.822   6.798  11.251  0.2711 -1.4818  1.1460
 6407TIP3   OH240711   3.119   0.062  11.062 -0.3127 -0.1454 -0.4957
 6407TIP3    H140712   3.197   0.071  11.008 -0.8973 -1.1652 -1.5620
 6407TIP3    H240713   3.151   0.025  11.144  0.4312  0.2243 -0.6094
 6408TIP3   OH240714   5.565   3.695   5.581 -0.1379  0.2510 -0.2170
 6408TIP3    H140715   5.622   3.625   5.550  0.8470  1.4847 -1.2906
 6408TIP3    H240716   5.585   3.770   5.525 -2.3582  0.9371 -0.2024
 6409TIP3   OH240717   3.736   3.903  12.236  0.0863 -0.1037 -1.0991
 6409TIP3    H140718   3.782   3.920  12.154  0.9170  3.1936 -0.0994
 6409TIP3    H240719   3.660   3.961  12.233 -0.0707 -0.2012  0.2946
 6410TIP3   OH240720   6.279   6.027  12.622  0.0258  0.1527 -0.3739
 6410TIP3    H140721   6.274   6.086  12.698  0.3048 -1.3860  0.9077
 6410TIP3    H240722   6.190   6.025  12.587  0.0123  1.3126 -0.4573
 6411TIP3   OH240723   3.868   3.147   6.175  0.1371  0.0359  0.1858
 6411TIP3    H140724   3.951   3.105   6.196  0.2584  0.1652 -0.0372
 6411TIP3    H240725   3.850   3.203   6.250 -0.1633 -0.6214  0.6131
 6412TIP3   OH240726   2.310   1.770   5.325  0.4419  0.5926 -0.0439
 6412TIP3    H140727   2.392   1.815   5.307  0.3418  0.9866  0.4789
 6412TIP3    H240728   2.334   1.677   5.326  0.7489  0.6593 -0.5612
 6413TIP3   OH240729   0.341   0.560  16.739  0.6727 -0.5395 -0.3301
 6413TIP3    H140730   0.387   0.533  16.660  1.8104  1.1733 -0.3246
 6413TIP3    H240731   0.249   0.566  16.713  1.0150 -0.1327 -1.5021
 6414TIP3   OH240732   5.885   4.765  14.058  0.5743 -0.4303  0.0384
 6414TIP3    H140733   5.880   4.857  14.083 -0.0030 -0.0041 -1.5270
 6414TIP3    H240734   5.948   4.763  13.986 -0.9467 -0.8878 -1.3525
 6415TIP3   OH240735   3.939   5.102  14.829  0.4967 -0.8099 -0.6341
 6415TIP3    H140736   3.930   5.024  14.773 -0.2030 -0.7590 -0.6035
 6415TIP3    H240737   3.965   5.067  14.914 -1.8839 -1.2782  0.0035
 6416TIP3   OH240738   4.355   5.787  12.764 -0.3177 -0.5848 -0.4818
 6416TIP3    H140739   4.374   5.809  12.673 -0.8986  1.0355 -0.2313
 6416TIP3    H240740   4.409   5.846  12.816 -1.9524  0.3843  0.2046
 6417TIP3   OH240741   6.547   6.783  11.692  0.6009  0.2055 -0.3345
 6417TIP3    H140742   6.451   6.777  11.695  0.6288 -0.3564 -0.5061
 6417TIP3    H240743   6.569   6.847  11.760  0.1103  0.2526 -0.2163
 6418TIP3   OH240744   0.476   2.008   5.677 -0.8409  0.2757  0.3773
 6418TIP3    H140745   0.478   2.067   5.752  0.5853 -2.0580  2.3056
 6418TIP3    H240746   0.568   1.992   5.656 -1.1771 -1.0302 -0.2365
 6419TIP3   OH240747   6.706   1.029   2.127  0.3188  0.3480 -0.5329
 6419TIP3    H140748   6.754   1.075   2.195 -0.3715  0.6562 -0.2434
 6419TIP3    H240749   6.614   1.044   2.148  0.0294 -1.9859  0.1530
 6420TIP3   OH240750   6.700   2.278   4.503 -0.3887 -0.4452 -0.0799
 6420TIP3    H140751   6.742   2.344   4.558 -0.6628 -1.1617  1.0151
 6420TIP3    H240752   6.714   2.309   4.413  1.3102  0.0284  0.3151
 6421TIP3   OH240753   0.179   2.864   5.687  0.8536  0.6895 -0.1827
 6421TIP3    H140754   0.250   2.924   5.711 -0.0601  1.3827  0.9049
 6421TIP3    H240755   0.099   2.916   5.698  0.1145 -0.3362 -0.5173
 6422TIP3   OH240756   6.607   3.783   3.103 -0.1871 -0.3285 -0.4023
 6422TIP3    H140757   6.681   3.746   3.150 -1.3468 -0.7050  1.2207
 6422TIP3    H240758   6.590   3.867   3.147 -1.3530 -0.7262 -0.0543
 6423TIP3   OH240759   5.371   5.741   0.126  0.3011 -0.1427  0.1236
 6423TIP3    H140760   5.286   5.787   0.125  0.6538  0.6049  1.6254
 6423TIP3    H240761   5.409   5.760   0.040 -1.4990 -1.4232 -1.0361
 6424TIP3   OH240762   1.506   5.237  11.485 -0.1074 -0.3881  0.1543
 6424TIP3    H140763   1.426   5.272  11.445  0.5849  0.8757 -0.1959
 6424TIP3    H240764   1.569   5.234  11.412  0.3629 -0.7017  0.5726
 6425TIP3   OH240765   5.356   5.530  14.072  0.1092  0.5846 -0.5004
 6425TIP3    H140766   5.423   5.462  14.082  1.7660  1.3952 -4.2024
 6425TIP3    H240767   5.364   5.583  14.151  0.3490 -2.1328  1.4238
 6426TIP3   OH240768   4.596   1.636  15.250  0.1159  0.0983 -0.0394
 6426TIP3    H140769   4.677   1.675  15.281 -0.3359  1.6792 -0.7347
 6426TIP3    H240770   4.622   1.579  15.177  0.7197 -0.4789  0.6111
 6427TIP3   OH240771   4.497   5.965   1.460 -0.6976  0.6403 -0.2548
 6427TIP3    H140772   4.469   5.980   1.369 -1.2906 -1.0533 -0.3685
 6427TIP3    H240773   4.587   6.000   1.462 -0.8626  1.2001 -1.3344
 6428TIP3   OH240774   1.186   4.053   2.455  0.3096  0.1256  0.8722
 6428TIP3    H140775   1.207   3.990   2.524 -1.1501 -0.7996  0.5187
 6428TIP3    H240776   1.262   4.053   2.398 -0.4346 -2.9508 -0.2971
 6429TIP3   OH240777   1.737   6.321  16.071 -0.3055 -0.5329  0.6879
 6429TIP3    H140778   1.687   6.362  15.999  0.6349  1.0171  0.8747
 6429TIP3    H240779   1.776   6.243  16.031  0.6350  0.5769 -0.6733
 6430TIP3   OH240780   6.099   6.473   3.059 -0.2371 -0.2941 -0.1328
 6430TIP3    H140781   6.014   6.431   3.069  0.0573 -1.0072 -0.5549
 6430TIP3    H240782   6.116   6.472   2.965  0.7880 -1.2976  0.0465
 6431TIP3   OH240783   0.837   4.875   0.935  0.0147  0.6533  0.0539
 6431TIP3    H140784   0.839   4.925   0.854  0.1133  0.2708 -0.1798
 6431TIP3    H240785   0.819   4.940   1.003  0.3106  1.0320 -0.2286
 6432TIP3   OH240786   0.510   1.820  16.486  0.0995 -0.0613  0.5697
 6432TIP3    H140787   0.472   1.861  16.564 -0.2405 -0.1317  0.4445
 6432TIP3    H240788   0.589   1.871  16.468  0.9604 -0.8992  1.7725
 6433TIP3   OH240789   4.056   6.212   1.781  0.3777 -0.0426 -0.5883
 6433TIP3    H140790   4.074   6.121   1.757 -1.4790 -0.1181 -1.8942
 6433TIP3    H240791   4.114   6.263   1.724  0.6979 -0.3813 -0.5702
 6434TIP3   OH240792   2.282   1.679  16.416 -0.6092 -0.1032  0.4267
 6434TIP3    H140793   2.286   1.774  16.410 -0.0580 -0.0229  1.8407
 6434TIP3    H240794   2.242   1.662  16.501  1.7217 -1.1213  1.4052
 6435TIP3   OH240795   2.888   4.421  15.072 -0.0542 -0.7330  0.3284
 6435TIP3    H140796   2.981   4.439  15.088 -0.3975  1.3686  0.2220
 6435TIP3    H240797   2.844   4.448  15.153 -0.9054  1.8428 -0.8634
 6436TIP3   OH240798   2.509   3.818   0.079  0.1671  1.2464 -0.0802
 6436TIP3    H140799   2.549   3.802  -0.007  0.4097  1.4843 -0.0138
 6436TIP3    H240800   2.575   3.869   0.126  0.0120  1.1584  0.2292
 6437TIP3   OH240801   0.653   3.871  14.493  0.0958  0.1485 -0.0195
 6437TIP3    H140802   0.683   3.811  14.425  1.6127 -0.5749  1.2125
 6437TIP3    H240803   0.557   3.866  14.489  0.1695 -0.7387 -1.3353
 6438TIP3   OH240804   2.637   1.804   4.134  0.1445 -0.2858 -0.1796
 6438TIP3    H140805   2.609   1.713   4.147  0.5811 -0.6362 -1.4852
 6438TIP3    H240806   2.561   1.847   4.096 -0.6360  0.3619  1.9730
 6439TIP3   OH240807   3.536   6.678  12.194 -0.4252 -0.2535 -0.6598
 6439TIP3    H140808   3.489   6.712  12.118 -0.2683 -0.7755 -0.9919
 6439TIP3    H240809   3.609   6.628  12.158  1.0895  1.4977 -0.1311
 6440TIP3   OH240810   4.492   2.918  14.455  0.1595  0.4175  0.3059
 6440TIP3    H140811   4.458   3.008  14.456  0.2704  0.4572  1.0558
 6440TIP3    H240812   4.576   2.924  14.499  0.4862  0.0607 -0.2625
 6441TIP3   OH240813   4.859   6.144   5.969 -0.1489  0.1858 -0.3824
 6441TIP3    H140814   4.899   6.057   5.973 -0.1814  0.1979  0.6067
 6441TIP3    H240815   4.766   6.127   5.951 -0.0112  0.0684 -1.0108
 6442TIP3   OH240816   1.813   5.953   4.225 -0.2445  0.5232 -0.2922
 6442TIP3    H140817   1.898   5.981   4.190  0.6202 -0.3149  1.0751
 6442TIP3    H240818   1.796   5.869   4.182 -1.2856  1.5149 -1.9283
 6443TIP3   OH240819   5.725   3.706   1.990  0.2512  0.2751  0.6101
 6443TIP3    H140820   5.719   3.798   1.965  0.5254  0.2543  0.4605
 6443TIP3    H240821   5.743   3.661   1.908  0.8670  0.1720  0.7972
 6444TIP3   OH240822   1.180   4.461   4.066  0.0523  0.1823 -0.5728
 6444TIP3    H140823   1.157   4.527   4.130 -0.0057  1.3629 -1.7699
 6444TIP3    H240824   1.267   4.485   4.036  0.1620 -0.4675 -0.8034
 6445TIP3   OH240825   2.326   1.141  16.052  0.4482 -0.6315  0.0129
 6445TIP3    H140826   2.271   1.151  16.130 -0.3563  0.4569 -0.6760
 6445TIP3    H240827   2.265   1.125  15.981  1.1555 -1.2631 -0.4709
 6446TIP3   OH240828   5.249   0.620  14.767 -0.1541 -0.0119 -0.3142
 6446TIP3    H140829   5.332   0.606  14.721  0.6470  0.5233  0.9022
 6446TIP3    H240830   5.188   0.650  14.699  0.4814 -0.9410 -1.3268
 6447TIP3   OH240831   2.225   4.494  12.917 -0.4967 -0.2796 -0.0564
 6447TIP3    H140832   2.275   4.572  12.893  1.0717 -1.2641 -0.1276
 6447TIP3    H240833   2.219   4.444  12.836  1.0611 -1.5718  0.5728
 6448TIP3   OH240834   1.315   1.458  17.242  0.0782  0.5454  0.4405
 6448TIP3    H140835   1.312   1.548  17.208 -1.2784  0.5655  0.5466
 6448TIP3    H240836   1.387   1.417  17.195  0.0170  1.3762 -0.4068
 6449TIP3   OH240837   1.220   6.059  11.934  0.4012  0.6406  0.1905
 6449TIP3    H140838   1.288   6.124  11.954 -0.0709  2.0068 -2.1876
 6449TIP3    H240839   1.147   6.082  11.991  1.1066  0.5884  1.1485
 6450TIP3   OH240840   0.995   3.621  13.594 -0.2440 -0.9083  0.0660
 6450TIP3    H140841   1.014   3.708  13.559 -1.2504 -1.8739 -3.2670
 6450TIP3    H240842   0.901   3.623  13.613 -0.2515 -1.2250  0.0622
 6451TIP3   OH240843   2.998   2.977   0.085 -0.5390 -0.3737 -0.2303
 6451TIP3    H140844   2.925   3.039   0.081  0.8066  1.2913  0.3020
 6451TIP3    H240845   3.025   2.977   0.177  0.7117 -0.2743 -0.5784
 6452TIP3   OH240846   2.134   3.373   1.938 -0.2167 -0.2895 -0.4541
 6452TIP3    H140847   2.217   3.395   1.896  0.1256  0.5427  0.6059
 6452TIP3    H240848   2.085   3.324   1.871  1.6002 -1.9095 -0.6854
 6453TIP3   OH240849   1.689   6.145  13.730 -0.2742 -0.2810  0.0083
 6453TIP3    H140850   1.673   6.235  13.758  1.6059 -0.2554  1.1756
 6453TIP3    H240851   1.720   6.101  13.809  0.3619 -1.5484 -0.9155
 6454TIP3   OH240852   2.073   3.170   5.905  0.7366  0.1004 -0.0539
 6454TIP3    H140853   2.118   3.132   5.980  0.5455  1.7294  0.9313
 6454TIP3    H240854   2.099   3.263   5.906 -0.9770  0.6280 -0.6889
 6455TIP3   OH240855   1.982   4.631   2.648 -0.0397 -0.3046 -0.7120
 6455TIP3    H140856   1.955   4.685   2.722  2.6644 -0.1392  0.2448
 6455TIP3    H240857   2.046   4.570   2.685 -0.7353 -2.1610 -2.3792
 6456TIP3   OH240858   1.331   0.930   2.149 -0.0805  0.1447  0.2437
 6456TIP3    H140859   1.421   0.908   2.174 -0.7442 -0.0358  2.7251
 6456TIP3    H240860   1.289   0.846   2.137  0.0940  0.2312 -1.1003
 6457TIP3   OH240861   2.211   2.767  12.425  0.5249  0.2452  0.0973
 6457TIP3    H140862   2.295   2.727  12.447  0.9716  1.3617  0.4592
 6457TIP3    H240863   2.209   2.849  12.474 -1.2285 -0.2403  0.9479
 6458TIP3   OH240864   0.757   6.163   1.811 -0.0963  0.0412  0.2934
 6458TIP3    H140865   0.813   6.228   1.853  0.3060  0.1387 -0.3766
 6458TIP3    H240866   0.716   6.210   1.739 -1.4939  0.1207  1.1069
 6459TIP3   OH240867   1.332   6.533  17.122  0.2720 -0.0267  0.2236
 6459TIP3    H140868   1.298   6.449  17.153 -3.9559  1.8558  1.3385
 6459TIP3    H240869   1.320   6.531  17.027 -0.5411 -0.4102  0.3273
 6460TIP3   OH240870   6.270   4.732   3.287 -0.0464 -0.3040 -0.2889
 6460TIP3    H140871   6.245   4.801   3.226 -0.2139 -0.5360 -0.4907
 6460TIP3    H240872   6.208   4.660   3.268 -0.1006 -0.3809  0.1509
 6461TIP3   OH240873   2.878   2.320   1.133  0.7170 -0.3461 -0.1456
 6461TIP3    H140874   2.901   2.413   1.126 -2.0393  0.3679 -1.0051
 6461TIP3    H240875   2.837   2.312   1.219 -0.2418 -0.4445 -0.6023
 6462TIP3   OH240876   0.679   3.053   2.512 -0.1112 -0.1794 -0.2990
 6462TIP3    H140877   0.641   3.114   2.448  1.3775  2.3832  1.0643
 6462TIP3    H240878   0.634   3.073   2.594  0.2578 -1.0770  0.1391
 6463TIP3   OH240879   0.441   6.019   2.434  0.5224 -0.3395 -0.2328
 6463TIP3    H140880   0.443   6.109   2.466  1.7287  0.3794 -2.1631
 6463TIP3    H240881   0.348   6.004   2.414  0.4269  0.8262 -0.7786
 6464TIP3   OH240882   1.766   0.978  15.113  0.2379 -0.2139 -0.4941
 6464TIP3    H140883   1.685   0.928  15.107 -0.2872  0.4126  0.9213
 6464TIP3    H240884   1.765   1.035  15.036 -0.8485  0.0400 -0.3099
 6465TIP3   OH240885   3.158   3.755   3.318 -0.0888 -0.0394  0.2154
 6465TIP3    H140886   3.103   3.741   3.241 -2.5322 -1.4415  2.0876
 6465TIP3    H240887   3.216   3.679   3.321  0.7334  0.5171 -0.7191
 6466TIP3   OH240888   0.787   2.716  10.997  0.0780  0.1350  0.2780
 6466TIP3    H140889   0.817   2.708  10.906 -0.8490 -0.0222 -0.0200
 6466TIP3    H240890   0.742   2.800  11.000  0.4520  0.3243  0.6985
 6467TIP3   OH240891   2.757   1.264  15.913 -0.1613 -0.0384 -0.0710
 6467TIP3    H140892   2.783   1.211  15.988 -0.8489 -1.5150 -0.8412
 6467TIP3    H240893   2.837   1.310  15.888  0.7481 -1.5207 -0.0205
 6468TIP3   OH240894   3.867   1.414   1.793  0.0419 -0.0432  0.7561
 6468TIP3    H140895   3.838   1.328   1.761  0.2057  0.0340  0.3917
 6468TIP3    H240896   3.848   1.412   1.886  1.7372 -1.1741  1.1168
 6469TIP3   OH240897   6.554   3.535  13.446  0.0770  0.1275 -0.2409
 6469TIP3    H140898   6.530   3.494  13.529 -0.1056 -0.2872 -0.4941
 6469TIP3    H240899   6.530   3.627  13.456 -2.7943 -0.4640 -0.9183
 6470TIP3   OH240900   3.352   2.610   1.199  0.9330 -0.3433 -0.7013
 6470TIP3    H140901   3.438   2.650   1.192 -0.1776  2.4453  0.4287
 6470TIP3    H240902   3.299   2.654   1.132 -0.2715 -0.0351  0.4152
 6471TIP3   OH240903   1.985   5.793   1.504 -0.3019 -0.0349  0.4708
 6471TIP3    H140904   1.891   5.783   1.494 -0.4950 -0.1406  2.0794
 6471TIP3    H240905   1.996   5.835   1.589  1.1129 -0.2034  0.4036
 6472TIP3   OH240906   3.757   5.374  16.414 -0.1817  0.0032 -0.4403
 6472TIP3    H140907   3.693   5.323  16.364  1.2600 -2.3968 -0.0139
 6472TIP3    H240908   3.838   5.367  16.364  0.5674  0.0558  0.7160
 6473TIP3   OH240909   6.161   0.303  11.697  0.1491  0.2015 -0.4789
 6473TIP3    H140910   6.121   0.292  11.611  0.2436  1.1333 -0.6467
 6473TIP3    H240911   6.108   0.248  11.755 -0.0597 -0.2475 -1.0831
 6474TIP3   OH240912   5.789   4.541   1.238  0.0243  0.3915  0.0774
 6474TIP3    H140913   5.693   4.540   1.235 -0.1013 -2.3154  1.5772
 6474TIP3    H240914   5.811   4.614   1.296 -1.1179  0.9566 -0.1649
 6475TIP3   OH240915   5.856   4.121  13.333  0.0476 -0.1239  0.1834
 6475TIP3    H140916   5.777   4.172  13.311 -0.3246 -0.2740  1.1308
 6475TIP3    H240917   5.848   4.105  13.427 -0.8040 -3.5462 -0.3377
 6476TIP3   OH240918   0.304   6.639  16.942  0.0815 -0.1113  0.1307
 6476TIP3    H140919   0.349   6.578  16.883 -0.7601  0.5009 -1.2048
 6476TIP3    H240920   0.331   6.612  17.029  0.3295 -1.9179 -0.4509
 6477TIP3   OH240921   4.468   1.344  17.136  0.1160  0.4057  0.6464
 6477TIP3    H140922   4.555   1.363  17.170  0.4336  0.0739  0.0358
 6477TIP3    H240923   4.432   1.429  17.112  0.0590  0.5977  1.3923
 6478TIP3   OH240924   0.126   0.763  15.569 -0.2483 -0.2607  0.3006
 6478TIP3    H140925   0.122   0.738  15.476  1.0053  0.6214 -0.0168
 6478TIP3    H240926   0.045   0.811  15.584  0.4550  1.4197 -0.9359
 6479TIP3   OH240927   1.584   1.870  15.002 -0.1199  0.2237 -0.0188
 6479TIP3    H140928   1.665   1.851  14.956  1.5081  4.3132  0.7649
 6479TIP3    H240929   1.537   1.929  14.943 -2.2404 -1.3989 -0.0807
 6480TIP3   OH240930   3.444   6.048   1.902 -0.1050 -0.2457 -1.0089
 6480TIP3    H140931   3.514   6.092   1.854  1.6290 -2.4743 -0.6530
 6480TIP3    H240932   3.386   6.013   1.834 -0.5611  1.0251 -1.3101
 6481TIP3   OH240933   4.599   0.239  11.733  0.5165  0.2898  0.1587
 6481TIP3    H140934   4.676   0.241  11.790  1.0948  0.8515 -0.6072
 6481TIP3    H240935   4.530   0.201  11.787  1.3878 -0.4497  0.7937
 6482TIP3   OH240936   6.576   2.047  14.056  0.4532 -0.0543 -0.0038
 6482TIP3    H140937   6.526   2.019  13.980  0.5418  0.2323 -0.1702
 6482TIP3    H240938   6.659   2.079  14.019  0.7763 -0.5627  0.2695
 6483TIP3   OH240939   3.395   3.160  15.163 -0.5343  0.7288 -0.0162
 6483TIP3    H140940   3.372   3.105  15.238 -1.5383  1.1461 -0.0016
 6483TIP3    H240941   3.488   3.177  15.174 -0.0975 -1.2603 -0.2310
 6484TIP3   OH240942   3.295   0.259  11.639  0.1612 -0.1912  0.5924
 6484TIP3    H140943   3.362   0.194  11.616 -0.4853 -0.5384 -0.4018
 6484TIP3    H240944   3.284   0.311  11.560  0.5641  1.0642  1.3357
 6485TIP3   OH240945   3.728   4.389   2.523 -0.1291 -0.3262  0.0700
 6485TIP3    H140946   3.813   4.375   2.565  0.6313 -0.1612 -1.3678
 6485TIP3    H240947   3.749   4.418   2.435 -1.6732 -1.6450 -0.7816
 6486TIP3   OH240948   5.301   0.474   1.036 -0.2813  0.4744  0.3980
 6486TIP3    H140949   5.364   0.540   1.066  0.6456  0.6015 -1.6438
 6486TIP3    H240950   5.319   0.397   1.091  1.3687  0.6705  0.1979
 6487TIP3   OH240951   6.552   0.852   5.631  0.2497  0.2126  0.1853
 6487TIP3    H140952   6.626   0.912   5.637  0.0687  0.3237  1.8091
 6487TIP3    H240953   6.497   0.889   5.562  0.1114  1.9812  1.1931
 6488TIP3   OH240954   4.384   3.166  12.079  0.1877  0.2683 -0.1331
 6488TIP3    H140955   4.462   3.160  12.135 -0.5721 -1.5496  0.8397
 6488TIP3    H240956   4.337   3.084  12.096 -1.1938  0.6605 -1.8194
 6489TIP3   OH240957   4.634   4.211  16.335  0.1813  0.1071  0.8420
 6489TIP3    H140958   4.567   4.277  16.316 -1.4089 -2.0310 -1.5082
 6489TIP3    H240959   4.589   4.144  16.387  0.8778 -0.6705  0.4634
 6490TIP3   OH240960   5.858   3.429  11.082  0.0482 -0.0233  0.0296
 6490TIP3    H140961   5.899   3.346  11.056 -1.3958  0.0044 -2.6994
 6490TIP3    H240962   5.779   3.434  11.029  0.4592  3.4479 -0.4844
 6491TIP3   OH240963   1.884   4.139  14.781  0.5281 -0.1459  0.4986
 6491TIP3    H140964   1.897   4.177  14.694 -0.7628  1.0177  0.7852
 6491TIP3    H240965   1.885   4.044  14.767  0.9992  0.0246 -0.6723
 6492TIP3   OH240966   6.681   0.110  16.888  0.0388 -0.7054 -0.1244
 6492TIP3    H140967   6.619   0.079  16.954  1.4147 -4.6402 -0.4250
 6492TIP3    H240968   6.763   0.122  16.936 -0.3970  3.1071 -0.0023
 6493TIP3   OH240969   4.740   2.325   2.153 -0.4699  0.1626 -0.4456
 6493TIP3    H140970   4.727   2.259   2.222 -0.1284 -1.1288 -1.5610
 6493TIP3    H240971   4.809   2.288   2.097  0.0102  1.6687 -0.8944
 6494TIP3   OH240972   4.957   5.741  13.325  0.7778  0.1244 -0.3117
 6494TIP3    H140973   4.930   5.705  13.240 -0.1796  0.0807 -0.0031
 6494TIP3    H240974   5.052   5.737  13.323  0.8005 -3.7082  0.2129
 6495TIP3   OH240975   2.946   4.126   0.472  0.7782  0.0947  0.5957
 6495TIP3    H140976   3.042   4.133   0.468  1.0082 -0.9543  2.6151
 6495TIP3    H240977   2.927   4.045   0.425  0.8432  0.3942  0.0391
 6496TIP3   OH240978   6.370   3.685  10.700 -0.4004 -0.3983 -0.2296
 6496TIP3    H140979   6.369   3.692  10.605  1.3346 -0.2207 -0.2590
 6496TIP3    H240980   6.309   3.613  10.720 -1.9334  0.5267 -1.3366
 6497TIP3   OH240981   2.178   5.870   3.533  0.4564  0.2064  0.6261
 6497TIP3    H140982   2.122   5.817   3.476 -0.3004  0.0164  1.5092
 6497TIP3    H240983   2.253   5.815   3.551  1.2876  0.7046 -1.0944
 6498TIP3   OH240984   0.234   1.883  15.624 -0.0517  0.1269 -0.4276
 6498TIP3    H140985   0.278   1.824  15.562 -1.0104 -0.7283 -0.3208
 6498TIP3    H240986   0.189   1.947  15.569  1.2239  0.9731 -0.5409
 6499TIP3   OH240987   2.979   2.368  12.063 -0.1593  0.5000  0.1285
 6499TIP3    H140988   3.048   2.331  12.008 -1.2169  0.8276 -1.4813
 6499TIP3    H240989   3.023   2.388  12.146  1.1811 -1.2352 -0.1104
 6500TIP3   OH240990   1.317   1.340   5.365  0.5765 -0.1976  0.0561
 6500TIP3    H140991   1.227   1.370   5.349  0.3084 -1.1967 -0.3775
 6500TIP3    H240992   1.335   1.365   5.455 -0.3431 -0.4955  0.3329
 6501TIP3   OH240993   5.858   4.981   1.619  0.5275 -0.1267  0.3688
 6501TIP3    H140994   5.863   5.021   1.532  0.9855  1.4202  1.0639
 6501TIP3    H240995   5.901   4.896   1.609  0.2500 -0.1234 -0.9924
 6502TIP3   OH240996   6.167   3.701   4.066  0.5426  0.3147  0.1584
 6502TIP3    H140997   6.224   3.719   3.991  1.4737 -1.1999  0.4563
 6502TIP3    H240998   6.215   3.734   4.141 -0.1823  1.4124  0.1530
 6503TIP3   OH240999   1.463   1.356   3.856  0.3615 -0.3863  0.4676
 6503TIP3    H141000   1.373   1.379   3.832  1.0105  0.3879 -1.3528
 6503TIP3    H241001   1.468   1.262   3.843 -0.4729 -0.6035  1.6144
 6504TIP3   OH241002   0.172   6.573  14.937  0.3143  0.4600  0.0115
 6504TIP3    H141003   0.249   6.628  14.942  1.7914 -1.5148  0.1940
 6504TIP3    H241004   0.140   6.567  15.027  1.2105 -0.3716  0.2882
 6505TIP3   OH241005   3.542   3.704   2.016 -0.1006 -0.1645  0.5745
 6505TIP3    H141006   3.457   3.682   2.052 -0.4707 -1.2781 -0.8946
 6505TIP3    H241007   3.585   3.756   2.084 -1.7254 -0.0604  1.5478
 6506TIP3   OH241008   2.087   0.059   0.774 -0.2633  0.4032 -0.1343
 6506TIP3    H141009   2.097   0.127   0.707  1.0021  2.6484  2.2009
 6506TIP3    H241010   2.171   0.013   0.775  0.0609  1.0046  0.5538
 6507TIP3   OH241011   3.222   2.685  14.915 -0.0966 -0.0610  0.0635
 6507TIP3    H141012   3.242   2.700  15.008 -1.9409  3.0554  0.1033
 6507TIP3    H241013   3.287   2.737  14.868 -0.8529  0.6431 -0.2347
 6508TIP3   OH241014   5.787   6.545   4.423  0.6259 -0.1084 -0.3351
 6508TIP3    H141015   5.834   6.524   4.503  0.9715  1.3371 -0.1358
 6508TIP3    H241016   5.814   6.477   4.361 -2.0120 -3.1871  1.5303
 6509TIP3   OH241017   3.286   5.470  14.771 -0.2434 -0.1311  0.1072
 6509TIP3    H141018   3.330   5.401  14.821  0.5586 -0.3282 -0.8415
 6509TIP3    H241019   3.300   5.446  14.679  2.0843  2.4855 -0.3236
 6510TIP3   OH241020   6.342   6.397   3.188  0.4599 -0.0386 -0.2366
 6510TIP3    H141021   6.275   6.414   3.122  2.0709  1.5191 -1.5572
 6510TIP3    H241022   6.368   6.484   3.219  1.3945 -0.6348  0.7492
 6511TIP3   OH241023   0.888   6.057  13.564 -0.0862  0.8324  0.1073
 6511TIP3    H141024   0.799   6.022  13.558 -0.3286  1.6144 -1.9576
 6511TIP3    H241025   0.942   5.983  13.594 -1.3105  0.1538  0.6906
 6512TIP3   OH241026   0.552   2.020   4.031 -0.5534 -0.0726  0.0094
 6512TIP3    H141027   0.471   2.017   4.083  0.4609  0.2925  1.6827
 6512TIP3    H241028   0.618   2.053   4.092  0.6524  0.6278 -1.6241
 6513TIP3   OH241029   4.526   4.647  16.650 -0.1597  0.1719  0.0044
 6513TIP3    H141030   4.443   4.626  16.609 -0.7151 -1.0503  1.6669
 6513TIP3    H241031   4.586   4.579  16.619 -0.5115 -0.5961  0.9789
 6514TIP3   OH241032   6.534   5.572  12.612 -0.0416 -0.1512 -0.6258
 6514TIP3    H141033   6.589   5.555  12.688 -0.6402 -0.5297 -0.2767
 6514TIP3    H241034   6.503   5.662  12.624 -1.0640 -0.5907  0.1793
 6515TIP3   OH241035   3.380   3.342   1.681 -0.7872  0.0871 -1.2960
 6515TIP3    H141036   3.336   3.358   1.764 -0.0711 -0.4051 -0.8052
 6515TIP3    H241037   3.417   3.427   1.657 -0.5916  0.1259 -0.8642
 6516TIP3   OH241038   3.409   4.666   0.131 -0.1734  0.2433 -0.0572
 6516TIP3    H141039   3.367   4.640   0.213 -1.3949  0.5021 -0.5804
 6516TIP3    H241040   3.490   4.615   0.128 -1.6737 -2.2986 -0.2354
 6517TIP3   OH241041   3.214   2.440  15.410  0.4608 -0.3000  0.3069
 6517TIP3    H141042   3.239   2.519  15.457 -2.4089 -0.0777  1.6867
 6517TIP3    H241043   3.248   2.452  15.321  0.2101  2.4304  0.5036
 6518TIP3   OH241044   1.703   1.219  17.036  0.4236  0.7235  0.0999
 6518TIP3    H141045   1.793   1.246  17.021  0.9686 -0.7889  0.5102
 6518TIP3    H241046   1.697   1.208  17.130 -0.7253  2.5194  0.2817
 6519TIP3   OH241047   4.192   5.574   2.974 -0.2570 -0.1672  0.0609
 6519TIP3    H141048   4.240   5.540   3.049  0.5523 -0.2834 -0.5028
 6519TIP3    H241049   4.258   5.588   2.907 -0.9265  0.2334 -0.5328
 6520TIP3   OH241050   3.486   5.093  15.690  0.0763  0.0075 -0.4559
 6520TIP3    H141051   3.416   5.088  15.756 -0.2012  1.8080 -0.5498
 6520TIP3    H241052   3.461   5.028  15.624  0.0445 -1.4103  0.8926
 6521TIP3   OH241053   1.093   3.197  12.630  0.8253 -0.0787  0.7615
 6521TIP3    H141054   1.133   3.129  12.684  0.1597 -1.5091 -0.4607
 6521TIP3    H241055   1.013   3.220  12.676 -0.9955 -3.0226 -0.6545
 6522TIP3   OH241056   4.375   1.974  12.389 -0.1232  0.1028  0.1720
 6522TIP3    H141057   4.304   1.982  12.326  0.2427  0.0968 -0.2448
 6522TIP3    H241058   4.338   1.921  12.460 -0.5993  0.2803  0.0602
 6523TIP3   OH241059   5.486   2.682   1.500 -0.3636  0.5866 -0.1204
 6523TIP3    H141060   5.543   2.753   1.470 -0.1443  0.8896  0.9443
 6523TIP3    H241061   5.536   2.602   1.485  0.4788  0.8634  1.0100
 6524TIP3   OH241062   2.864   5.121   4.758  0.1139  0.4789  0.2323
 6524TIP3    H141063   2.770   5.117   4.739  0.1811 -0.7304  0.0818
 6524TIP3    H241064   2.892   5.207   4.725 -1.1541  1.3502  1.3340
 6525TIP3   OH241065   0.275   0.063   4.456  0.0904  0.4931 -0.8133
 6525TIP3    H141066   0.342   0.100   4.514 -1.4515  0.5509  1.0244
 6525TIP3    H241067   0.310   0.076   4.368  1.7973  1.9006  0.0064
 6526TIP3   OH241068   3.103   3.981   4.346 -0.3884  0.6669 -0.9750
 6526TIP3    H141069   3.082   3.908   4.404 -0.9303  2.1486  0.7930
 6526TIP3    H241070   3.083   3.949   4.258 -0.4501 -1.3386 -0.2853
 6527TIP3   OH241071   6.069   4.474  16.377 -0.0666 -0.0753 -0.0524
 6527TIP3    H141072   6.045   4.555  16.331 -0.6454  1.1175  2.2248
 6527TIP3    H241073   5.990   4.421  16.375 -0.0079 -0.1498 -0.6239
 6528TIP3   OH241074   1.496   3.439  16.319  0.0188  0.2242 -0.0410
 6528TIP3    H141075   1.509   3.472  16.230 -2.2857  0.9251 -0.1852
 6528TIP3    H241076   1.401   3.441  16.332  0.1940 -1.2037  1.9468
 6529TIP3   OH241077   3.719   1.308   3.361 -0.4096 -0.4009 -0.0623
 6529TIP3    H141078   3.731   1.326   3.268 -0.8617  0.3910  0.0164
 6529TIP3    H241079   3.653   1.372   3.389 -1.6427 -1.8111  0.4100
 6530TIP3   OH241080   6.542   3.329   0.091 -0.0285  0.3337  0.8935
 6530TIP3    H141081   6.625   3.343   0.045 -0.5731 -0.1315 -0.2529
 6530TIP3    H241082   6.493   3.269   0.035 -1.5741  1.4081  1.0386
 6531TIP3   OH241083   1.779   3.665   2.306 -0.5652  0.1470  0.3118
 6531TIP3    H141084   1.773   3.619   2.223  0.3578  2.3096 -1.0404
 6531TIP3    H241085   1.704   3.724   2.307  0.2330  1.1865  0.2945
 6532TIP3   OH241086   4.416   5.910   5.174 -0.7836  0.5040  0.0089
 6532TIP3    H141087   4.396   5.840   5.112  1.0984 -1.0485  1.0319
 6532TIP3    H241088   4.493   5.954   5.136  0.3125 -0.3841  1.1008
 6533TIP3   OH241089   5.414   0.588   1.893 -0.4778  0.2965  0.5580
 6533TIP3    H141090   5.499   0.609   1.854 -0.2903 -1.5568 -0.1398
 6533TIP3    H241091   5.393   0.501   1.859 -2.0915  0.2021  1.6836
 6534TIP3   OH241092   2.849   5.705   4.233  0.3290  0.3807  0.1302
 6534TIP3    H141093   2.934   5.745   4.216  0.2504  0.1132 -1.0012
 6534TIP3    H241094   2.867   5.636   4.297  1.0611  0.0092 -0.4580
 6535TIP3   OH241095   1.128   3.134  13.132  0.4546  0.4626  0.3535
 6535TIP3    H141096   1.217   3.108  13.109  0.0664 -0.3543 -0.2690
 6535TIP3    H241097   1.100   3.070  13.197  0.6030  1.2114  1.1791
 6536TIP3   OH241098   3.657   1.027  16.217  0.1274 -0.2707 -0.0122
 6536TIP3    H141099   3.670   0.983  16.133 -0.0717 -0.3204 -0.0171
 6536TIP3    H241100   3.654   0.956  16.281 -0.2120 -0.2683 -0.0223
 6537TIP3   OH241101   0.522   6.628   1.693 -0.1277 -0.4871  0.7388
 6537TIP3    H141102   0.541   6.721   1.681 -0.9378 -0.4006  0.0762
 6537TIP3    H241103   0.488   6.599   1.608  0.4602 -1.4752  0.8280
 6538TIP3   OH241104   6.799   3.122  14.439 -0.7261 -0.2176 -0.0896
 6538TIP3    H141105   6.786   3.214  14.464 -0.9904 -0.0323 -0.8860
 6538TIP3    H241106   6.721   3.100  14.388 -0.8393 -1.0024  0.4050
 6539TIP3   OH241107   6.575   0.332  14.520  0.5438 -0.2946  0.1756
 6539TIP3    H141108   6.648   0.293  14.568  0.2800  0.4964  1.2633
 6539TIP3    H241109   6.510   0.262  14.514  0.4281 -0.2990  1.3234
 6540TIP3   OH241110   3.055   1.711   0.633 -0.0674  0.5298  0.1342
 6540TIP3    H141111   2.979   1.722   0.690 -1.3139 -2.8089 -0.6109
 6540TIP3    H241112   3.081   1.619   0.645  1.5976  0.5734 -2.2924
 6541TIP3   OH241113   5.032   3.198   4.703 -0.3360 -0.0558  0.6893
 6541TIP3    H141114   5.093   3.188   4.629  0.1420 -0.6901  1.1597
 6541TIP3    H241115   4.946   3.178   4.666 -0.1128 -0.2797  0.2818
 6542TIP3   OH241116   4.955   5.746  14.382 -0.7664 -0.2774  0.0445
 6542TIP3    H141117   4.999   5.677  14.432  0.1245  0.0697 -0.2308
 6542TIP3    H241118   4.932   5.812  14.448  0.1914  0.0697  0.0524
 6543TIP3   OH241119   4.714   2.731  11.340  0.5679  0.2268 -0.2971
 6543TIP3    H141120   4.754   2.721  11.254  1.3965 -0.2777  0.1357
 6543TIP3    H241121   4.725   2.646  11.382 -0.8780  0.0969 -0.1142
 6544TIP3   OH241122   2.467   5.165  14.763  0.2232 -0.0807 -0.6540
 6544TIP3    H141123   2.418   5.085  14.745 -0.8605  0.0715  1.3806
 6544TIP3    H241124   2.431   5.229  14.702 -0.4181 -0.6038 -0.8398
 6545TIP3   OH241125   0.347   4.944  16.555  0.2119 -0.0925 -0.5692
 6545TIP3    H141126   0.438   4.943  16.525  0.8712 -2.2906  1.1889
 6545TIP3    H241127   0.295   4.927  16.477  1.5386 -1.5174 -1.1782
 6546TIP3   OH241128   0.779   5.808  17.275  0.0427  0.3944 -0.2829
 6546TIP3    H141129   0.690   5.829  17.303  0.2318  1.6940 -0.6178
 6546TIP3    H241130   0.834   5.873  17.317  0.6674  0.5074 -1.2453
 6547TIP3   OH241131   5.654   0.247  15.496  0.5843  0.7173 -0.3497
 6547TIP3    H141132   5.588   0.315  15.514  0.6906  0.5628  0.6751
 6547TIP3    H241133   5.604   0.166  15.491  0.6690  0.6262  0.2391
 6548TIP3   OH241134   2.065   4.242  16.296  0.4932  0.1165 -0.0880
 6548TIP3    H141135   2.067   4.213  16.387 -0.4079  2.6508  0.8074
 6548TIP3    H241136   1.997   4.189  16.255 -1.8786  1.5495  1.7599
 6549TIP3   OH241137   1.937   6.029  11.618  0.3113  0.3719  0.1409
 6549TIP3    H141138   2.021   6.025  11.572  0.3099 -0.0570  0.1751
 6549TIP3    H241139   1.873   5.994  11.556  0.4354 -0.9895  0.7505
 6550TIP3   OH241140   4.033   5.820   0.662 -0.3290 -0.8951 -0.4819
 6550TIP3    H141141   3.954   5.866   0.690 -1.1190 -0.1809 -3.5246
 6550TIP3    H241142   4.104   5.883   0.675 -0.2045 -1.4972  2.1553
 6551TIP3   OH241143   2.941   5.810  15.560 -0.2392  0.3279  0.0618
 6551TIP3    H141144   2.925   5.750  15.633 -0.1828  1.1908  0.7959
 6551TIP3    H241145   2.890   5.773  15.487  1.1917 -1.6077 -0.0494
 6552TIP3   OH241146   3.208   2.297   2.865 -0.2219 -0.4652  0.1392
 6552TIP3    H141147   3.273   2.244   2.820  1.0965  1.6685 -0.5900
 6552TIP3    H241148   3.159   2.340   2.795  0.3366  1.1183  0.6807
 6553TIP3   OH241149   5.724   3.729  15.380  0.1416 -0.7266 -0.1209
 6553TIP3    H141150   5.790   3.675  15.337  0.7473 -2.0002  2.2523
 6553TIP3    H241151   5.674   3.668  15.435 -0.1444  0.8678  1.4893
 6554TIP3   OH241152   2.812   3.331  12.920  0.0835 -0.8937  0.2876
 6554TIP3    H141153   2.843   3.284  12.843  1.8860 -1.4658  1.2872
 6554TIP3    H241154   2.788   3.261  12.982  2.2178 -0.5719  1.5731
 6555TIP3   OH241155   5.324   2.944   1.677 -0.3105 -0.3111 -0.1853
 6555TIP3    H141156   5.401   2.998   1.661 -0.5349  0.5153  1.3562
 6555TIP3    H241157   5.351   2.856   1.650  0.6163  0.2499 -1.1725
 6556TIP3   OH241158   1.227   0.967  15.104 -0.2994  1.1180  0.4155
 6556TIP3    H141159   1.143   0.954  15.058  0.0357 -0.2910  0.1507
 6556TIP3    H241160   1.229   0.896  15.169  0.5593  1.3234  0.6143
 6557TIP3   OH241161   5.931   2.829   1.704 -0.5374  0.3708 -0.1200
 6557TIP3    H141162   5.866   2.782   1.757 -1.6211  1.8842 -0.0442
 6557TIP3    H241163   5.896   2.826   1.615 -1.3318  2.1105  0.0847
 6558TIP3   OH241164   4.590   2.447   0.629 -0.2648 -0.0551 -0.0808
 6558TIP3    H141165   4.507   2.474   0.668 -0.3699  0.4710 -0.6429
 6558TIP3    H241166   4.568   2.372   0.575 -0.5161  0.5239 -0.7963
 6559TIP3   OH241167   6.754   2.706  15.539  0.2570  0.2493 -0.2204
 6559TIP3    H141168   6.723   2.758  15.465 -1.9944 -0.4913  0.1184
 6559TIP3    H241169   6.802   2.769  15.593 -2.1838  2.0219  0.0663
 6560TIP3   OH241170   0.343   3.170  12.342 -0.0200 -0.0874  0.3909
 6560TIP3    H141171   0.335   3.096  12.401 -1.0264 -0.9915 -0.8164
 6560TIP3    H241172   0.262   3.169  12.290  0.1873  1.5170 -0.0468
 6561TIP3   OH241173   6.136   3.628  15.869  0.2724 -0.1656  0.0599
 6561TIP3    H141174   6.168   3.540  15.889 -0.2843 -1.1493 -2.8771
 6561TIP3    H241175   6.193   3.660  15.800 -1.4115  0.4675 -1.1215
 6562TIP3   OH241176   0.581   2.185  16.807  0.1519 -0.1879  0.0679
 6562TIP3    H141177   0.561   2.095  16.780  0.9904 -0.2226 -0.4580
 6562TIP3    H241178   0.612   2.177  16.897  2.7931 -0.7856 -0.8217
 6563TIP3   OH241179   6.651   3.875  16.806  0.3540 -0.2524 -0.2275
 6563TIP3    H141180   6.596   3.936  16.756  1.7447 -0.3747 -2.0392
 6563TIP3    H241181   6.739   3.913  16.801  1.1288 -2.0127 -0.8248
 6564TIP3   OH241182   3.565   6.419   3.918  0.3245 -0.4186 -0.0328
 6564TIP3    H141183   3.529   6.504   3.943 -1.2170 -1.1046  0.1687
 6564TIP3    H241184   3.660   6.429   3.929  0.0793  0.8814  1.1790
 6565TIP3   OH241185   2.775   5.965  16.293 -0.3593  0.3518 -0.0461
 6565TIP3    H141186   2.832   5.994  16.222 -0.7983  1.1820 -0.0735
 6565TIP3    H241187   2.818   5.888  16.328  0.9276  1.1079  0.1033
 6566TIP3   OH241188   6.800   0.103   1.832  0.1442 -0.5957 -0.9592
 6566TIP3    H141189   6.706   0.090   1.835 -0.0315  0.6123 -0.7700
 6566TIP3    H241190   6.837   0.018   1.855 -0.8817 -1.2636 -1.6835
 6567TIP3   OH241191   1.630   6.093   6.457  0.6746  0.0766  0.3573
 6567TIP3    H141192   1.725   6.081   6.462  0.8754  0.4678 -1.6643
 6567TIP3    H241193   1.618   6.187   6.467  0.4842  0.0214  0.6627
 6568TIP3   OH241194   6.531   6.220   0.729 -0.3159 -0.4225 -0.0385
 6568TIP3    H141195   6.570   6.267   0.802  1.2189  0.0763 -1.1146
 6568TIP3    H241196   6.460   6.277   0.699 -1.1949 -0.8028  1.2504
 6569TIP3   OH241197   0.882   0.354   1.433  0.2051 -0.5402  0.4863
 6569TIP3    H141198   0.962   0.388   1.394 -0.9557  1.3150 -0.3921
 6569TIP3    H241199   0.897   0.361   1.528  0.7456  0.6300  0.3278
 6570TIP3   OH241200   2.217   0.751   0.908  0.0821  0.0798 -0.2664
 6570TIP3    H141201   2.165   0.725   0.831  1.1572  0.4137 -1.1418
 6570TIP3    H241202   2.170   0.826   0.944  0.1275  0.6110 -1.2575
 6571TIP3   OH241203   1.447   2.690   1.345 -0.5108 -0.1676  0.1664
 6571TIP3    H141204   1.381   2.753   1.317 -0.4107 -0.3855 -0.5763
 6571TIP3    H241205   1.453   2.627   1.273  1.5583  0.6639 -0.4706
 6572TIP3   OH241206   2.035   2.664   1.833 -0.2985 -0.2554 -0.3074
 6572TIP3    H141207   2.099   2.679   1.903 -0.0732 -1.8905 -0.1121
 6572TIP3    H241208   1.964   2.725   1.852 -0.7036 -1.3211  1.9673
 6573TIP3   OH241209   0.995   0.665  12.910  0.0167  0.6606  0.2956
 6573TIP3    H141210   0.903   0.687  12.925 -0.1640  1.5700 -1.7841
 6573TIP3    H241211   1.028   0.737  12.856  2.6723  1.6782  3.0027
 6574TIP3   OH241212   1.169   2.006  11.800  0.5944 -0.5303  0.3950
 6574TIP3    H141213   1.142   2.098  11.807  0.4947 -0.5501  0.2869
 6574TIP3    H241214   1.158   1.971  11.888  2.0900 -0.0543  0.8020
 6575TIP3   OH241215   5.777   2.498   5.898  0.2998 -0.3672  0.0655
 6575TIP3    H141216   5.865   2.533   5.889  0.4477 -0.6300  0.4403
 6575TIP3    H241217   5.770   2.475   5.991 -0.0586 -0.6213 -0.0220
 6576TIP3   OH241218   3.944   4.384  13.700  0.3532 -0.1141 -0.4518
 6576TIP3    H141219   3.940   4.480  13.699  0.4216 -0.1068 -0.0861
 6576TIP3    H241220   3.974   4.361  13.613 -0.6715  0.1541 -0.8919
 6577TIP3   OH241221   0.429   1.887  12.216 -0.2810 -0.0453 -0.6627
 6577TIP3    H141222   0.451   1.934  12.136 -0.1508  0.4446 -0.3456
 6577TIP3    H241223   0.344   1.922  12.242  0.5501  1.2241  0.4606
 6578TIP3   OH241224   2.078   3.748  12.063 -0.3234 -0.1363  0.4445
 6578TIP3    H141225   2.091   3.843  12.064  1.0912 -0.2870 -0.4203
 6578TIP3    H241226   2.003   3.734  12.006  0.5997  0.3882 -0.9623
 6579TIP3   OH241227   1.778   1.808  14.824 -0.6486  0.6100 -0.6714
 6579TIP3    H141228   1.787   1.714  14.809 -0.3948  0.1100  2.1437
 6579TIP3    H241229   1.863   1.836  14.857 -1.2480  1.4505  0.2187
 6580TIP3   OH241230   2.687   2.856   0.022  0.2461  0.5864  0.4271
 6580TIP3    H141231   2.592   2.852   0.032  0.0170  1.3670 -1.2284
 6580TIP3    H241232   2.709   2.949   0.023  1.2207  0.4004  2.3231
 6581TIP3   OH241233   2.848   2.639   1.649 -0.0230 -0.3508 -0.4436
 6581TIP3    H141234   2.766   2.591   1.657  0.5085 -1.2546 -0.2477
 6581TIP3    H241235   2.905   2.582   1.597  0.5494  0.1701 -0.4074
 6582TIP3   OH241236   2.823   5.441   4.300  0.9021 -0.0976  0.2835
 6582TIP3    H141237   2.738   5.460   4.340 -0.3177 -2.0381 -1.2240
 6582TIP3    H241238   2.810   5.458   4.207  1.9278 -1.2278 -0.0813
 6583TIP3   OH241239   4.525   3.061   2.123  0.3247 -0.1885 -0.2125
 6583TIP3    H141240   4.442   3.090   2.160  0.2248 -0.7672  0.0229
 6583TIP3    H241241   4.503   3.025   2.038  0.5964  1.4478 -1.0300
 6584TIP3   OH241242   4.849   0.679  13.188  0.5182 -0.1340 -0.0210
 6584TIP3    H141243   4.838   0.774  13.190 -0.8621 -0.2910  1.9876
 6584TIP3    H241244   4.821   0.654  13.100  0.3396  1.2389 -0.3827
 6585TIP3   OH241245   5.663   6.419  13.169 -0.0671  0.1708  0.1921
 6585TIP3    H141246   5.597   6.381  13.228 -1.1777  0.2292 -0.9807
 6585TIP3    H241247   5.618   6.493  13.128  0.7460  0.2316 -0.6062
 6586TIP3   OH241248   6.304   3.288  16.671  0.0067  0.0792 -0.6054
 6586TIP3    H141249   6.222   3.262  16.628  0.2850 -2.2352  0.1150
 6586TIP3    H241250   6.367   3.296  16.599 -0.1537 -1.1793 -0.9187
 6587TIP3   OH241251   0.955   3.923   0.393 -0.1653  0.5856  0.3791
 6587TIP3    H141252   1.011   3.935   0.470 -0.1013  2.0127  0.1451
 6587TIP3    H241253   0.876   3.972   0.413 -0.8921 -0.4985  0.2382
 6588TIP3   OH241254   5.939   4.774  10.717  0.1474 -0.0200 -0.4557
 6588TIP3    H141255   5.952   4.830  10.641 -0.0676 -1.8041 -1.8861
 6588TIP3    H241256   5.867   4.716  10.691 -0.0161 -0.5857  1.1709
 6589TIP3   OH241257   3.789   3.759  13.389 -0.0325 -0.4969 -0.0112
 6589TIP3    H141258   3.825   3.717  13.467 -1.1023 -1.5458 -0.0553
 6589TIP3    H241259   3.759   3.687  13.334 -1.0157  0.2944 -0.5532
 6590TIP3   OH241260   1.221   4.320   6.749  0.1077  0.2775  0.2517
 6590TIP3    H141261   1.208   4.238   6.703 -0.3225  1.1318 -1.2223
 6590TIP3    H241262   1.306   4.310   6.793 -0.6940 -1.5357  1.4837
 6591TIP3   OH241263   3.117   4.358   0.013 -0.7101 -0.2983  0.0815
 6591TIP3    H141264   3.168   4.332  -0.063 -2.0546 -0.6232 -0.7491
 6591TIP3    H241265   3.114   4.454   0.009  0.7697 -0.1963  0.8016
 6592TIP3   OH241266   1.213   1.677   3.276  0.3750  0.9667  0.1681
 6592TIP3    H141267   1.130   1.680   3.229  0.2358 -1.5282  0.1268
 6592TIP3    H241268   1.190   1.649   3.365  1.3042 -3.9092 -0.8282
 6593TIP3   OH241269   1.803   2.130  17.235 -0.1051 -0.9726 -0.4637
 6593TIP3    H141270   1.782   2.044  17.199 -3.3968 -1.1165  1.3829
 6593TIP3    H241271   1.719   2.163  17.268  1.7234  1.1968  2.5363
 6594TIP3   OH241272   2.301   4.024   3.183 -0.2981 -0.1036 -0.3009
 6594TIP3    H141273   2.382   4.032   3.233 -0.8854  0.8404  0.5550
 6594TIP3    H241274   2.241   3.977   3.241 -0.6927  0.1826 -0.4668
 6595TIP3   OH241275   6.531   4.153   4.477  0.2779 -0.2950  0.3149
 6595TIP3    H141276   6.615   4.198   4.470  0.5272 -0.4940  1.7606
 6595TIP3    H241277   6.466   4.217   4.447  0.8740  0.0757 -0.1980
 6596TIP3   OH241278   4.319   1.618  15.198 -0.1313 -0.0755 -0.3636
 6596TIP3    H141279   4.408   1.638  15.227 -0.2856  0.3672 -0.1783
 6596TIP3    H241280   4.322   1.627  15.103  0.0529 -0.1813 -0.3674
 6597TIP3   OH241281   3.552   0.167  13.605 -0.2478  0.3289 -0.2101
 6597TIP3    H141282   3.587   0.231  13.666 -1.5645  0.1366  0.8064
 6597TIP3    H241283   3.587   0.083  13.635 -2.1661  0.0210  1.3545
 6598TIP3   OH241284   4.244   1.795   1.037  0.0472 -0.5496  0.2350
 6598TIP3    H141285   4.234   1.712   1.085  0.0870 -0.9655 -0.4566
 6598TIP3    H241286   4.218   1.862   1.100 -1.9840 -1.2265  0.1814
 6599TIP3   OH241287   2.805   0.144  15.557 -0.2730  0.0234  0.6083
 6599TIP3    H141288   2.714   0.125  15.533 -0.1049  0.1039 -0.0872
 6599TIP3    H241289   2.840   0.193  15.483  0.4694 -0.3686  0.6951
 6600TIP3   OH241290   4.339   5.689  14.404  0.0939  0.2619  0.9405
 6600TIP3    H141291   4.395   5.767  14.403  0.4151  0.0218  0.1931
 6600TIP3    H241292   4.267   5.711  14.345 -1.1616  0.9528  2.6145
 6601TIP3   OH241293   4.147   6.500   4.058 -0.2596  0.5143 -0.1474
 6601TIP3    H141294   4.235   6.529   4.033  0.3842 -1.6859 -0.5889
 6601TIP3    H241295   4.114   6.456   3.980 -0.5290 -1.3416  0.9637
 6602TIP3   OH241296   6.072   5.418  13.336 -0.3261 -0.0591  0.1064
 6602TIP3    H141297   6.065   5.330  13.299 -0.2588 -0.6911  1.5123
 6602TIP3    H241298   6.124   5.468  13.273 -0.6590 -0.9324 -0.8714
 6603TIP3   OH241299   1.642   1.404   5.011  0.7883  0.8948  1.0443
 6603TIP3    H141300   1.597   1.446   5.085  1.7069  1.6503  1.1896
 6603TIP3    H241301   1.723   1.370   5.048  1.6932  2.0743  0.2263
 6604TIP3   OH241302   0.998   6.400  11.832 -0.1003  0.1640  0.6850
 6604TIP3    H141303   0.988   6.451  11.912  0.2793 -0.1161  0.9088
 6604TIP3    H241304   0.928   6.334  11.836 -1.5193  1.5054 -0.2679
 6605TIP3   OH241305   5.437   3.867   4.664  0.2218 -0.0351 -0.0222
 6605TIP3    H141306   5.467   3.939   4.609  2.5669 -0.4606  0.5877
 6605TIP3    H241307   5.368   3.905   4.719  2.5799  2.3099  1.5130
 6606TIP3   OH241308   3.666   5.141   0.883  0.1193 -0.1129 -0.1040
 6606TIP3    H141309   3.685   5.234   0.895 -0.8423  0.4102 -2.1896
 6606TIP3    H241310   3.586   5.126   0.934 -0.4114  0.5389 -0.7113
 6607TIP3   OH241311   4.045   1.767  14.841  0.3877  0.0942 -0.7055
 6607TIP3    H141312   3.972   1.730  14.793  0.6683 -0.5340 -0.6648
 6607TIP3    H241313   4.029   1.862  14.843 -0.4420 -0.0474 -0.6460
 6608TIP3   OH241314   3.190   4.613   1.584  0.4285  0.5055 -0.5687
 6608TIP3    H141315   3.243   4.557   1.641  0.2571  1.8003  0.9635
 6608TIP3    H241316   3.254   4.664   1.535  0.5830 -0.2144 -1.1248
 6609TIP3   OH241317   0.037   6.624   3.336  0.4882  0.1697 -0.3448
 6609TIP3    H141318   0.086   6.706   3.332  0.7618  0.1672  1.7728
 6609TIP3    H241319   0.021   6.610   3.430 -1.7946 -0.8844 -0.8233
 6610TIP3   OH241320   6.295   5.448   2.312  0.7028  0.0481  0.4326
 6610TIP3    H141321   6.327   5.382   2.251 -0.2028  0.4884 -0.5517
 6610TIP3    H241322   6.305   5.408   2.399 -0.6407 -1.7571 -0.1818
 6611TIP3   OH241323   6.563   4.394   3.073  0.2661  0.1363 -0.0222
 6611TIP3    H141324   6.472   4.372   3.093  0.4921 -2.6333 -1.5647
 6611TIP3    H241325   6.612   4.366   3.149  0.2370 -2.5297 -0.9047
 6612TIP3   OH241326   1.653   5.603  13.159 -0.9330 -0.2011  0.1381
 6612TIP3    H141327   1.655   5.604  13.064  1.2738 -0.9166  0.0986
 6612TIP3    H241328   1.610   5.520  13.182 -0.0054 -0.8345 -0.3126
 6613TIP3   OH241329   2.923   5.122   3.577 -0.2156  0.0052  0.5103
 6613TIP3    H141330   2.936   5.100   3.485  1.6517 -0.7782  0.9244
 6613TIP3    H241331   2.927   5.217   3.580  0.3825  0.0041 -0.1222
 6614TIP3   OH241332   2.829   5.581  10.298 -0.1772 -1.0963  0.3380
 6614TIP3    H141333   2.825   5.672  10.269 -1.2569 -1.4104 -0.5864
 6614TIP3    H241334   2.888   5.582  10.373 -1.3203  0.6233  1.2794
 6615TIP3   OH241335   2.205   6.154  15.735 -0.1394 -0.4371 -0.2495
 6615TIP3    H141336   2.176   6.242  15.711 -0.9605 -0.2070  1.4527
 6615TIP3    H241337   2.153   6.096  15.681 -0.2368  0.1028 -0.7447
 6616TIP3   OH241338   4.789   4.898   2.056  0.2244 -0.5604  0.0402
 6616TIP3    H141339   4.854   4.831   2.036 -0.6036 -1.2554 -0.4094
 6616TIP3    H241340   4.786   4.900   2.152  0.3654 -1.0657  0.0591
 6617TIP3   OH241341   2.476   6.414   5.584  0.0963  0.2207  0.2665
 6617TIP3    H141342   2.391   6.390   5.546  0.0878 -0.4699  0.7003
 6617TIP3    H241343   2.539   6.358   5.538  0.1604 -0.1717  0.8292
 6618TIP3   OH241344   1.797   6.621   6.448  0.6949  0.0972 -0.1122
 6618TIP3    H141345   1.707   6.626   6.417  1.2218  0.2062 -1.7055
 6618TIP3    H241346   1.790   6.591   6.538 -0.9587  0.6762 -0.0194
 6619TIP3   OH241347   5.008   4.372  15.105 -0.0345 -0.1864  0.0482
 6619TIP3    H141348   5.049   4.421  15.177  0.0241  0.6805 -0.5584
 6619TIP3    H241349   5.030   4.281  15.123  2.7211  0.2804 -0.5724
 6620TIP3   OH241350   6.421   3.304   1.186 -0.1659  0.2755  0.0986
 6620TIP3    H141351   6.348   3.249   1.158  0.7993 -0.0683 -1.8710
 6620TIP3    H241352   6.484   3.242   1.223 -0.4660  0.4728  0.9689
 6621TIP3   OH241353   5.260   3.061   2.021 -0.1920 -0.4056 -0.0990
 6621TIP3    H141354   5.311   3.112   1.958  0.5244 -0.3986  0.4823
 6621TIP3    H241355   5.175   3.105   2.024  0.6693  1.2962  1.0029
 6622TIP3   OH241356   2.586   1.712   3.034 -0.0177  0.1200 -0.0630
 6622TIP3    H141357   2.561   1.787   2.980  1.0356  0.7477  0.2966
 6622TIP3    H241358   2.514   1.702   3.096 -0.7715  0.0161 -0.9189
 6623TIP3   OH241359   4.347   0.686   0.989 -0.9541  0.5970  0.0496
 6623TIP3    H141360   4.287   0.625   1.033 -0.4474  0.0869  0.0464
 6623TIP3    H241361   4.424   0.633   0.970  0.7071  1.9087  2.6009
 6624TIP3   OH241362   0.435   0.308   5.578 -0.1675 -0.0239 -0.8448
 6624TIP3    H141363   0.475   0.229   5.613 -0.5898 -1.8194 -4.0564
 6624TIP3    H241364   0.496   0.339   5.511 -0.2504  2.1390 -0.0025
 6625TIP3   OH241365   5.569   3.574  12.089  0.3804 -0.0244  0.2267
 6625TIP3    H141366   5.616   3.528  12.159  0.7265  0.7189  0.4959
 6625TIP3    H241367   5.636   3.592  12.023  0.0791 -0.6144 -0.2414
 6626TIP3   OH241368   2.871   4.353   6.338 -0.8658 -0.7211 -0.8186
 6626TIP3    H141369   2.958   4.393   6.329 -0.6122 -1.0036  0.2140
 6626TIP3    H241370   2.877   4.302   6.419 -2.8676  1.5836  0.9617
 6627TIP3   OH241371   4.716   1.798  12.680 -0.3028 -0.1515  0.1769
 6627TIP3    H141372   4.628   1.782  12.713 -0.2389 -2.1601 -0.5136
 6627TIP3    H241373   4.731   1.729  12.616  0.9002  1.5541 -1.4739
 6628TIP3   OH241374   3.569   4.081  11.359 -0.3710  0.2257 -1.0078
 6628TIP3    H141375   3.650   4.121  11.329 -0.9993  1.9886 -0.4890
 6628TIP3    H241376   3.535   4.141  11.426 -1.7918 -0.7727 -0.7636
 6629TIP3   OH241377   1.456   5.840  15.632  0.0673  0.1705 -0.0680
 6629TIP3    H141378   1.446   5.924  15.677 -1.6787 -0.7524  1.3718
 6629TIP3    H241379   1.370   5.798  15.639  0.2012 -0.7538 -2.8537
 6630TIP3   OH241380   1.449   6.557   1.040  0.0935 -0.0962  0.1871
 6630TIP3    H141381   1.395   6.587   1.113 -0.1232  0.4249 -0.1797
 6630TIP3    H241382   1.407   6.476   1.010  1.0317 -1.1291  1.5748
 6631TIP3   OH241383   3.494   3.477   4.405 -0.3724  0.2783 -0.4145
 6631TIP3    H141384   3.416   3.470   4.459 -0.3726  0.2057 -0.4232
 6631TIP3    H241385   3.502   3.390   4.364  0.7650 -0.3471  1.0349
 6632TIP3   OH241386   5.459   0.470   1.507 -0.3323  0.3770 -0.0455
 6632TIP3    H141387   5.547   0.444   1.483  0.0847 -0.0757  1.8701
 6632TIP3    H241388   5.469   0.557   1.547 -0.8325  0.5334 -0.2433
 6633TIP3   OH241389   6.079   5.761   2.055  0.0067  0.4432 -0.2458
 6633TIP3    H141390   5.994   5.744   2.096 -0.0823  0.8106 -0.2723
 6633TIP3    H241391   6.063   5.832   1.994  0.0241 -0.4719 -1.3428
 6634TIP3   OH241392   4.004   5.323   1.181  0.1072 -0.8415  0.4032
 6634TIP3    H141393   3.928   5.276   1.148 -0.7087  0.7823 -0.1168
 6634TIP3    H241394   3.976   5.359   1.265 -0.7077  2.0017 -0.9592
 6635TIP3   OH241395   4.043   2.669   6.226  0.4231 -0.5187  0.2098
 6635TIP3    H141396   4.087   2.599   6.274  2.3817 -1.3163 -2.4867
 6635TIP3    H241397   4.112   2.734   6.210 -0.6252  0.5904  0.0830
 6636TIP3   OH241398   2.712   3.590  14.374 -0.1860 -0.5133  0.2981
 6636TIP3    H141399   2.774   3.524  14.404  0.7516 -0.4219 -1.3178
 6636TIP3    H241400   2.767   3.659  14.336 -1.2478 -0.3767 -1.0802
 6637TIP3   OH241401   3.884   5.368  14.922  0.2762  0.2383 -0.5023
 6637TIP3    H141402   3.853   5.343  15.009 -0.2685  0.8112 -0.5258
 6637TIP3    H241403   3.884   5.287  14.872  0.7219 -0.1184  0.0711
 6638TIP3   OH241404   2.825   2.431  12.902 -0.0662  0.8469 -0.3534
 6638TIP3    H141405   2.860   2.416  12.814 -2.0321  0.1108 -1.0677
 6638TIP3    H241406   2.798   2.344  12.932 -1.3316  1.3758  0.1035
 6639TIP3   OH241407   3.204   5.153   3.751  0.2217 -0.5257 -0.3190
 6639TIP3    H141408   3.211   5.057   3.756 -0.8652 -0.5577  1.3037
 6639TIP3    H241409   3.130   5.174   3.808  0.5027  1.2993 -0.5887
 6640TIP3   OH241410   4.092   5.367  16.984 -0.1220 -0.2726 -0.3955
 6640TIP3    H141411   4.141   5.293  16.948 -1.8733 -2.1036  0.7477
 6640TIP3    H241412   4.048   5.331  17.061 -1.6993  1.7610 -0.2670
 6641TIP3   OH241413   5.810   1.185  16.245 -0.2561  0.0019 -0.2955
 6641TIP3    H141414   5.815   1.240  16.323  2.0899 -0.1002 -0.2820
 6641TIP3    H241415   5.776   1.102  16.277 -1.7772  0.7280  0.0880
 6642TIP3   OH241416   1.072   3.873   1.661 -0.0732  0.1183  0.5762
 6642TIP3    H141417   1.000   3.921   1.621  0.9624  0.0961 -1.4547
 6642TIP3    H241418   1.032   3.793   1.695 -0.9978  0.0020 -0.6951
 6643TIP3   OH241419   0.165   0.102   3.665  0.6271  0.3621  0.0935
 6643TIP3    H141420   0.197   0.038   3.601  0.3500  0.8843 -0.5834
 6643TIP3    H241421   0.238   0.112   3.727  1.2122  0.4269 -0.5844
 6644TIP3   OH241422   2.937   1.343  14.863  1.0365 -0.1597 -0.1894
 6644TIP3    H141423   2.940   1.401  14.938 -2.2388 -1.1626  0.8563
 6644TIP3    H241424   2.993   1.269  14.888  1.6941  0.4903  0.3040
 6645TIP3   OH241425   4.221   3.446   0.534  0.3581  0.1245  0.2408
 6645TIP3    H141426   4.243   3.353   0.524  0.4584  0.2128 -0.4131
 6645TIP3    H241427   4.297   3.492   0.499 -0.1375  0.4394 -0.4510
 6646TIP3   OH241428   3.014   2.205   5.598  0.0041  0.4673 -0.0469
 6646TIP3    H141429   2.971   2.236   5.518  1.2840 -0.5791 -1.1796
 6646TIP3    H241430   3.000   2.110   5.598 -1.8202  0.6436  2.1363
 6647TIP3   OH241431   3.402   1.678  12.679  1.0859  0.4076 -0.2501
 6647TIP3    H141432   3.492   1.710  12.685  1.0361  0.2005  3.1570
 6647TIP3    H241433   3.390   1.658  12.586  4.3008  1.0952 -0.9200
 6648TIP3   OH241434   3.470   4.556   4.143 -0.3501 -0.1325  0.1071
 6648TIP3    H141435   3.480   4.499   4.067 -3.4407 -1.0033  0.2011
 6648TIP3    H241436   3.467   4.645   4.106  0.4393 -0.3418 -0.4937
 6649TIP3   OH241437   6.396   1.142  11.917 -0.2655  0.3748 -0.4941
 6649TIP3    H141438   6.472   1.084  11.912  0.0161  0.4737  1.7479
 6649TIP3    H241439   6.434   1.230  11.922 -0.3776  0.3688  1.7930
 6650TIP3   OH241440   4.999   3.150   0.986  0.2015 -0.0535 -0.6047
 6650TIP3    H141441   5.079   3.157   0.934  0.4591 -0.2773 -0.2485
 6650TIP3    H241442   4.928   3.166   0.924  0.5056 -0.2470 -1.0050
 6651TIP3   OH241443   1.591   4.030   4.126  0.3412  0.0310 -0.1547
 6651TIP3    H141444   1.579   3.972   4.201 -0.5552  1.2930  0.7229
 6651TIP3    H241445   1.537   3.990   4.057  0.1812 -0.4839  0.2564
 6652TIP3   OH241446   6.382   0.311  11.005 -0.1426  0.1826  0.3883
 6652TIP3    H141447   6.430   0.277  10.929  1.9644  0.7342  1.4039
 6652TIP3    H241448   6.414   0.260  11.079 -2.8362 -0.9846  0.8851
 6653TIP3   OH241449   0.967   3.722   0.200  0.0724 -0.2886 -0.1321
 6653TIP3    H141450   0.886   3.759   0.165  1.2020 -0.5306 -3.4029
 6653TIP3    H241451   0.985   3.773   0.279 -2.3848  0.8633 -0.2328
 6654TIP3   OH241452   0.924   0.703  15.797  0.2023 -0.0298  0.5142
 6654TIP3    H141453   0.934   0.782  15.744 -1.5579  0.6005  1.0443
 6654TIP3    H241454   1.003   0.700  15.851 -0.2766  2.1387  1.4440
 6655TIP3   OH241455   1.762   6.603  17.049  0.8364  0.1646  0.2002
 6655TIP3    H141456   1.704   6.593  16.974  1.5476  0.3844 -0.3820
 6655TIP3    H241457   1.705   6.591  17.125  0.5224 -2.4487 -0.3525
 6656TIP3   OH241458   1.768   2.727   1.800  0.4826  0.2279  0.0900
 6656TIP3    H141459   1.786   2.758   1.711  1.9148  0.6542  0.5042
 6656TIP3    H241460   1.690   2.672   1.791  1.6316 -1.2245 -1.7438
 6657TIP3   OH241461   1.668   1.937   6.380 -0.5507  0.0844 -0.6270
 6657TIP3    H141462   1.611   1.944   6.457 -2.4878 -0.0879 -1.9812
 6657TIP3    H241463   1.628   1.868   6.327  1.6743 -0.9502 -1.0730
 6658TIP3   OH241464   4.717   1.368   1.314  0.0633 -0.6633  0.6630
 6658TIP3    H141465   4.704   1.296   1.377  2.0327 -1.4005  0.2702
 6658TIP3    H241466   4.739   1.444   1.369  1.3497 -1.1989  0.9146
 6659TIP3   OH241467   4.047   3.685   0.442 -0.4381 -0.8471  0.1251
 6659TIP3    H141468   4.110   3.750   0.473 -0.4645 -1.3403  1.2884
 6659TIP3    H241469   3.978   3.737   0.400  0.5863 -0.2852 -0.9312
 6660TIP3   OH241470   3.274   4.393  10.994  0.6695  0.1272 -0.3571
 6660TIP3    H141471   3.311   4.323  10.939 -0.7383  0.1737 -1.4026
 6660TIP3    H241472   3.283   4.472  10.942  0.2885  0.3596 -0.0731
 6661TIP3   OH241473   1.626   0.603  15.469  0.1477  0.3215 -0.4497
 6661TIP3    H141474   1.537   0.570  15.483 -0.5616  0.7012 -3.3247
 6661TIP3    H241475   1.676   0.526  15.440  0.5784  0.2580  0.4368
 6662TIP3   OH241476   3.197   4.679  14.346 -0.3625  0.4798  0.1959
 6662TIP3    H141477   3.114   4.695  14.391  0.3506  0.1421  1.6957
 6662TIP3    H241478   3.189   4.727  14.264 -1.2858  2.0866  1.1588
 6663TIP3   OH241479   1.884   3.364  16.220 -0.2475  0.1985  0.4968
 6663TIP3    H141480   1.930   3.283  16.196  2.7909  2.0434 -0.4522
 6663TIP3    H241481   1.816   3.372  16.153  0.5085 -0.7378 -0.4445
 6664TIP3   OH241482   5.992   3.195   4.025  0.1092 -0.1191  0.3375
 6664TIP3    H141483   6.020   3.208   4.115  0.0768 -2.1406  0.6967
 6664TIP3    H241484   5.926   3.263   4.010 -1.1938 -0.8183  2.4453
 6665TIP3   OH241485   2.965   3.734   1.806  0.0019 -0.1329 -0.0057
 6665TIP3    H141486   2.885   3.774   1.841  0.7902  0.9982  0.5547
 6665TIP3    H241487   3.036   3.781   1.849  0.9807 -1.0949 -0.5305
 6666TIP3   OH241488   2.620   3.752  17.134 -0.2524 -0.1412  0.3614
 6666TIP3    H141489   2.672   3.788  17.061  0.8783 -1.8563  0.2753
 6666TIP3    H241490   2.538   3.725  17.093 -0.7325  1.3506  0.2558
 6667TIP3   OH241491   5.029   2.071  13.345  0.1912  0.6373 -0.3992
 6667TIP3    H141492   4.941   2.101  13.367  0.1807  0.1244  0.3074
 6667TIP3    H241493   5.025   1.976  13.358  0.8529  0.6145 -0.3482
 6668TIP3   OH241494   6.813   5.433   4.279 -0.0753  0.3816  0.0941
 6668TIP3    H141495   6.722   5.464   4.281 -0.2421 -0.0449  2.6523
 6668TIP3    H241496   6.814   5.368   4.209 -1.6725  0.5993 -0.1696
 6669TIP3   OH241497   4.393   6.730   0.066 -0.1941 -0.0514 -0.0706
 6669TIP3    H141498   4.480   6.714   0.030  0.6551  1.7347  1.0314
 6669TIP3    H241499   4.374   6.821   0.043 -1.0411  0.1057  1.1274
 6670TIP3   OH241500   2.547   0.284  12.339 -0.1693  0.1556 -0.1349
 6670TIP3    H141501   2.566   0.374  12.312 -0.9385  0.0033 -1.2578
 6670TIP3    H241502   2.633   0.248  12.363  0.5153  0.5122 -1.8467
 6671TIP3   OH241503   2.481   4.207  11.275 -0.1573  0.4826 -0.1687
 6671TIP3    H141504   2.443   4.129  11.236 -0.7490  0.7767 -0.1950
 6671TIP3    H241505   2.553   4.175  11.329  0.1861  0.0129 -0.9076
 6672TIP3   OH241506   4.232   0.363   5.312  0.5986  0.2851  0.2000
 6672TIP3    H141507   4.152   0.366   5.260  0.8607 -0.5924 -0.2719
 6672TIP3    H241508   4.283   0.439   5.283  0.4040  0.2372 -0.2681
 6673TIP3   OH241509   2.008   6.586  12.531  0.0205 -0.3014 -0.2895
 6673TIP3    H141510   2.004   6.663  12.588  3.7862  0.9896 -1.4787
 6673TIP3    H241511   1.927   6.539  12.549 -0.5304  1.7250  3.6106
 6674TIP3   OH241512   4.010   5.701   3.173  0.2992 -0.4873 -0.0403
 6674TIP3    H141513   4.039   5.754   3.247 -1.6119  0.5341  0.0462
 6674TIP3    H241514   4.058   5.618   3.182  0.8155 -0.0332  1.7810
 6675TIP3   OH241515   4.145   3.993  13.429  0.0514 -0.1500  0.5721
 6675TIP3    H141516   4.094   4.052  13.483  1.3442  1.1442  0.4449
 6675TIP3    H241517   4.108   3.906  13.445 -1.9098  0.6751  0.7467
 6676TIP3   OH241518   2.698   5.629  17.026 -0.1980 -0.5673 -0.2183
 6676TIP3    H141519   2.766   5.596  16.966 -0.1073  0.8185 -0.9202
 6676TIP3    H241520   2.644   5.686  16.971 -0.4224  0.3394  0.9203
 6677TIP3   OH241521   1.639   1.201  15.930 -0.0316 -0.7066 -0.1724
 6677TIP3    H141522   1.604   1.120  15.895  0.5176 -1.7631  1.5938
 6677TIP3    H241523   1.575   1.228  15.995  0.4110 -0.4206  0.1525
 6678TIP3   OH241524   4.016   6.701  13.439 -0.6502  0.1745 -0.5915
 6678TIP3    H141525   3.934   6.745  13.464 -0.0324  2.4909 -2.2505
 6678TIP3    H241526   4.085   6.753  13.480  0.0592 -0.8309 -0.4715
 6679TIP3   OH241527   3.912   0.092  15.819  0.8193 -0.1553 -0.1539
 6679TIP3    H141528   3.899   0.047  15.736  1.6137  1.2753 -1.0998
 6679TIP3    H241529   3.937   0.181  15.794 -0.2832  0.7083  1.6336
 6680TIP3   OH241530   6.037   1.069  15.294 -0.0945 -0.3160  0.7425
 6680TIP3    H141531   5.959   1.028  15.255 -1.3660  1.7977  0.9265
 6680TIP3    H241532   6.034   1.043  15.386  0.4142 -1.6432  0.4102
 6681TIP3   OH241533   2.511   1.086   5.843 -0.2858 -0.2339  0.5098
 6681TIP3    H141534   2.509   1.178   5.872  0.6529  0.5817 -1.8172
 6681TIP3    H241535   2.482   1.037   5.920 -1.1150  2.0178  1.7410
 6682TIP3   OH241536   1.321   6.120  16.579 -0.1990 -0.5655 -0.3059
 6682TIP3    H141537   1.280   6.035  16.597  0.2409 -0.8425 -0.5988
 6682TIP3    H241538   1.274   6.181  16.637 -1.7520 -0.6724 -1.3814
 6683TIP3   OH241539   4.259   6.382   1.673  0.3204  0.5005  0.2890
 6683TIP3    H141540   4.302   6.382   1.759  1.0136  0.7413 -0.0502
 6683TIP3    H241541   4.331   6.374   1.611 -0.1294  1.0014 -0.2983
 6684TIP3   OH241542   6.588   6.361   2.567 -0.4598 -0.5605  0.3704
 6684TIP3    H141543   6.626   6.376   2.653  0.9374  1.6986 -0.5706
 6684TIP3    H241544   6.653   6.394   2.505 -1.8336 -1.2290 -1.5404
 6685TIP3   OH241545   5.042   2.756  15.834  0.3380  0.2492 -0.4858
 6685TIP3    H141546   5.121   2.807  15.851  0.4331  0.8031 -2.3406
 6685TIP3    H241547   4.995   2.806  15.767 -1.1223 -0.5457 -0.1012
 6686TIP3   OH241548   3.791   5.875   3.170  0.0409  0.5612 -0.4241
 6686TIP3    H141549   3.864   5.814   3.176 -0.6662 -0.2277  0.5761
 6686TIP3    H241550   3.830   5.961   3.183  0.9029  0.2411 -0.8103
 6687TIP3   OH241551   3.406   1.570   5.996 -0.0385 -0.0147 -0.0210
 6687TIP3    H141552   3.485   1.522   6.020 -1.8359 -2.9002  0.5330
 6687TIP3    H241553   3.349   1.562   6.072 -1.3107  1.0596 -0.8200
 6688TIP3   OH241554   1.944   1.535   4.657  0.2605  0.2102  0.0069
 6688TIP3    H141555   1.946   1.629   4.638  1.4636  0.0276 -0.9090
 6688TIP3    H241556   1.852   1.511   4.650  0.0853  1.0935 -1.0527
 6689TIP3   OH241557   1.128   5.086  14.881 -0.7063  0.9279 -0.2921
 6689TIP3    H141558   1.199   5.055  14.825 -1.1587 -1.3957  0.3271
 6689TIP3    H241559   1.065   5.125  14.821 -0.2424  0.3448 -1.1799
 6690TIP3   OH241560   3.655   0.198  11.339  0.5455  0.6856  0.0884
 6690TIP3    H141561   3.627   0.234  11.255 -1.7620  2.3176  1.4501
 6690TIP3    H241562   3.576   0.156  11.375  1.1539  1.0026  1.9146
 6691TIP3   OH241563   6.164   6.551  14.604  0.8491  0.1490  0.0659
 6691TIP3    H141564   6.199   6.565  14.692  2.2402 -0.0428 -0.4255
 6691TIP3    H241565   6.070   6.540  14.617  1.0507 -0.0642  1.5470
 6692TIP3   OH241566   3.887   6.246  13.625  0.1700  0.6266  0.2007
 6692TIP3    H141567   3.827   6.171  13.626 -0.3442  1.0301  1.2852
 6692TIP3    H241568   3.902   6.263  13.532 -0.4192 -0.2591 -0.0720
 6693TIP3   OH241569   2.290   6.766   3.836  0.2437 -0.3353  0.2748
 6693TIP3    H141570   2.265   6.841   3.781 -0.4563 -0.0758  0.9255
 6693TIP3    H241571   2.271   6.795   3.925 -2.6404 -2.2049  0.4190
 6694TIP3   OH241572   6.774   1.699   0.668  0.2444 -0.1069  0.6688
 6694TIP3    H141573   6.700   1.723   0.613  0.8727  2.5699  0.8536
 6694TIP3    H241574   6.752   1.733   0.755  0.5287 -1.7079  1.4070
 6695TIP3   OH241575   3.304   0.752   3.234  0.5982 -0.1805  0.0163
 6695TIP3    H141576   3.237   0.818   3.252  0.5503 -0.1540 -0.2546
 6695TIP3    H241577   3.365   0.758   3.307  0.0691 -0.4963  0.4891
 6696TIP3   OH241578   4.498   3.783  14.862  0.1357 -0.4092 -0.6616
 6696TIP3    H141579   4.506   3.875  14.887  0.1639 -0.7504  0.6598
 6696TIP3    H241580   4.411   3.776  14.822 -0.1135  0.0649 -0.2052
 6697TIP3   OH241581   2.029   2.594  12.805 -0.7850 -0.1334  0.3234
 6697TIP3    H141582   2.037   2.690  12.809 -1.6235 -0.0875  1.1808
 6697TIP3    H241583   2.010   2.568  12.895  3.4146 -1.5366  1.0342
 6698TIP3   OH241584   5.507   6.002   3.087  0.1517  0.3622  0.3563
 6698TIP3    H141585   5.450   6.025   3.160 -0.0792 -0.4660  0.4509
 6698TIP3    H241586   5.534   5.912   3.105  0.6131  0.3705 -0.2495
 6699TIP3   OH241587   4.160   2.000  14.498 -0.4780 -0.4652  0.4996
 6699TIP3    H141588   4.206   2.059  14.438 -0.6765 -1.2725 -0.4732
 6699TIP3    H241589   4.084   2.050  14.529 -0.3396 -0.0209  0.1179
 6700TIP3   OH241590   3.069   3.513  16.979  0.2830 -0.7170 -0.1445
 6700TIP3    H141591   3.047   3.520  17.072  0.7837  0.7564 -0.1064
 6700TIP3    H241592   3.160   3.483  16.977 -0.4511 -3.1060 -0.2353
 6701TIP3   OH241593   5.438   3.048   1.129  0.6211  0.4897  0.0108
 6701TIP3    H141594   5.480   2.975   1.084  2.0576  1.4250 -0.2487
 6701TIP3    H241595   5.507   3.084   1.185 -0.9047 -0.2108  2.5044
 6702TIP3   OH241596   5.026   0.632   5.327 -0.1580  0.3889  0.0216
 6702TIP3    H141597   4.975   0.597   5.255 -1.1860  1.0993  0.3672
 6702TIP3    H241598   4.963   0.642   5.398  0.9568 -0.9142  1.2600
 6703TIP3   OH241599   3.459   2.284   0.525  0.2714 -0.0833 -0.1923
 6703TIP3    H141600   3.391   2.352   0.525 -0.8545 -1.1270 -2.1279
 6703TIP3    H241601   3.412   2.203   0.506  1.8222 -1.1521  0.3292
 6704TIP3   OH241602   1.181   3.888  13.533  0.6755  0.3530 -0.5818
 6704TIP3    H141603   1.219   3.832  13.602 -2.7636 -0.7136  0.6672
 6704TIP3    H241604   1.192   3.837  13.453  1.3007 -0.1663 -0.1804
 6705TIP3   OH241605   6.179   6.450  10.932  0.4651  0.4381  0.4039
 6705TIP3    H141606   6.084   6.458  10.937  0.4052  0.5324 -0.6288
 6705TIP3    H241607   6.211   6.540  10.926  0.4299  0.3710 -1.6854
 6706TIP3   OH241608   0.426   2.462  11.307  0.2290  0.0612  0.3107
 6706TIP3    H141609   0.390   2.422  11.386  0.4242  1.0571  0.9170
 6706TIP3    H241610   0.521   2.447  11.314  0.2972  0.5906  0.5144
 6707TIP3   OH241611   1.182   3.481  13.792  0.0925  0.1205  0.1835
 6707TIP3    H141612   1.170   3.398  13.746  0.2130  0.8628 -1.2671
 6707TIP3    H241613   1.109   3.535  13.763  0.1049  0.5854  0.9825
 6708TIP3   OH241614   6.096   0.624  16.309 -0.4903  0.3143 -1.2588
 6708TIP3    H141615   6.141   0.650  16.229 -0.1981  0.7933 -0.9486
 6708TIP3    H241616   6.042   0.700  16.332 -0.0527  0.4430 -0.6365
 6709TIP3   OH241617   1.633   2.317   2.038  0.5240 -0.5295 -0.1962
 6709TIP3    H141618   1.718   2.304   2.080  1.0775 -1.2168 -1.4648
 6709TIP3    H241619   1.651   2.379   1.967 -0.2379  0.0538  0.1092
 6710TIP3   OH241620   4.206   6.297   2.428  0.0173 -0.0837 -0.5542
 6710TIP3    H141621   4.302   6.290   2.421 -0.0208  0.5546 -2.2108
 6710TIP3    H241622   4.184   6.369   2.370 -1.2659  1.4466  1.6786
 6711TIP3   OH241623   1.194   1.653   2.060  0.4460 -0.4910 -0.3131
 6711TIP3    H141624   1.276   1.606   2.072  0.3627 -0.5574  0.0133
 6711TIP3    H241625   1.139   1.623   2.133  1.1475  1.7925  1.2505
 6712TIP3   OH241626   3.346   4.018  11.199 -0.4974 -0.0281  0.7704
 6712TIP3    H141627   3.440   4.023  11.219 -0.6755  0.2192  1.5822
 6712TIP3    H241628   3.342   3.980  11.111  0.2828 -2.6497  1.7690
 6713TIP3   OH241629   0.661   3.176   0.093  0.3630  0.3179 -0.3670
 6713TIP3    H141630   0.740   3.211   0.052 -0.1549  0.1233 -1.5725
 6713TIP3    H241631   0.676   3.081   0.096  1.0350  0.4515  1.3119
 6714TIP3   OH241632   1.493   5.261  13.998 -0.0785  0.4207  0.0341
 6714TIP3    H141633   1.478   5.246  13.905 -0.5640  1.4591 -0.0655
 6714TIP3    H241634   1.422   5.214  14.042 -1.2028  1.7860 -0.2443
 6715TIP3   OH241635   6.359   2.926  14.043  0.0293 -0.7327  0.1117
 6715TIP3    H141636   6.442   2.891  14.075 -0.5310 -0.7326  1.6441
 6715TIP3    H241637   6.375   3.020  14.034  0.2861 -0.7791  0.0556
 6716TIP3   OH241638   0.643   0.237  11.175  0.5097 -0.0620 -0.0534
 6716TIP3    H141639   0.704   0.252  11.103 -0.5305  1.9154 -0.6000
 6716TIP3    H241640   0.574   0.303  11.163 -1.1001 -1.3994  1.2344
 6717TIP3   OH241641   5.916   4.172   2.719  0.1642 -0.2641  0.6615
 6717TIP3    H141642   5.905   4.251   2.667 -1.3540  1.0403  2.7972
 6717TIP3    H241643   6.007   4.146   2.704  1.3812  3.0763  1.4411
 6718TIP3   OH241644   1.859   0.794   5.682 -1.0808 -0.1653  0.2661
 6718TIP3    H141645   1.837   0.747   5.762 -2.0499 -0.6840 -0.2899
 6718TIP3    H241646   1.840   0.886   5.702  1.1415  0.0980  1.4657
 6719TIP3   OH241647   1.684   5.680   5.200  0.3877  0.2147 -0.1070
 6719TIP3    H141648   1.657   5.721   5.282 -0.7722  0.3631 -0.5506
 6719TIP3    H241649   1.646   5.592   5.203  0.9349 -0.0288 -0.1804
 6720TIP3   OH241650   4.308   6.225  15.720  0.1797  0.6533 -0.5243
 6720TIP3    H141651   4.234   6.239  15.661 -0.4459 -0.4351 -0.0233
 6720TIP3    H241652   4.322   6.310  15.762 -1.3777  0.6504  0.0481
 6721TIP3   OH241653   4.994   1.820   6.135  0.3987 -0.3822  0.1688
 6721TIP3    H141654   5.040   1.848   6.213 -1.6165  1.1235  0.9118
 6721TIP3    H241655   4.934   1.752   6.165  0.5930 -0.7853 -0.3427
 6722TIP3   OH241656   6.474   5.304   4.793  0.0522 -0.2005 -0.5652
 6722TIP3    H141657   6.498   5.389   4.757  0.7748  0.8869  2.2197
 6722TIP3    H241658   6.386   5.317   4.829  0.4414 -0.3994  0.4872
 6723TIP3   OH241659   3.720   3.711   1.655  0.3586 -0.2300 -0.0286
 6723TIP3    H141660   3.791   3.753   1.704  0.5585  0.4084 -0.8411
 6723TIP3    H241661   3.742   3.727   1.563 -1.9554  1.9286 -0.3237
 6724TIP3   OH241662   0.821   0.262   4.411  0.3294  0.0086 -0.7063
 6724TIP3    H141663   0.829   0.298   4.323 -0.8312  3.2213  0.3653
 6724TIP3    H241664   0.878   0.318   4.465 -1.1056 -0.0974  0.9886
 6725TIP3   OH241665   3.647   6.097  11.455 -0.1304 -0.3371 -0.7878
 6725TIP3    H141666   3.584   6.169  11.455 -0.0143 -0.2188  0.5546
 6725TIP3    H241667   3.630   6.050  11.373 -0.5443  0.9086 -1.4395
 6726TIP3   OH241668   4.895   0.203  16.016 -0.1759  0.2364  0.1793
 6726TIP3    H141669   4.947   0.136  16.059 -0.6383 -2.3676 -2.9139
 6726TIP3    H241670   4.917   0.195  15.923 -1.6851  3.1354 -0.5476
 6727TIP3   OH241671   6.174   0.377  14.579  0.4992  0.4188  0.0904
 6727TIP3    H141672   6.175   0.417  14.492 -0.4796  0.1910 -0.0356
 6727TIP3    H241673   6.095   0.324  14.580 -0.0225  1.1767  1.4711
 6728TIP3   OH241674   6.103   6.368  12.519  0.4372  0.1309  0.0579
 6728TIP3    H141675   6.101   6.309  12.443  0.2820  2.5613 -1.9567
 6728TIP3    H241676   6.029   6.341  12.572  0.8842 -2.0087 -0.3138
 6729TIP3   OH241677   3.208   6.127   4.318  0.0979 -0.2109  0.3668
 6729TIP3    H141678   3.165   6.170   4.245  2.3272 -1.3219 -1.7364
 6729TIP3    H241679   3.198   6.033   4.300  0.1354 -0.5258  1.8430
 6730TIP3   OH241680   0.148   3.549   6.313  0.1910 -0.0079 -0.1705
 6730TIP3    H141681   0.223   3.547   6.372 -0.1265 -1.7091  0.2147
 6730TIP3    H241682   0.149   3.464   6.269 -0.5801  0.5696 -1.3586
 6731TIP3   OH241683   4.651   2.698   2.151  0.3396  0.0380 -0.3346
 6731TIP3    H141684   4.626   2.683   2.060  1.1888 -0.6710 -0.4606
 6731TIP3    H241685   4.569   2.724   2.194 -0.0583  0.4315 -1.2999
 6732TIP3   OH241686   1.220   6.375  13.953  0.4022 -0.1722 -0.1910
 6732TIP3    H141687   1.198   6.406  13.865 -0.2489  2.0741  0.6849
 6732TIP3    H241688   1.251   6.453  13.999 -2.5923 -0.3872  2.5984
 6733TIP3   OH241689   1.281   4.282   2.663  0.0679  0.1133 -0.2808
 6733TIP3    H141690   1.326   4.304   2.581  1.2406 -0.2916  0.2295
 6733TIP3    H241691   1.349   4.240   2.717 -1.2129 -1.6602  0.0567
 6734TIP3   OH241692   1.370   5.663  14.184 -0.0790  0.2975  0.3342
 6734TIP3    H141693   1.305   5.595  14.201 -0.9818  1.1731  0.4771
 6734TIP3    H241694   1.339   5.707  14.105  1.5218 -0.6538 -0.8943
 6735TIP3   OH241695   1.579   4.987   2.174  0.3794  1.0286  0.4119
 6735TIP3    H141696   1.662   5.021   2.206 -0.1770  3.5765 -0.6069
 6735TIP3    H241697   1.576   5.012   2.082 -0.9447 -0.1931  0.0843
 6736TIP3   OH241698   0.111   0.587  16.345  0.6802 -0.0611  1.0730
 6736TIP3    H141699   0.039   0.577  16.407  0.9698  0.7435  1.5598
 6736TIP3    H241700   0.136   0.680  16.352 -1.2405  0.9073 -2.4223
 6737TIP3   OH241701   0.321   4.296   4.821 -0.6170 -0.2054 -0.2626
 6737TIP3    H141702   0.307   4.390   4.806 -1.6196 -0.6040 -2.1675
 6737TIP3    H241703   0.304   4.284   4.914 -4.3988  0.9247 -0.6402
 6738TIP3   OH241704   3.251   2.437  14.577  0.0893  0.4087  0.0050
 6738TIP3    H141705   3.185   2.384  14.532  0.1348  0.0058  0.4008
 6738TIP3    H241706   3.327   2.433  14.520  1.1435 -2.4882  1.3630
 6739TIP3   OH241707   6.585   1.197   2.728 -0.5431  0.0110  0.4668
 6739TIP3    H141708   6.517   1.153   2.678 -0.6853 -1.4470  1.8771
 6739TIP3    H241709   6.648   1.225   2.662 -0.9432 -1.4507 -0.5932
 6740TIP3   OH241710   6.212   4.340   0.439  0.2364  0.2325 -0.1223
 6740TIP3    H141711   6.136   4.348   0.382 -0.6207  1.8340  1.1406
 6740TIP3    H241712   6.269   4.413   0.413  0.9113 -0.4142 -0.4604
 6741TIP3   OH241713   4.164   6.176   1.432  0.6379  0.4553 -0.0148
 6741TIP3    H141714   4.256   6.168   1.406  0.4586 -0.6135 -0.3501
 6741TIP3    H241715   4.153   6.111   1.501  0.2667  0.9791  0.4286
 6742TIP3   OH241716   4.417   5.943   1.904 -0.1614 -0.2623  0.2781
 6742TIP3    H141717   4.442   5.978   1.989  1.4701  1.8909 -0.9623
 6742TIP3    H241718   4.364   6.013   1.864 -0.7408 -1.1472 -0.5578
 6743TIP3   OH241719   0.821   2.830   2.143 -0.9956  0.6081  0.3153
 6743TIP3    H141720   0.852   2.743   2.121  0.8799  0.9821  1.2864
 6743TIP3    H241721   0.779   2.819   2.229 -0.4987  0.6843  0.5758
 6744TIP3   OH241722   5.795   5.647  10.601  0.4260 -0.5252 -0.1601
 6744TIP3    H141723   5.796   5.734  10.641 -0.4312  0.0437 -1.2971
 6744TIP3    H241724   5.736   5.596  10.655 -1.0154  0.3395 -0.8412
 6745TIP3   OH241725   6.726   3.622   3.592 -0.4444  0.2204 -0.1759
 6745TIP3    H141726   6.791   3.679   3.551 -1.6781  1.2018 -0.8589
 6745TIP3    H241727   6.650   3.627   3.534 -0.6028 -2.1990 -0.2875
 6746TIP3   OH241728   2.473   4.127   2.879 -0.0234 -1.1678 -0.1719
 6746TIP3    H141729   2.413   4.184   2.830  0.3592  0.4425  1.1321
 6746TIP3    H241730   2.445   4.135   2.970  1.5999 -1.0586  0.3609
 6747TIP3   OH241731   1.190   4.981  13.068 -0.1403 -0.2259 -0.6809
 6747TIP3    H141732   1.193   4.990  12.973 -0.2992  1.7291 -0.5334
 6747TIP3    H241733   1.237   4.900  13.086 -1.7258 -1.6604 -2.5368
 6748TIP3   OH241734   2.919   0.619  15.281  0.7226 -0.7928  0.4060
 6748TIP3    H141735   2.914   0.533  15.238  2.3289 -0.4778 -0.4719
 6748TIP3    H241736   2.836   0.626  15.329 -0.7089 -1.6044 -1.7912
 6749TIP3   OH241737   4.454   5.324  14.785  0.3559 -0.1072 -0.4268
 6749TIP3    H141738   4.367   5.309  14.822  0.1073  0.7929 -0.6195
 6749TIP3    H241739   4.477   5.413  14.811  1.8305 -0.7884  0.8000
 6750TIP3   OH241740   5.850   5.039  14.837  0.1630  0.6332 -0.3270
 6750TIP3    H141741   5.776   5.008  14.786  0.7901 -0.7689 -0.4150
 6750TIP3    H241742   5.879   5.118  14.792  0.2169 -0.1523 -1.7014
 6751TIP3   OH241743   2.543   4.227  14.694 -0.5362  0.0833 -0.5589
 6751TIP3    H141744   2.605   4.247  14.764  0.2323 -2.1807 -0.5287
 6751TIP3    H241745   2.596   4.217  14.615 -1.0957  0.0368 -0.9429
 6752TIP3   OH241746   6.346   4.716  12.966  0.2034  0.1159  0.0824
 6752TIP3    H141747   6.420   4.655  12.959  0.5092  0.3020  1.4189
 6752TIP3    H241748   6.338   4.754  12.879 -0.4194 -2.3017 -1.0218
 6753TIP3   OH241749   0.183   6.562  14.208 -0.1925  0.1841  0.3685
 6753TIP3    H141750   0.192   6.470  14.235 -0.4032  0.2893  0.8052
 6753TIP3    H241751   0.156   6.558  14.116 -0.7504 -0.2015  0.5474
 6754TIP3   OH241752   0.919   0.779  16.200  0.2988  0.3689 -0.1178
 6754TIP3    H141753   0.877   0.693  16.206  1.3153 -0.3190 -2.1207
 6754TIP3    H241754   0.973   0.784  16.279  0.4245 -0.9396 -0.1026
 6755TIP3   OH241755   6.019   2.823  10.466 -0.4026 -0.1409 -0.0079
 6755TIP3    H141756   5.959   2.776  10.525 -0.0870 -0.7829 -0.1864
 6755TIP3    H241757   5.963   2.887  10.422 -0.9200 -0.5617  0.0141
 6756TIP3   OH241758   5.715   2.775   2.959 -0.0413  0.6656 -0.0437
 6756TIP3    H141759   5.799   2.731   2.973 -0.5547 -0.5763 -0.6910
 6756TIP3    H241760   5.710   2.788   2.865  0.3935  2.8063  0.1728
 6757TIP3   OH241761   0.829   2.936  16.359 -0.1700  0.2093 -0.3864
 6757TIP3    H141762   0.886   2.867  16.393 -0.5434 -0.6225 -1.4114
 6757TIP3    H241763   0.772   2.892  16.297  0.3300  1.6317 -1.9296
 6758TIP3   OH241764   2.747   0.181  16.677 -0.5942  0.7831 -0.3482
 6758TIP3    H141765   2.654   0.165  16.690 -0.8524  0.3283 -2.3901
 6758TIP3    H241766   2.764   0.153  16.587  1.7644 -0.2486  0.3428
 6759TIP3   OH241767   2.540   0.895  11.975  0.3353  0.4161  0.4674
 6759TIP3    H141768   2.516   0.838  12.048 -0.8178 -0.6004 -0.6591
 6759TIP3    H241769   2.549   0.836  11.900 -0.8960  1.6831 -0.7426
 6760TIP3   OH241770   0.087   0.010  13.707 -0.2916 -0.3472 -0.1736
 6760TIP3    H141771   0.014   0.061  13.743  0.7841  1.9416 -1.0777
 6760TIP3    H241772   0.146  -0.003  13.782 -1.2227 -1.5552  0.3843
 6761TIP3   OH241773   2.118   0.600   5.680  0.0255  0.4125  0.0565
 6761TIP3    H141774   2.172   0.528   5.648  0.4238  0.5051  0.5187
 6761TIP3    H241775   2.035   0.560   5.703  0.6495 -0.1198  1.4778
 6762TIP3   OH241776   3.729   3.865   0.394 -0.1700  0.2926  0.5363
 6762TIP3    H141777   3.697   3.830   0.311 -0.4799 -0.7007  1.0510
 6762TIP3    H241778   3.652   3.908   0.432 -0.5991 -0.9729  1.1834
 6763TIP3   OH241779   0.742   6.061   5.872  0.2350  0.0261 -0.0601
 6763TIP3    H141780   0.719   6.049   5.964  2.3618 -0.2683  0.4756
 6763TIP3    H241781   0.836   6.046   5.868 -0.1457 -2.5781 -2.7531
 6764TIP3   OH241782   1.343   5.438   0.568 -0.9178  0.2498  0.0388
 6764TIP3    H141783   1.312   5.432   0.478 -1.4575  0.0746  0.2358
 6764TIP3    H241784   1.269   5.473   0.617 -0.2445  1.4532  0.2174
 6765TIP3   OH241785   0.210   1.725  16.384 -0.0365  0.0136 -0.7492
 6765TIP3    H141786   0.160   1.780  16.444  0.5497  1.0237 -1.1573
 6765TIP3    H241787   0.268   1.786  16.338  1.2490 -1.0516 -0.6080
 6766TIP3   OH241788   5.214   0.456  14.994 -0.0850 -0.4540 -0.4734
 6766TIP3    H141789   5.224   0.538  14.946  0.1194 -0.5675 -0.6209
 6766TIP3    H241790   5.132   0.419  14.962 -0.8804  0.3425  0.5485
 6767TIP3   OH241791   5.680   0.758  14.980 -0.0062 -0.2734  0.3986
 6767TIP3    H141792   5.730   0.757  14.899 -0.9727  0.5177 -0.2351
 6767TIP3    H241793   5.662   0.666  14.999  0.8482 -0.5038  0.1100
 6768TIP3   OH241794   4.838   1.275  15.860  0.5021  0.0703 -0.2712
 6768TIP3    H141795   4.801   1.362  15.847 -0.1961 -0.1779  0.0165
 6768TIP3    H241796   4.795   1.220  15.794  0.0170 -0.3210  0.3687
 6769TIP3   OH241797   5.149   5.548   3.532  0.2837  0.3163 -0.0783
 6769TIP3    H141798   5.152   5.511   3.444 -0.2639 -1.3562  0.5783
 6769TIP3    H241799   5.058   5.538   3.560  0.2758  1.5370  0.4020
 6770TIP3   OH241800   2.136   6.362  11.174 -0.2601 -0.4403 -0.0947
 6770TIP3    H141801   2.104   6.273  11.188  0.6844 -0.7537  0.1200
 6770TIP3    H241802   2.227   6.360  11.201 -0.2231  0.6014 -0.0786
 6771TIP3   OH241803   5.040   0.112  16.321  0.9518 -0.5079 -0.3451
 6771TIP3    H141804   4.973   0.179  16.331  0.2987 -1.3573  1.3272
 6771TIP3    H241805   5.116   0.158  16.283  0.2455  0.9617 -0.0155
 6772TIP3   OH241806   4.832   5.397  15.575  0.0329  0.2692 -0.3646
 6772TIP3    H141807   4.799   5.484  15.596 -1.2225 -0.2327 -0.1761
 6772TIP3    H241808   4.876   5.408  15.491  2.2245  1.6157  0.8733
 6773TIP3   OH241809   2.045   1.974   2.832 -0.1271  0.2129  0.2981
 6773TIP3    H141810   1.963   2.015   2.803 -0.1448  0.1211  0.2158
 6773TIP3    H241811   2.042   1.979   2.927 -0.0998  0.4603  0.2858
 6774TIP3   OH241812   4.257   0.305   4.106 -0.3024  0.0574 -0.7219
 6774TIP3    H141813   4.300   0.288   4.190 -1.7235  1.8395  0.4379
 6774TIP3    H241814   4.169   0.270   4.117 -0.5167  0.3512 -1.4706
 6775TIP3   OH241815   4.856   5.053  11.297 -0.0168 -0.7912  0.1065
 6775TIP3    H141816   4.934   5.026  11.346 -1.0426 -2.9223  0.6749
 6775TIP3    H241817   4.786   5.054  11.361 -1.0561 -1.9367 -0.9641
 6776TIP3   OH241818   5.404   5.059   0.247 -0.2203  0.5605  0.1129
 6776TIP3    H141819   5.397   4.969   0.279 -0.2387  0.5689  0.1319
 6776TIP3    H241820   5.334   5.067   0.183 -1.5236  1.1853  1.5581
 6777TIP3   OH241821   2.809   4.667  11.216 -0.4565 -0.0885 -0.3697
 6777TIP3    H141822   2.897   4.633  11.228 -0.4063  0.2906  0.3893
 6777TIP3    H241823   2.771   4.613  11.146  1.0216  0.9808 -2.0852
 6778TIP3   OH241824   4.365   4.314   3.811 -0.1902 -0.1473 -0.5392
 6778TIP3    H141825   4.403   4.239   3.856  0.5992  0.2237 -0.5640
 6778TIP3    H241826   4.361   4.288   3.719  0.1681 -0.1288 -0.5609
 6779TIP3   OH241827   4.543   4.834   1.888 -0.1277  0.0924  0.0060
 6779TIP3    H141828   4.541   4.849   1.982 -0.2345  1.0691 -0.1476
 6779TIP3    H241829   4.453   4.810   1.866 -0.1895  0.2598  0.0822
 6780TIP3   OH241830   5.426   5.180   1.729 -0.1405 -0.3123 -0.3695
 6780TIP3    H141831   5.404   5.204   1.819 -0.4226  0.1069 -0.5456
 6780TIP3    H241832   5.367   5.233   1.675  1.6489  1.2268 -0.8834
 6781TIP3   OH241833   4.954   4.591   6.046 -0.1409 -0.5757 -0.7574
 6781TIP3    H141834   5.028   4.578   6.106 -1.1259  1.0397  0.9463
 6781TIP3    H241835   4.994   4.610   5.962  1.3983  0.3591  0.1381
 6782TIP3   OH241836   0.719   0.699   6.679 -0.2813 -0.4990 -0.9176
 6782TIP3    H141837   0.723   0.603   6.676  1.5095 -0.4609 -0.9685
 6782TIP3    H241838   0.747   0.726   6.591  0.4889  0.0880 -0.4932
 6783TIP3   OH241839   1.703   4.356  13.468 -0.0846  0.3183  0.0922
 6783TIP3    H141840   1.750   4.419  13.412  1.6163  0.2886  1.4075
 6783TIP3    H241841   1.768   4.329  13.533 -1.8976  0.1322  1.9142
 6784TIP3   OH241842   4.034   3.377   5.546  0.2789 -0.0861  0.6785
 6784TIP3    H141843   4.104   3.312   5.550  0.2756 -0.2316 -1.0971
 6784TIP3    H241844   3.962   3.333   5.501  0.8120  1.5571 -1.9668
 6785TIP3   OH241845   4.077   1.973  15.233  0.0280  0.1532  0.1161
 6785TIP3    H141846   4.077   2.030  15.157 -2.1111 -0.3184 -0.2945
 6785TIP3    H241847   4.104   1.887  15.199 -2.0134 -0.3299 -0.3978
 6786TIP3   OH241848   1.212   1.393  15.392 -0.3262  0.6602 -0.1538
 6786TIP3    H141849   1.195   1.332  15.320 -1.4878 -0.9620  1.4084
 6786TIP3    H241850   1.300   1.425  15.375  0.4478 -1.6502 -0.9419
 6787TIP3   OH241851   3.427   6.153  12.952 -0.8609  0.0421  0.4556
 6787TIP3    H141852   3.395   6.068  12.924 -0.1769  0.5615 -2.1591
 6787TIP3    H241853   3.470   6.136  13.036  1.9449 -2.8807 -1.3320
 6788TIP3   OH241854   4.306   0.532   3.982 -0.1101 -0.0634  0.1612
 6788TIP3    H141855   4.401   0.527   3.974 -0.2354 -0.5825 -1.5579
 6788TIP3    H241856   4.283   0.461   4.042  0.5900  0.0733  0.5961
 6789TIP3   OH241857   2.733   3.021   3.185  0.0147 -0.5579 -0.0716
 6789TIP3    H141858   2.742   3.037   3.091 -1.8623  0.0690 -0.1830
 6789TIP3    H241859   2.812   2.973   3.209  0.2642 -1.2406 -2.0882
 6790TIP3   OH241860   0.315   4.623  15.333 -0.3592 -0.0819  0.2844
 6790TIP3    H141861   0.273   4.568  15.267 -0.2853 -0.7655  0.8001
 6790TIP3    H241862   0.397   4.579  15.353  0.0741  0.6361  0.1331
 6791TIP3   OH241863   4.840   0.360  13.029  0.4146  0.4930  0.2486
 6791TIP3    H141864   4.802   0.429  12.975 -2.0415 -2.5403 -2.3634
 6791TIP3    H241865   4.776   0.344  13.098 -0.0959 -0.4982 -0.4286
 6792TIP3   OH241866   1.296   5.208   3.995 -0.0331 -0.1460  0.4107
 6792TIP3    H141867   1.315   5.116   4.011  0.1162 -0.8164 -2.8215
 6792TIP3    H241868   1.380   5.245   3.967 -0.6248  0.1983 -1.0335
 6793TIP3   OH241869   2.051   4.888  14.948  0.3721  0.4196 -0.2502
 6793TIP3    H141870   2.032   4.951  14.878  0.6972  1.7072  0.7840
 6793TIP3    H241871   2.034   4.936  15.029 -0.2332 -1.1232  0.5770
 6794TIP3   OH241872   4.508   5.034  12.151 -0.1777 -0.4669 -0.1405
 6794TIP3    H141873   4.532   4.960  12.095  0.0748  0.4302 -1.2465
 6794TIP3    H241874   4.569   5.029  12.225  0.5251 -0.7759 -0.7258
 6795TIP3   OH241875   2.091   1.530  16.881  0.5421 -0.9920  0.0120
 6795TIP3    H141876   2.031   1.478  16.934  0.8909  0.1631  1.6364
 6795TIP3    H241877   2.169   1.475  16.873  2.0656  0.1453  4.1797
 6796TIP3   OH241878   2.641   2.435   0.287 -0.4816  0.5906  0.0320
 6796TIP3    H141879   2.554   2.475   0.283 -0.4959  0.4968 -2.4419
 6796TIP3    H241880   2.699   2.500   0.245  0.1612 -0.3846 -0.6266
 6797TIP3   OH241881   6.386   6.319   2.853  0.2008  0.9145  0.6217
 6797TIP3    H141882   6.370   6.260   2.926 -1.1139  0.2428 -0.1648
 6797TIP3    H241883   6.440   6.269   2.792  1.5789  1.5882  1.2394
 6798TIP3   OH241884   6.651   1.976   5.497  0.3953  0.3637  0.0443
 6798TIP3    H141885   6.606   2.060   5.509 -1.0160 -0.2639 -0.7507
 6798TIP3    H241886   6.585   1.917   5.462  0.9856 -1.5004  1.8808
 6799TIP3   OH241887   5.784   0.371   0.986 -0.3863 -0.5461  0.1736
 6799TIP3    H141888   5.831   0.311   1.044  1.5338  1.4011  0.7468
 6799TIP3    H241889   5.843   0.386   0.913 -0.9139  0.4778 -0.0633
 6800TIP3   OH241890   3.343   2.914   3.423  0.3457  0.2257  0.0921
 6800TIP3    H141891   3.270   2.929   3.484 -0.1683 -0.4787 -0.3283
 6800TIP3    H241892   3.332   2.981   3.356  0.9767  1.0725  0.8178
 6801TIP3   OH241893   5.586   4.926   1.896 -0.1657 -0.1154  0.0132
 6801TIP3    H141894   5.647   4.854   1.907 -0.7463 -0.8543 -1.4035
 6801TIP3    H241895   5.531   4.924   1.975  1.2814  0.2560  1.0647
 6802TIP3   OH241896   2.307   2.481  14.956 -0.5180 -0.1483 -0.1978
 6802TIP3    H141897   2.247   2.409  14.974  0.3893 -1.3186 -1.5786
 6802TIP3    H241898   2.361   2.449  14.883  0.6522  1.5028 -0.1097
 6803TIP3   OH241899   6.262   1.104   3.625  0.1015  0.3983  0.2648
 6803TIP3    H141900   6.281   1.010   3.618  1.8562  0.8121 -1.9004
 6803TIP3    H241901   6.299   1.129   3.709  2.1440 -0.4096 -0.3158
 6804TIP3   OH241902   3.312   5.052   4.381  0.4884  0.6495 -0.4260
 6804TIP3    H141903   3.306   5.016   4.470 -1.3417  0.2185 -0.6985
 6804TIP3    H241904   3.396   5.018   4.348 -0.7015 -2.7662 -0.3479
 6805TIP3   OH241905   4.384   0.867  17.017  0.6170  0.5463  0.0278
 6805TIP3    H141906   4.443   0.942  17.004  0.1078  1.0844  0.7176
 6805TIP3    H241907   4.296   0.904  17.009  0.3582 -0.1262 -0.3422
 6806TIP3   OH241908   0.809   1.586  15.508 -0.2458  0.3719 -0.3040
 6806TIP3    H141909   0.756   1.665  15.513 -1.3356 -0.4045  0.7655
 6806TIP3    H241910   0.800   1.545  15.594 -0.2263 -1.2434 -1.0400
 6807TIP3   OH241911   1.280   0.449   3.081 -0.1371 -0.2402  0.1852
 6807TIP3    H141912   1.327   0.462   3.163  0.7370  1.9092 -0.6165
 6807TIP3    H241913   1.326   0.376   3.039  0.8508  0.1553  0.5571
 6808TIP3   OH241914   1.640   1.654   2.545  0.1140 -0.3094  0.5805
 6808TIP3    H141915   1.721   1.704   2.543  0.6891 -1.1808 -2.1766
 6808TIP3    H241916   1.667   1.565   2.571  0.1165 -0.6534 -0.5507
 6809TIP3   OH241917   2.154   5.794   4.342  0.0736  0.0228  0.0899
 6809TIP3    H141918   2.102   5.739   4.283  1.0110 -2.5583  1.5328
 6809TIP3    H241919   2.193   5.860   4.285  0.8092 -2.2290 -2.1914
 6810TIP3   OH241920   4.611   2.250   1.501  0.0190  0.4330  0.2553
 6810TIP3    H141921   4.612   2.154   1.503  0.2761  0.4130 -0.4100
 6810TIP3    H241922   4.540   2.272   1.441  0.6386  0.6285 -0.4242
 6811TIP3   OH241923   5.954   4.337   1.386  0.2541  0.3516 -0.0045
 6811TIP3    H141924   5.995   4.361   1.469 -0.0951 -0.6564  0.4654
 6811TIP3    H241925   5.862   4.322   1.407  0.0183  0.7380 -0.7058
 6812TIP3   OH241926   3.929   2.692   2.239 -0.0593  0.4172 -0.5779
 6812TIP3    H141927   3.940   2.630   2.168 -0.8562 -0.3489 -0.0581
 6812TIP3    H241928   4.004   2.751   2.232  0.2962 -0.1333 -1.5512
 6813TIP3   OH241929   3.937   6.016  14.885  0.4389 -0.1752  0.0468
 6813TIP3    H141930   4.024   6.023  14.925  0.2334 -0.1858  0.5048
 6813TIP3    H241931   3.944   5.943  14.824  1.1994  0.8111 -1.0954
 6814TIP3   OH241932   0.412   2.020  11.558  0.2415 -0.1267  0.4857
 6814TIP3    H141933   0.377   1.932  11.571  1.1724 -0.2415  2.5738
 6814TIP3    H241934   0.490   2.007  11.504  1.1209 -0.8025  1.8489
 6815TIP3   OH241935   3.226   5.830  15.404  0.4251  0.1391  0.1442
 6815TIP3    H141936   3.255   5.922  15.405 -1.0850  0.7271 -2.4234
 6815TIP3    H241937   3.134   5.833  15.429  0.2896 -0.6589 -0.2233
 6816TIP3   OH241938   1.323   5.814  11.934 -0.4258  0.0870  0.1015
 6816TIP3    H141939   1.290   5.807  12.023 -0.4950  1.1949  0.1853
 6816TIP3    H241940   1.304   5.905  11.909  2.2393  0.6944  0.0203
 6817TIP3   OH241941   0.759   3.459   1.890  0.4902  0.3252  0.1475
 6817TIP3    H141942   0.695   3.415   1.946  0.1401  0.4135 -0.1817
 6817TIP3    H241943   0.775   3.397   1.819  0.8105  0.2823  0.2558
 6818TIP3   OH241944   5.246   3.512  12.094  0.1237  0.0084 -0.1333
 6818TIP3    H141945   5.195   3.539  12.018 -2.0268  0.1892  1.2732
 6818TIP3    H241946   5.311   3.581  12.106  1.0016 -0.4053 -2.1925
 6819TIP3   OH241947   2.101   6.147   5.332 -0.0700 -0.4298 -0.0564
 6819TIP3    H141948   2.058   6.112   5.410 -2.9187  0.8913 -0.8953
 6819TIP3    H241949   2.065   6.095   5.260  0.9022 -0.2425 -0.6980
 6820TIP3   OH241950   4.099   3.124  14.065  0.0069 -0.4931  0.2720
 6820TIP3    H141951   4.186   3.116  14.027  0.0254 -0.3579  0.2846
 6820TIP3    H241952   4.114   3.159  14.153  0.1090 -2.5771  1.1354
 6821TIP3   OH241953   5.510   0.959   4.724  0.2370 -0.0347 -0.7314
 6821TIP3    H141954   5.541   0.937   4.812 -0.3520  3.6296  0.5461
 6821TIP3    H241955   5.590   0.974   4.674  0.6143  0.8361  0.0925
 6822TIP3   OH241956   2.707   6.168  10.439 -0.3362 -0.1473  0.3526
 6822TIP3    H141957   2.800   6.170  10.419 -0.4942  3.3462 -0.7867
 6822TIP3    H241958   2.693   6.246  10.494 -2.8546  0.6838 -1.2777
 6823TIP3   OH241959   1.106   5.304   4.177  0.2476 -0.2581  0.3824
 6823TIP3    H141960   1.169   5.262   4.117  0.6295 -1.2797  1.4630
 6823TIP3    H241961   1.155   5.315   4.258 -0.7668 -0.4451  1.0321
 6824TIP3   OH241962   3.204   3.954   4.698  0.2578 -0.5946 -0.0321
 6824TIP3    H141963   3.273   4.017   4.679 -0.1657  0.0158  0.3887
 6824TIP3    H241964   3.181   3.971   4.790 -0.1480 -1.0803 -0.0380
 6825TIP3   OH241965   4.700   6.116   2.153  0.4191  0.3279  0.1463
 6825TIP3    H141966   4.713   6.193   2.209 -1.9437  0.6121  0.4180
 6825TIP3    H241967   4.679   6.045   2.213 -0.5401  0.2467 -0.2686
 6826TIP3   OH241968   1.948   5.184   1.776  0.4231  0.1709 -0.5663
 6826TIP3    H141969   2.044   5.184   1.776  0.4915 -2.0680 -2.3930
 6826TIP3    H241970   1.924   5.181   1.684 -1.4859  1.5581 -0.1721
 6827TIP3   OH241971   4.322   1.510   0.074 -0.5652  0.7989  0.0782
 6827TIP3    H141972   4.372   1.460   0.008 -1.3318  0.4677 -0.2613
 6827TIP3    H241973   4.381   1.580   0.100  0.5213 -0.2394  0.5204
 6828TIP3   OH241974   0.187   0.421  12.522 -0.1392 -0.1117 -0.3953
 6828TIP3    H141975   0.280   0.421  12.502 -0.1795 -1.4589 -0.6779
 6828TIP3    H241976   0.154   0.501  12.481  1.2080  1.4744  1.4541
 6829TIP3   OH241977   2.246   1.702   0.173  0.1118  0.4251 -0.2639
 6829TIP3    H141978   2.263   1.788   0.133  2.1671 -0.0032 -0.4236
 6829TIP3    H241979   2.199   1.654   0.105 -0.4933  1.2204 -0.4184
 6830TIP3   OH241980   0.583   2.018   3.428 -0.4250  0.0087  0.3368
 6830TIP3    H141981   0.643   2.087   3.455 -0.2093  0.5071 -1.3448
 6830TIP3    H241982   0.501   2.063   3.408 -0.5766 -0.3526  0.1332
 6831TIP3   OH241983   1.276   4.360   3.554  0.1109 -0.5312  0.3215
 6831TIP3    H141984   1.260   4.386   3.645 -1.7590 -0.8650  0.1340
 6831TIP3    H241985   1.189   4.337   3.520  1.0163 -2.2222 -0.9971
 6832TIP3   OH241986   2.950   2.604  13.123  0.2239 -0.2433 -0.0629
 6832TIP3    H141987   2.888   2.538  13.091 -0.4586 -0.8200  2.2472
 6832TIP3    H241988   2.897   2.660  13.180  1.6088 -0.1640  1.1988
 6833TIP3   OH241989   1.026   6.223   3.033 -0.2426  0.8460 -0.8356
 6833TIP3    H141990   1.074   6.287   2.982  0.7456  0.2353 -0.6933
 6833TIP3    H241991   1.089   6.190   3.097  0.0959 -2.0866 -2.4761
 6834TIP3   OH241992   6.655   0.021  16.436  0.1920  0.3277  0.4327
 6834TIP3    H141993   6.701   0.024  16.352 -0.4591 -1.5744 -0.0359
 6834TIP3    H241994   6.571   0.064  16.419  1.2840  2.8968  1.0306
 6835TIP3   OH241995   3.265   3.423   4.147  0.0566  0.1119 -0.6166
 6835TIP3    H141996   3.268   3.494   4.083  1.2707  1.9520  1.3581
 6835TIP3    H241997   3.178   3.429   4.186 -0.4179 -0.5429 -1.5434
 6836TIP3   OH241998   3.751   2.312   1.496 -0.1661 -0.1975 -0.7543
 6836TIP3    H141999   3.720   2.222   1.503  0.0116 -0.1818  0.5575
 6836TIP3    H242000   3.728   2.339   1.408  1.6399 -2.2039 -1.9231
 6837TIP3   OH242001   2.281   2.122  15.776  0.3670  0.0434  0.3066
 6837TIP3    H142002   2.211   2.058  15.790  1.3004 -0.9531  0.5679
 6837TIP3    H242003   2.241   2.206  15.798 -0.2374 -0.6952  2.1928
 6838TIP3   OH242004   5.974   0.373  12.794 -0.2451  0.6935  0.4279
 6838TIP3    H142005   5.946   0.334  12.711 -0.7209  0.5150  0.6713
 6838TIP3    H242006   5.935   0.461  12.793 -0.3165  0.6621  0.5017
 6839TIP3   OH242007   3.291   3.338  16.932 -0.5819 -0.6553 -0.0505
 6839TIP3    H142008   3.349   3.274  16.973  0.2642  0.9340  1.3499
 6839TIP3    H242009   3.252   3.291  16.858 -0.1389 -2.8204  1.0083
 6840TIP3   OH242010   2.333   2.663   5.570 -0.4135 -0.2760 -0.1833
 6840TIP3    H142011   2.365   2.683   5.482  1.6126  0.3736  0.6507
 6840TIP3    H242012   2.255   2.718   5.580  0.2585  0.8571 -0.9997
 6841TIP3   OH242013   4.046   3.858   6.171  0.0205 -0.3147 -0.1346
 6841TIP3    H142014   4.060   3.952   6.169 -0.4930 -0.2419 -1.0713
 6841TIP3    H242015   3.955   3.847   6.198 -0.1435 -0.5001 -0.7306
 6842TIP3   OH242016   4.762   1.598   3.284  0.0787  0.5555  0.2062
 6842TIP3    H142017   4.839   1.596   3.340  0.3855 -0.3611 -0.2283
 6842TIP3    H242018   4.688   1.597   3.345  0.4067 -0.5708  0.6090
 6843TIP3   OH242019   2.806   1.934   1.247 -0.1246  0.2352 -0.0285
 6843TIP3    H142020   2.779   2.009   1.193 -1.9649 -0.5255 -0.2557
 6843TIP3    H242021   2.882   1.898   1.202 -1.1037  0.1310 -1.6961
 6844TIP3   OH242022   2.345   6.377  10.957 -0.5119  0.5996 -0.5841
 6844TIP3    H142023   2.272   6.431  10.990 -2.1658 -1.1589 -1.1801
 6844TIP3    H242024   2.421   6.408  11.006 -1.8841  1.6770  1.0004
 6845TIP3   OH242025   1.005   6.667   1.891 -0.4585 -0.0742 -0.3812
 6845TIP3    H142026   1.014   6.745   1.837 -1.6348 -1.1963 -2.2989
 6845TIP3    H242027   0.917   6.635   1.874 -0.4360 -1.1807  1.2845
 6846TIP3   OH242028   5.937   1.267  13.317 -0.6559  0.3075 -0.5449
 6846TIP3    H142029   6.019   1.308  13.290 -0.3383 -0.7501 -1.2299
 6846TIP3    H242030   5.889   1.252  13.235 -0.0447 -2.1812 -0.5172
 6847TIP3   OH242031   4.303   1.982  13.901 -0.2401 -0.3420  0.1378
 6847TIP3    H142032   4.284   2.076  13.905 -0.0194 -0.3367  2.9000
 6847TIP3    H242033   4.266   1.947  13.981 -0.4046 -2.6734 -0.8963
 6848TIP3   OH242034   2.168   0.287  12.955  0.1356  0.2064  0.3960
 6848TIP3    H142035   2.229   0.336  12.899  0.1264 -0.9856 -0.6840
 6848TIP3    H242036   2.136   0.353  13.018  1.3220  1.2119 -0.0094
 6849TIP3   OH242037   3.111   4.199   3.443 -0.0632 -0.3665  0.3483
 6849TIP3    H142038   3.052   4.134   3.406  0.0525  0.4099 -1.3071
 6849TIP3    H242039   3.195   4.183   3.400  0.7285 -0.8681  1.9926
 6850TIP3   OH242040   4.868   3.874   2.726  0.4762  0.1080  0.1393
 6850TIP3    H142041   4.905   3.801   2.677  0.7776  0.6828 -0.5081
 6850TIP3    H242042   4.785   3.841   2.761  0.1990 -0.2773 -0.8618
 6851TIP3   OH242043   3.613   1.688   2.632 -0.1015 -0.3959 -0.0856
 6851TIP3    H142044   3.539   1.680   2.573  0.0270 -1.7715 -0.0913
 6851TIP3    H242045   3.576   1.678   2.720  0.0630 -1.0755 -0.0877
 6852TIP3   OH242046   3.860   2.815  15.750 -0.0132 -0.8635 -0.5297
 6852TIP3    H142047   3.836   2.730  15.714  0.0504 -1.0796 -0.0785
 6852TIP3    H242048   3.956   2.811  15.759 -0.2345 -2.0888  2.6524
 6853TIP3   OH242049   5.856   3.551   0.319  0.6801 -0.0712  0.6804
 6853TIP3    H142050   5.898   3.474   0.279  0.3448 -0.1127  0.3999
 6853TIP3    H242051   5.897   3.626   0.276 -0.9975 -0.1386 -1.1353
 6854TIP3   OH242052   3.846   5.624   1.059 -0.2678  0.1820 -0.2620
 6854TIP3    H142053   3.855   5.712   1.022 -0.0691  0.9989  1.6547
 6854TIP3    H242054   3.866   5.634   1.152 -0.4319 -1.8638  0.0434
 6855TIP3   OH242055   2.775   6.742  15.353  0.2933 -0.6699 -0.3234
 6855TIP3    H142056   2.831   6.706  15.284 -0.1355 -0.1503 -0.9503
 6855TIP3    H242057   2.817   6.825  15.377  0.1857 -0.6259 -0.2870
 6856TIP3   OH242058   0.814   0.008   0.794  0.0480 -0.5569 -0.3500
 6856TIP3    H142059   0.801   0.052   0.710 -0.6109 -0.6757 -0.3147
 6856TIP3    H242060   0.726  -0.001   0.830  0.0983 -2.3300 -0.5830
 6857TIP3   OH242061   0.451   1.598   5.792 -0.4885 -0.0092 -0.9184
 6857TIP3    H142062   0.383   1.642   5.742  0.4660  2.3260 -0.3041
 6857TIP3    H242063   0.458   1.649   5.873 -1.4658 -3.1834  1.3938
 6858TIP3   OH242064   2.982   2.560  15.145  0.6652 -0.5811  0.0445
 6858TIP3    H142065   3.055   2.508  15.180  1.2452  0.4897  0.4762
 6858TIP3    H242066   2.979   2.538  15.052  0.5141 -1.8181  0.3278
 6859TIP3   OH242067   1.352   6.778   1.985 -0.4143 -0.6276 -0.4220
 6859TIP3    H142068   1.394   6.727   2.054 -1.2343  0.1830  0.7236
 6859TIP3    H242069   1.410   6.853   1.972 -0.0557 -0.9839 -0.9179
 6860TIP3   OH242070   4.567   0.865   1.314 -0.4347 -0.7009 -0.5602
 6860TIP3    H142071   4.483   0.820   1.318  0.0373 -1.6309 -0.7694
 6860TIP3    H242072   4.632   0.794   1.317  0.3509  0.0260  0.1524
 6861TIP3   OH242073   1.364   4.734  15.065  0.1152  0.3607 -0.0917
 6861TIP3    H142074   1.364   4.749  14.971  3.6476  2.1319  0.0193
 6861TIP3    H242075   1.424   4.661  15.078 -1.8449 -1.2182  0.7854
 6862TIP3   OH242076   4.523   6.642   1.298 -0.0802 -0.2279  0.0465
 6862TIP3    H142077   4.599   6.663   1.351 -0.8083 -1.9934  1.9443
 6862TIP3    H242078   4.545   6.559   1.256 -1.2187 -1.2593  1.3636
 6863TIP3   OH242079   2.582   0.009   0.500  0.6255  0.0324 -0.1068
 6863TIP3    H142080   2.581   0.044   0.411  1.9983  0.9100  0.1878
 6863TIP3    H242081   2.589   0.086   0.556  0.3577 -0.5384  0.7297
 6864TIP3   OH242082   1.346   3.992  16.886  0.6675  0.5644 -0.0353
 6864TIP3    H142083   1.307   4.058  16.829 -0.3714  0.8115  0.9367
 6864TIP3    H242084   1.358   3.916  16.829 -2.2452  0.1032 -0.1707
 6865TIP3   OH242085   5.642   5.761   5.401 -0.4670 -0.6286 -0.1482
 6865TIP3    H142086   5.706   5.693   5.377 -0.2117 -0.6890  0.6705
 6865TIP3    H242087   5.686   5.811   5.470 -1.8717 -1.5975  1.5011
 6866TIP3   OH242088   0.044   5.983  11.275  0.2029 -0.2186  0.0853
 6866TIP3    H142089   0.029   5.889  11.288 -2.0151 -0.0391 -0.7680
 6866TIP3    H242090   0.024   6.022  11.360  1.0523 -0.5074  0.4206
 6867TIP3   OH242091   5.021   5.388   1.991 -0.5448  0.6066  0.2400
 6867TIP3    H142092   5.039   5.448   1.918  0.8915  0.6351  0.5869
 6867TIP3    H242093   5.051   5.303   1.959 -0.9231  0.4143  0.4010
 6868TIP3   OH242094   1.660   3.572   2.014 -0.1438 -0.3889  0.2580
 6868TIP3    H142095   1.696   3.547   1.929 -1.0231  0.1331 -0.2856
 6868TIP3    H242096   1.612   3.653   1.996 -1.3855 -0.9488  1.0020
 6869TIP3   OH242097   6.546   4.896   4.458 -0.9353 -0.2884 -0.4897
 6869TIP3    H142098   6.557   4.984   4.494 -0.7469  0.2042 -1.7362
 6869TIP3    H242099   6.457   4.871   4.484 -2.0889  1.4059 -2.4854
 6870TIP3   OH242100   4.606   4.448   5.791  0.2885  0.3786 -0.1803
 6870TIP3    H142101   4.600   4.457   5.886  1.8118  0.6829 -0.0825
 6870TIP3    H242102   4.644   4.361   5.777 -0.0144  0.2960 -0.5161
 6871TIP3   OH242103   2.261   3.930  12.593  0.0414  0.2031  0.3530
 6871TIP3    H142104   2.306   3.974  12.522 -0.2322 -0.7897 -0.4563
 6871TIP3    H242105   2.293   3.840  12.591  0.1410  0.1883  1.5820
 6872TIP3   OH242106   3.466   5.097   2.210  0.4168  0.4527  0.4070
 6872TIP3    H142107   3.549   5.139   2.233 -0.9413  2.4611  2.1253
 6872TIP3    H242108   3.468   5.013   2.254  0.9492  1.1340  1.7496
 6873TIP3   OH242109   5.875   2.455   1.713  0.6503  0.6238 -0.6770
 6873TIP3    H142110   5.926   2.374   1.724 -0.9423 -0.4207 -0.7237
 6873TIP3    H242111   5.912   2.515   1.778  0.4709 -0.8615  0.8811
 6874TIP3   OH242112   1.522   3.101   3.221 -0.3175 -0.1947 -0.1385
 6874TIP3    H142113   1.532   3.057   3.136 -1.6093  1.6019 -1.3039
 6874TIP3    H242114   1.558   3.188   3.207 -1.5502  0.5048  0.7850
 6875TIP3   OH242115   1.467   0.423   3.301 -1.0255  0.4692 -0.6833
 6875TIP3    H142116   1.501   0.448   3.386 -0.8025  0.4638 -0.7678
 6875TIP3    H242117   1.446   0.330   3.310 -0.3197  0.2833 -0.8385
 6876TIP3   OH242118   4.150   4.585   4.101  0.1602  0.1204  0.4528
 6876TIP3    H142119   4.099   4.640   4.160  0.4893 -0.5078  1.3357
 6876TIP3    H242120   4.181   4.512   4.155  1.4877  0.1661 -0.1834
 6877TIP3   OH242121   2.626   1.582  12.509  0.2543 -1.1489  0.7433
 6877TIP3    H142122   2.589   1.520  12.571  1.9649 -1.8115  1.1552
 6877TIP3    H242123   2.709   1.609  12.548 -0.0070  0.6939  0.1222
 6878TIP3   OH242124   1.481   4.514  15.510  0.3995  0.7493 -0.3287
 6878TIP3    H142125   1.434   4.431  15.501  1.7953 -0.1571  0.4249
 6878TIP3    H242126   1.472   4.556  15.424  1.2712 -1.0681 -1.3654
 6879TIP3   OH242127   3.474   3.604  12.522 -0.1303 -0.1307 -0.7052
 6879TIP3    H142128   3.449   3.676  12.464  2.3495  0.8418 -0.7209
 6879TIP3    H242129   3.543   3.641  12.577 -0.4947 -1.8253  0.9985
 6880TIP3   OH242130   5.328   0.721  11.450  0.2198 -0.7959  0.5493
 6880TIP3    H142131   5.349   0.628  11.457  0.6462 -0.7494 -0.0698
 6880TIP3    H242132   5.318   0.750  11.541 -1.7251 -1.8431  0.7294
 6881TIP3   OH242133   4.955   2.543   3.963  0.1215 -0.2163 -0.0693
 6881TIP3    H142134   5.048   2.528   3.946  0.3721  1.1779 -0.0788
 6881TIP3    H242135   4.919   2.571   3.878  0.0447  0.7709  0.2779
 6882TIP3   OH242136   5.327   3.928  13.104 -0.1181 -0.3127 -0.1553
 6882TIP3    H142137   5.334   3.833  13.093 -2.3566 -0.5459 -0.1426
 6882TIP3    H242138   5.374   3.947  13.185  0.0259 -1.4879  0.0462
 6883TIP3   OH242139   5.108   5.586   1.220 -0.1445 -0.0256 -0.6611
 6883TIP3    H142140   5.121   5.509   1.165  0.3817 -1.2822  1.1642
 6883TIP3    H242141   5.167   5.574   1.294  0.0722  2.2267 -0.3870
 6884TIP3   OH242142   5.712   5.884  11.179 -0.0794 -0.3407 -0.2288
 6884TIP3    H142143   5.617   5.884  11.190 -0.1688 -1.3946 -0.8708
 6884TIP3    H242144   5.725   5.863  11.087  0.8033 -2.9971  0.4180
 6885TIP3   OH242145   2.402   4.399  13.371  0.4469  0.1302  0.0636
 6885TIP3    H142146   2.481   4.400  13.424  0.9558 -2.8801 -0.5016
 6885TIP3    H242147   2.407   4.480  13.319  2.2085  0.8689  1.2961
 6886TIP3   OH242148   4.669   1.134  11.976 -0.1404  0.2234  0.5871
 6886TIP3    H142149   4.629   1.086  11.903  0.2546 -1.5233  1.4732
 6886TIP3    H242150   4.595   1.177  12.019 -0.8394 -1.2796  0.9733
 6887TIP3   OH242151   3.112   0.399  10.762  0.3918  0.0557 -0.1739
 6887TIP3    H142152   3.115   0.428  10.854 -2.2543  0.7863 -0.2479
 6887TIP3    H242153   3.176   0.454  10.718  1.1203  0.2620  1.0787
 6888TIP3   OH242154   1.279   6.233  12.233  0.2251  0.7483 -0.4547
 6888TIP3    H142155   1.282   6.305  12.296 -0.3932 -0.2496  0.7393
 6888TIP3    H242156   1.187   6.224  12.211  0.0167 -0.9672  0.9507
 6889TIP3   OH242157   5.400   1.526  12.057 -0.1015  0.1745  0.6371
 6889TIP3    H142158   5.435   1.566  11.977  1.2032  0.4872  1.3342
 6889TIP3    H242159   5.433   1.582  12.127 -1.6308  0.1848  1.3873
 6890TIP3   OH242160   3.216   0.462   1.821  0.0319  0.6911 -1.0022
 6890TIP3    H142161   3.310   0.477   1.808  0.3734 -0.2602  0.1456
 6890TIP3    H242162   3.210   0.368   1.838 -0.4696  1.3003  3.6449
 6891TIP3   OH242163   6.114   6.763   5.806  0.2837  0.1468  0.3982
 6891TIP3    H142164   6.099   6.685   5.753  0.6703  0.6654 -0.4932
 6891TIP3    H242165   6.206   6.784   5.793  0.0407  1.1038  0.1430
 6892TIP3   OH242166   2.457   2.425  10.513 -0.0603 -0.4949 -0.0867
 6892TIP3    H142167   2.475   2.484  10.586 -0.8915  1.4037 -1.3419
 6892TIP3    H242168   2.395   2.361  10.548 -1.6644  1.2933  0.5201
 6893TIP3   OH242169   1.706   0.174  13.917 -0.6385 -0.7980  0.6234
 6893TIP3    H142170   1.715   0.079  13.916 -1.5685 -0.9059  1.3360
 6893TIP3    H242171   1.621   0.190  13.959 -0.9503  0.3179 -0.3779
 6894TIP3   OH242172   2.615   3.909   1.646 -0.0313 -0.2295  0.0322
 6894TIP3    H142173   2.625   3.815   1.660  0.2287 -0.8846 -3.5944
 6894TIP3    H242174   2.529   3.930   1.683  0.2733 -1.6656  1.6561
 6895TIP3   OH242175   3.666   1.093   3.521  0.4811 -0.8151  0.1104
 6895TIP3    H142176   3.698   1.156   3.457 -0.7426 -1.0515 -0.7736
 6895TIP3    H242177   3.579   1.068   3.489 -0.3465 -0.6338  2.0922
 6896TIP3   OH242178   0.925   5.866  12.145  0.3696 -0.0834 -0.0682
 6896TIP3    H142179   0.877   5.866  12.227 -0.7423  0.4846 -0.7059
 6896TIP3    H242180   0.874   5.810  12.086  0.6562  0.2576 -0.6552
 6897TIP3   OH242181   6.337   0.006   3.238 -0.2663  0.0247 -0.3847
 6897TIP3    H142182   6.256  -0.036   3.268 -1.1846  1.5063 -0.6796
 6897TIP3    H242183   6.308   0.063   3.167  0.9462  1.0967 -0.0368
 6898TIP3   OH242184   4.309   0.973  11.452  0.0904 -0.7051 -0.1126
 6898TIP3    H142185   4.383   0.969  11.392 -1.5286 -1.8818 -2.1957
 6898TIP3    H242186   4.300   0.883  11.485  0.7827 -0.1400  1.7964
 6899TIP3   OH242187   0.480   3.899   4.665 -0.6543  0.5369  0.2689
 6899TIP3    H142188   0.507   3.991   4.671  0.8257  0.1478 -0.0014
 6899TIP3    H242189   0.412   3.889   4.732 -1.5370  2.0474 -0.3424
 6900TIP3   OH242190   2.268   3.729  13.051 -0.0739  0.0313 -0.5420
 6900TIP3    H142191   2.311   3.714  13.135 -0.2277  0.6794 -0.3434
 6900TIP3    H242192   2.338   3.717  12.986  0.4792  1.2673 -0.2100
 6901TIP3   OH242193   5.093   1.402  14.929  0.1291 -0.5262  0.1721
 6901TIP3    H142194   5.161   1.448  14.979  0.1962  0.7475 -1.0307
 6901TIP3    H242195   5.123   1.408  14.838 -1.7189  0.3233 -0.4221
 6902TIP3   OH242196   0.016   3.966  13.543  0.4600  0.1482  0.8814
 6902TIP3    H142197   0.022   3.918  13.626 -0.0981  0.9898  1.4141
 6902TIP3    H242198  -0.064   4.017  13.549  0.3479  0.1380 -0.2332
 6903TIP3   OH242199   0.623   4.934  13.026 -0.7063 -0.8021 -0.3138
 6903TIP3    H142200   0.675   4.856  13.008  0.2309 -0.6080  1.3955
 6903TIP3    H242201   0.638   4.990  12.949 -0.6412 -1.8872 -1.1216
 6904TIP3   OH242202   4.158   6.681  10.801  0.3350  0.0666  0.2793
 6904TIP3    H142203   4.122   6.634  10.726 -0.3977  1.0310  0.0011
 6904TIP3    H242204   4.167   6.771  10.770  2.0603  0.0550  0.6817
 6905TIP3   OH242205   0.918   3.370   0.917 -0.5401 -0.0762 -0.7307
 6905TIP3    H142206   0.856   3.384   0.988  0.0065 -0.9790 -0.0511
 6905TIP3    H242207   0.949   3.457   0.894 -1.0285  0.2578 -0.1492
 6906TIP3   OH242208   6.134   5.219   1.538  0.2923 -0.0013 -0.3363
 6906TIP3    H142209   6.212   5.240   1.486 -0.6665  1.4783 -1.2743
 6906TIP3    H242210   6.082   5.300   1.536 -1.5176 -1.1063 -0.2080
 6907TIP3   OH242211   1.847   5.119   2.144 -0.6529 -0.6043  0.4022
 6907TIP3    H142212   1.816   5.156   2.227 -3.4158 -0.8099 -0.4092
 6907TIP3    H242213   1.815   5.181   2.078  1.1986 -0.6199 -0.5718
 6908TIP3   OH242214   5.001   2.898   5.954 -0.4455 -0.1805  0.6686
 6908TIP3    H142215   4.930   2.836   5.970  1.4994 -2.5615  0.5335
 6908TIP3    H242216   4.992   2.921   5.861 -0.7797 -0.8184  0.5377
 6909TIP3   OH242217   2.804   6.554  13.557 -0.1125 -0.7289 -0.4503
 6909TIP3    H142218   2.762   6.621  13.611 -1.1749 -4.0054  3.2436
 6909TIP3    H242219   2.896   6.582  13.551 -0.5885  1.2109  0.6207
 6910TIP3   OH242220   1.976   0.985   6.516 -0.0942  0.1778  0.5706
 6910TIP3    H142221   1.892   1.031   6.524 -0.7391 -0.9881  0.7476
 6910TIP3    H242222   1.972   0.917   6.582  1.9469  1.4397  2.1007
 6911TIP3   OH242223   5.998   0.461   4.188 -0.2486  0.2919 -0.7252
 6911TIP3    H142224   6.047   0.482   4.109 -1.6323  2.0469 -1.1998
 6911TIP3    H242225   6.003   0.366   4.195  0.7362  0.1824 -2.3643
 6912TIP3   OH242226   4.094   0.143   3.128 -0.2365 -0.3494  0.2915
 6912TIP3    H142227   4.051   0.083   3.190  1.1065 -1.2999  0.3525
 6912TIP3    H242228   4.135   0.085   3.064  0.1786  0.5530 -0.2698
 6913TIP3   OH242229   3.645   6.715   1.645 -0.2607 -0.5586  0.1467
 6913TIP3    H142230   3.551   6.732   1.649 -0.2643 -0.1978 -1.0113
 6913TIP3    H242231   3.684   6.801   1.629 -0.0653 -1.1075 -3.0894
 6914TIP3   OH242232   2.766   4.032  16.472  0.2045  0.7533  0.2739
 6914TIP3    H142233   2.686   4.084  16.457 -1.0646 -0.4090  2.5808
 6914TIP3    H242234   2.749   3.950  16.427  0.5215  0.8527 -0.0281
 6915TIP3   OH242235   3.989   2.563  17.276  0.0956 -0.0052 -0.4878
 6915TIP3    H142236   3.915   2.507  17.302  0.5629 -0.0090  0.9144
 6915TIP3    H242237   4.011   2.534  17.187 -0.4272 -1.2370 -0.2365
 6916TIP3   OH242238   1.036   2.497   4.953 -0.6769  0.0172  0.1465
 6916TIP3    H142239   0.959   2.469   4.905  0.6840  0.3497 -2.3938
 6916TIP3    H242240   1.101   2.429   4.936  0.9095  1.8256 -1.4349
 6917TIP3   OH242241   6.732   4.792   2.368 -0.2146  0.5217  0.2353
 6917TIP3    H142242   6.672   4.788   2.442 -0.0544  0.9932  0.3888
 6917TIP3    H242243   6.800   4.854   2.394  0.1451  0.2736 -0.0846
 6918TIP3   OH242244   3.698   4.453   3.415  0.1819  0.4230  0.7671
 6918TIP3    H142245   3.732   4.530   3.370  1.2519 -1.0896 -1.1755
 6918TIP3    H242246   3.775   4.398   3.429 -0.8392 -1.2946 -0.0136
 6919TIP3   OH242247   0.872   0.128  11.912 -0.5469  0.4705 -0.1134
 6919TIP3    H142248   0.825   0.198  11.867 -1.8570 -1.3827 -1.7531
 6919TIP3    H242249   0.814   0.053  11.909  0.3262 -0.4567  2.6287
 6920TIP3   OH242250   3.665   3.516  14.923  0.6316 -0.2355  0.0563
 6920TIP3    H142251   3.586   3.509  14.869  0.3651 -1.7554  0.5986
 6920TIP3    H242252   3.733   3.541  14.861 -0.4352  2.2427 -0.2370
 6921TIP3   OH242253   3.355   2.654  12.263  0.6061  0.3158  0.0321
 6921TIP3    H142254   3.361   2.576  12.207  1.9899  1.0051 -0.8350
 6921TIP3    H242255   3.418   2.637  12.334  1.0737  0.7308 -0.2809
 6922TIP3   OH242256   5.514   1.855   4.893 -0.2626  0.5235  0.0887
 6922TIP3    H142257   5.451   1.829   4.826  0.2255  0.9737 -0.5503
 6922TIP3    H242258   5.515   1.951   4.889 -1.6601  0.6876  2.0588
 6923TIP3   OH242259   2.680   6.333   2.482  0.1712  0.0575  0.5525
 6923TIP3    H142260   2.638   6.300   2.561  0.7766  1.0779  1.3218
 6923TIP3    H242261   2.672   6.428   2.488  1.1747  0.2012 -0.0747
 6924TIP3   OH242262   2.230   5.973  13.614  0.3458  0.1204  0.0317
 6924TIP3    H142263   2.282   5.935  13.544  1.9802 -0.8804  1.7117
 6924TIP3    H242264   2.155   5.914  13.624  0.9969 -0.6717  0.2554
 6925TIP3   OH242265   5.882   2.640  13.225 -0.0297 -0.1416 -0.4640
 6925TIP3    H142266   5.866   2.698  13.300  1.6669  0.4063 -0.4723
 6925TIP3    H242267   5.845   2.688  13.150  0.9365  0.7353 -0.4000
 6926TIP3   OH242268   2.234   0.716   1.920 -0.3227  0.0773  0.2878
 6926TIP3    H142269   2.219   0.797   1.969 -1.5239  0.0781 -0.0527
 6926TIP3    H242270   2.273   0.656   1.984 -1.0601  0.3613  1.0181
 6927TIP3   OH242271   0.716   6.551  16.798 -1.0433  0.1904 -0.5337
 6927TIP3    H142272   0.743   6.477  16.745 -0.9814 -1.0691  1.1628
 6927TIP3    H242273   0.621   6.558  16.783 -1.2792 -1.0633  0.2377
 6928TIP3   OH242274   5.709   2.548  12.335 -0.0587  0.4480 -0.1738
 6928TIP3    H142275   5.658   2.473  12.365  0.6015 -0.9594 -2.3419
 6928TIP3    H242276   5.719   2.535  12.241  2.0974  2.0117 -0.2471
 6929TIP3   OH242277   6.184   2.431   6.311  0.1837  0.3471  0.4014
 6929TIP3    H142278   6.261   2.409   6.259  0.4507  1.0881  0.4678
 6929TIP3    H242279   6.202   2.518   6.345 -0.7780  0.6163  0.2591
 6930TIP3   OH242280   6.711   2.133   2.227  0.0315 -0.0995  0.6920
 6930TIP3    H142281   6.768   2.136   2.151 -0.3421  1.6695  0.4582
 6930TIP3    H242282   6.756   2.075   2.289  0.5227 -1.2320 -0.6858
 6931TIP3   OH242283   4.634   1.529  14.967  0.0494  0.1673 -0.5088
 6931TIP3    H142284   4.708   1.512  14.910 -1.7249 -1.4137 -2.5126
 6931TIP3    H242285   4.623   1.448  15.017  0.3874  0.8391  0.6966
 6932TIP3   OH242286   6.072   1.157   0.637  0.1904 -0.1677  0.6051
 6932TIP3    H142287   6.150   1.103   0.648 -0.1565 -0.9357 -0.4722
 6932TIP3    H242288   6.099   1.245   0.663  2.1375  0.1110 -1.9288
 6933TIP3   OH242289   6.214   1.351   5.496 -0.1095 -0.5116  0.1024
 6933TIP3    H142290   6.290   1.294   5.488 -0.4483 -0.9962  0.3253
 6933TIP3    H242291   6.251   1.438   5.511  0.4177 -0.6094 -0.5702
 6934TIP3   OH242292   2.717   3.376   0.506 -0.3673 -0.1668  0.6436
 6934TIP3    H142293   2.748   3.458   0.468 -1.5261 -0.3022 -0.6555
 6934TIP3    H242294   2.622   3.387   0.514 -0.3284 -0.6785  2.2428
 6935TIP3   OH242295   6.547   5.817  14.507 -0.1533  0.0115  0.2528
 6935TIP3    H142296   6.590   5.865  14.437  0.2883 -3.2125 -1.9385
 6935TIP3    H242297   6.453   5.831  14.493 -0.0742 -0.7359 -1.1783
 6936TIP3   OH242298   6.689   6.270  12.358 -0.4434 -0.1300  0.1896
 6936TIP3    H142299   6.638   6.210  12.411  0.8806 -0.9155  0.6014
 6936TIP3    H242300   6.737   6.324  12.421  0.2702 -0.3127 -0.1879
 6937TIP3   OH242301   0.248   3.498   3.193 -0.3825 -0.0640 -0.2089
 6937TIP3    H142302   0.325   3.444   3.171 -0.1883 -0.1130  0.5556
 6937TIP3    H242303   0.186   3.480   3.122  0.5392  0.4568 -1.1784
 6938TIP3   OH242304   6.420   2.358  13.844  0.2392  0.5474 -0.2266
 6938TIP3    H142305   6.327   2.365  13.865  0.2680  0.7069 -0.1465
 6938TIP3    H242306   6.437   2.432  13.785  0.1590  0.1002 -0.8105
 6939TIP3   OH242307   4.082   5.323   0.300  0.2007  0.2714  0.4558
 6939TIP3    H142308   4.120   5.409   0.320  1.5489 -0.0805 -0.4495
 6939TIP3    H242309   4.080   5.319   0.204 -2.8445  0.5293  0.3997
 6940TIP3   OH242310   2.762   5.022  14.646  0.1593  0.4074 -0.5261
 6940TIP3    H142311   2.843   4.971  14.654  0.6753  1.1199 -1.1227
 6940TIP3    H242312   2.705   4.967  14.592 -0.5323 -0.9991  1.5005
 6941TIP3   OH242313   2.635   5.841   4.082 -0.1486 -0.0521  0.1660
 6941TIP3    H142314   2.701   5.776   4.104 -0.0054 -0.1059 -0.4052
 6941TIP3    H242315   2.669   5.885   4.005 -0.9516 -0.3503 -0.3749
 6942TIP3   OH242316   3.829   0.519  13.656  0.6383  0.5056 -0.0954
 6942TIP3    H142317   3.778   0.519  13.575 -0.7972  4.7809  0.5370
 6942TIP3    H242318   3.801   0.441  13.702 -2.0969  0.4028 -1.7152
 6943TIP3   OH242319   0.457   5.592  10.480  0.6154 -0.3092 -0.0334
 6943TIP3    H142320   0.550   5.576  10.462  0.8460  1.8157 -1.0865
 6943TIP3    H242321   0.444   5.684  10.454 -1.9342 -0.7684 -0.5741
 6944TIP3   OH242322   1.679   5.522   1.461 -0.0671  0.1832  0.4746
 6944TIP3    H142323   1.713   5.580   1.529 -1.5572  2.0322 -0.2741
 6944TIP3    H242324   1.755   5.499   1.408  0.4199  2.3340  0.1820
 6945TIP3   OH242325   1.044   4.004  13.754  0.5470  0.2123 -0.3792
 6945TIP3    H142326   1.074   3.969  13.670  0.3889  0.6427 -0.6193
 6945TIP3    H242327   1.118   3.991  13.813  1.5909  2.0496 -1.1778
 6946TIP3   OH242328   6.706   3.398   0.561 -0.3663  0.2322 -0.6311
 6946TIP3    H142329   6.747   3.314   0.583 -0.1180  0.3891 -0.4967
 6946TIP3    H242330   6.769   3.441   0.503 -1.4318 -0.6089 -2.5210
 6947TIP3   OH242331   2.236   6.577   0.415 -0.0772 -0.0292 -0.1202
 6947TIP3    H142332   2.276   6.590   0.501 -1.9099 -0.5870  0.8848
 6947TIP3    H242333   2.183   6.498   0.425  0.0781 -0.4063 -1.9471
 6948TIP3   OH242334   2.685   0.966   5.653 -0.5753 -0.1595  0.1268
 6948TIP3    H142335   2.655   1.029   5.718  0.7138  0.5906  0.0282
 6948TIP3    H242336   2.704   1.018   5.575  0.0390 -0.7335 -0.1203
 6949TIP3   OH242337   3.666   1.855   5.046 -0.3879 -0.1558 -0.2991
 6949TIP3    H142338   3.666   1.760   5.035 -0.5337 -0.2844  0.7306
 6949TIP3    H242339   3.611   1.870   5.123  0.3801  0.6974  0.0879
 6950TIP3   OH242340   3.629   3.256   1.779 -0.7311 -0.4529 -0.3070
 6950TIP3    H142341   3.660   3.344   1.802 -0.2263 -0.6738 -0.1315
 6950TIP3    H242342   3.538   3.269   1.751 -0.8689  0.0293  0.3551
 6951TIP3   OH242343   4.726   0.684   5.793  1.0897  0.2584 -0.0940
 6951TIP3    H142344   4.788   0.692   5.866  2.2195 -0.8766 -0.8938
 6951TIP3    H242345   4.756   0.748   5.729  0.2514  1.0690  0.2924
 6952TIP3   OH242346   6.368   1.629   1.848 -0.1545  0.4247  0.2877
 6952TIP3    H142347   6.343   1.671   1.931  0.8664 -0.2702  0.9687
 6952TIP3    H242348   6.290   1.580   1.822 -0.0533 -0.4466  1.5517
 6953TIP3   OH242349   2.711   6.374   0.258 -0.4546 -0.5950  0.2991
 6953TIP3    H142350   2.712   6.361   0.352 -1.9419  0.6814  0.5221
 6953TIP3    H242351   2.626   6.341   0.229  0.1698 -1.4112 -0.6789
 6954TIP3   OH242352   3.109   3.991  15.183 -0.7237  0.7426 -0.1488
 6954TIP3    H142353   3.113   3.968  15.090 -1.6778 -1.6575  0.3225
 6954TIP3    H242354   3.134   3.911  15.229 -2.0420  1.3169  1.6886
 6955TIP3   OH242355   5.171   5.353  16.181 -0.0278 -0.0401  0.1521
 6955TIP3    H142356   5.105   5.325  16.117 -2.4729 -0.6741  2.7406
 6955TIP3    H242357   5.213   5.428  16.140 -2.5248  0.5425 -1.6146
 6956TIP3   OH242358   3.731   4.093   1.380 -0.1938  0.1313 -0.2701
 6956TIP3    H142359   3.734   4.110   1.474 -2.2432  3.0836 -0.6262
 6956TIP3    H242360   3.804   4.032   1.365  1.5662  1.2250  2.8608
 6957TIP3   OH242361   3.405   5.299  14.940  0.3921 -0.3115 -0.7528
 6957TIP3    H142362   3.439   5.326  15.025 -0.5544  1.4588 -0.9145
 6957TIP3    H242363   3.481   5.261  14.896  1.2844  0.2359  0.2639
 6958TIP3   OH242364   2.489   1.688  11.845 -0.2059 -0.1352  0.6697
 6958TIP3    H142365   2.501   1.777  11.813 -2.3354  0.7850  2.2346
 6958TIP3    H242366   2.577   1.655  11.860  0.6620  1.2060 -1.1822
 6959TIP3   OH242367   1.172   0.570   2.561  0.1526 -0.2764 -0.1929
 6959TIP3    H142368   1.113   0.524   2.502 -0.3163  0.8772 -0.6438
 6959TIP3    H242369   1.236   0.612   2.503 -0.7406  1.4722  0.0261
 6960TIP3   OH242370   1.659   0.852   0.215  0.2060  0.1683  0.3867
 6960TIP3    H142371   1.650   0.947   0.221  0.1192  0.1922 -0.0329
 6960TIP3    H242372   1.589   0.825   0.155 -0.6496 -0.3243  1.5733
 6961TIP3   OH242373   5.151   3.573  11.057  0.3548 -0.3988  0.0348
 6961TIP3    H142374   5.182   3.483  11.044  1.8929 -0.0003  0.7649
 6961TIP3    H242375   5.200   3.626  10.995  1.7171  0.3379  1.6660
 6962TIP3   OH242376   2.867   0.401   1.403  0.6467 -0.0642  0.2474
 6962TIP3    H142377   2.850   0.402   1.498 -0.3391  0.9031  0.0840
 6962TIP3    H242378   2.835   0.315   1.375  0.7829 -0.2908  0.7725
 6963TIP3   OH242379   2.898   6.040   2.554 -0.1432  0.4420  0.5288
 6963TIP3    H142380   2.922   6.114   2.609 -0.8471  0.4390  0.8591
 6963TIP3    H242381   2.874   6.078   2.470  0.8885  0.4526  0.2321
 6964TIP3   OH242382   1.560   5.838   4.673  0.1545 -0.3152 -0.4521
 6964TIP3    H142383   1.465   5.840   4.663  0.1984 -0.1556 -0.8394
 6964TIP3    H242384   1.583   5.745   4.667  0.2176 -0.2165 -2.2390
 6965TIP3   OH242385   3.273   2.762  16.380 -0.2792 -0.2518 -0.2610
 6965TIP3    H142386   3.217   2.839  16.391 -0.5011 -0.5041  0.4283
 6965TIP3    H242387   3.340   2.790  16.318 -0.9630  0.1692 -0.8229
 6966TIP3   OH242388   1.781   0.454  14.931 -0.1034 -0.2871  0.4134
 6966TIP3    H142389   1.688   0.478  14.928 -0.0780  0.1085 -3.6952
 6966TIP3    H242390   1.826   0.535  14.955 -0.7295 -0.2494  1.5228
 6967TIP3   OH242391   2.608   4.883  15.280 -0.0386  0.8078 -0.1075
 6967TIP3    H142392   2.603   4.832  15.361 -0.8084 -0.0461 -0.6680
 6967TIP3    H242393   2.525   4.866  15.236  0.2301  1.5306 -0.9261
 6968TIP3   OH242394   2.444   2.880   0.545  0.0396  0.5261 -0.0509
 6968TIP3    H142395   2.358   2.895   0.506  0.1071  1.1618  0.0425
 6968TIP3    H242396   2.443   2.927   0.628 -0.3415 -1.3745  1.0832
 6969TIP3   OH242397   6.731   6.807   1.364 -0.3010 -0.2849  0.1932
 6969TIP3    H142398   6.655   6.759   1.398 -0.8019 -0.3808 -1.0206
 6969TIP3    H242399   6.753   6.762   1.283 -0.7010  1.4409 -0.9269
 6970TIP3   OH242400   3.630   0.243  14.478 -0.4649  0.4630 -0.2110
 6970TIP3    H142401   3.659   0.282  14.561 -1.1381  1.7010 -0.5319
 6970TIP3    H242402   3.674   0.158  14.475 -0.1090  0.5694  1.2218
 6971TIP3   OH242403   1.651   0.429  11.463  0.1583 -0.0578  0.2840
 6971TIP3    H142404   1.662   0.519  11.493  0.4305  0.9221 -2.4011
 6971TIP3    H242405   1.715   0.420  11.392  0.4311 -2.5426  0.7452
 6972TIP3   OH242406   2.357   2.828   2.789 -0.0580  0.2295 -0.2990
 6972TIP3    H142407   2.329   2.810   2.699  1.1289  2.0031 -1.0688
 6972TIP3    H242408   2.296   2.895   2.820 -0.4843 -0.3996  0.2568
 6973TIP3   OH242409   1.152   1.279  13.870  0.2274  0.1562 -0.1764
 6973TIP3    H142410   1.119   1.365  13.895  0.1525  0.0798 -0.0109
 6973TIP3    H242411   1.242   1.295  13.842  0.7898  0.0423  1.4477
 6974TIP3   OH242412   4.752   3.063  15.739 -0.3065  0.2146  0.0538
 6974TIP3    H142413   4.721   3.094  15.654 -1.0786 -0.7305 -0.0252
 6974TIP3    H242414   4.848   3.064  15.731 -0.3719  0.2928 -0.7663
 6975TIP3   OH242415   1.155   4.325   3.793 -0.8669  0.4578  0.1890
 6975TIP3    H142416   1.158   4.363   3.880 -1.0610 -1.0202  0.8640
 6975TIP3    H242417   1.151   4.231   3.807  0.8179  0.0664 -1.4392
 6976TIP3   OH242418   0.347   3.626   1.504  0.3926  0.9413  0.3717
 6976TIP3    H142419   0.314   3.714   1.484  0.4761  0.3804 -2.8903
 6976TIP3    H242420   0.276   3.567   1.481  1.3899  0.0412 -0.5598
 6977TIP3   OH242421   2.157   4.718  15.465  0.1767  0.0604  0.7074
 6977TIP3    H142422   2.122   4.630  15.477 -1.3112  0.4838 -0.2764
 6977TIP3    H242423   2.229   4.725  15.528 -0.1791 -1.5769  1.3184
 6978TIP3   OH242424   5.746   1.828   3.537 -0.3379  0.2827  0.1881
 6978TIP3    H142425   5.668   1.789   3.496  0.6710 -0.2484 -1.3293
 6978TIP3    H242426   5.789   1.874   3.465  0.4109  1.1152  1.1587
 6979TIP3   OH242427   0.881   3.355  11.862 -0.7890  0.8301  0.2349
 6979TIP3    H142428   0.966   3.376  11.901 -0.9342  1.3358  0.2849
 6979TIP3    H242429   0.891   3.265  11.830 -0.4432  0.6556  0.8166
 6980TIP3   OH242430   4.838   2.639  16.693 -0.0321 -0.5896  0.0021
 6980TIP3    H142431   4.911   2.630  16.753  0.9819  0.7673 -0.9825
 6980TIP3    H242432   4.808   2.729  16.704 -0.2738 -0.5354 -1.0195
 6981TIP3   OH242433   3.432   2.873  14.896  0.5620  0.1628 -0.6922
 6981TIP3    H142434   3.520   2.840  14.876  1.1789  1.1156  0.3873
 6981TIP3    H242435   3.430   2.882  14.991 -0.3033  1.2662 -0.7906
 6982TIP3   OH242436   5.795   4.257  15.017 -0.3830 -0.1153 -0.4865
 6982TIP3    H142437   5.826   4.316  15.086  0.5330 -0.3861 -0.6462
 6982TIP3    H242438   5.752   4.314  14.954 -2.2286  0.0200  0.8179
 6983TIP3   OH242439   4.835   3.928   5.265  0.3045  0.3544  0.2244
 6983TIP3    H142440   4.741   3.949   5.271  0.0417 -1.0415  1.7734
 6983TIP3    H242441   4.838   3.841   5.225  0.8957  0.1830  0.6253
 6984TIP3   OH242442   4.059   1.797   3.763 -0.2616 -0.4234  0.2254
 6984TIP3    H142443   3.990   1.850   3.724 -0.6344  1.6443  3.3186
 6984TIP3    H242444   4.011   1.730   3.812  0.0950 -1.1360 -0.3800
 6985TIP3   OH242445   1.017   2.889   1.193 -0.4338 -0.1089  0.4169
 6985TIP3    H142446   1.037   2.904   1.101 -3.4839 -1.0323 -0.5188
 6985TIP3    H242447   0.960   2.961   1.218  1.3184  0.8079  2.0341
 6986TIP3   OH242448   6.096   6.032   2.213  0.0205  0.0744 -0.5826
 6986TIP3    H142449   6.170   5.973   2.199 -0.2853 -0.0536 -1.8407
 6986TIP3    H242450   6.046   6.026   2.131  0.7197  3.1695 -1.3721
 6987TIP3   OH242451   5.729   0.787  15.587 -0.1433  0.3835 -0.1725
 6987TIP3    H142452   5.693   0.787  15.676  2.1615 -1.0858  0.8674
 6987TIP3    H242453   5.696   0.867  15.547 -1.3117  1.0488  1.9866
 6988TIP3   OH242454   5.260   6.275  10.384  0.1167  0.0337 -0.2894
 6988TIP3    H142455   5.207   6.331  10.440 -1.1813 -0.3095 -1.1363
 6988TIP3    H242456   5.216   6.191  10.384  1.4434 -0.6978  0.0801
 6989TIP3   OH242457   4.765   0.474  12.056  0.3318 -0.1873 -0.1405
 6989TIP3    H142458   4.781   0.385  12.087 -0.2110  0.2374  1.4078
 6989TIP3    H242459   4.772   0.467  11.960 -0.5403 -2.0629 -0.1154
 6990TIP3   OH242460   6.174   0.520  13.768 -0.4972  0.2119 -1.1691
 6990TIP3    H142461   6.177   0.615  13.763  0.9875  0.1791 -1.5472
 6990TIP3    H242462   6.259   0.492  13.733  1.8039 -0.9795  4.3018
 6991TIP3   OH242463   5.730   6.493   3.385 -0.1036 -0.1383  0.0052
 6991TIP3    H142464   5.663   6.549   3.346  0.2749  0.6185  0.4213
 6991TIP3    H242465   5.681   6.433   3.441 -0.6465 -1.1566 -1.4839
 6992TIP3   OH242466   0.513   2.985  11.417 -0.3963  0.0189  0.2832
 6992TIP3    H142467   0.429   3.018  11.450 -0.7337 -1.3341  0.8693
 6992TIP3    H242468   0.578   3.047  11.450 -1.3779  3.8025 -3.9062
 6993TIP3   OH242469   1.988   1.973   4.829  0.6870 -0.2993  0.2065
 6993TIP3    H142470   1.932   2.045   4.857  0.9584  0.1992 -0.4956
 6993TIP3    H242471   2.073   1.992   4.868  0.7229 -0.3209  0.1388
 6994TIP3   OH242472   6.762   3.975   5.872 -0.1167  0.1862 -0.3178
 6994TIP3    H142473   6.671   4.003   5.873  0.0692  1.0386 -2.2341
 6994TIP3    H242474   6.812   4.053   5.896  0.1536 -0.0724 -0.0194
 6995TIP3   OH242475   2.603   5.449   4.439 -0.1062 -0.4292 -0.1907
 6995TIP3    H142476   2.571   5.374   4.389  0.3815 -0.5793 -0.2774
 6995TIP3    H242477   2.529   5.473   4.496 -0.2390 -1.0146 -0.1092
 6996TIP3   OH242478   2.009   1.204  14.148 -0.1795  0.0405  0.0705
 6996TIP3    H142479   2.064   1.162  14.213 -1.2274 -0.6232  0.5464
 6996TIP3    H242480   2.071   1.235  14.081  0.9830  1.3336  1.6629
 6997TIP3   OH242481   0.597   2.228  11.119  0.0757  0.2978  0.3580
 6997TIP3    H142482   0.651   2.286  11.173  1.2406 -1.3416  1.0170
 6997TIP3    H242483   0.659   2.180  11.065 -0.8084 -0.7904  0.2731
 6998TIP3   OH242484   3.680   6.282  12.083  0.3529 -0.3142 -0.2096
 6998TIP3    H142485   3.758   6.301  12.135  0.0085  1.3063 -0.2336
 6998TIP3    H242486   3.698   6.322  11.998  0.6931 -2.4824 -1.2174
 6999TIP3   OH242487   3.297   2.234  16.077  0.2243  0.5562 -0.4649
 6999TIP3    H142488   3.243   2.156  16.093  0.0066  0.5030 -1.4059
 6999TIP3    H242489   3.387   2.200  16.077  0.4207  0.8508  2.4069
 7000TIP3   OH242490   6.448   1.437   1.526  0.1930 -0.9470  0.7893
 7000TIP3    H142491   6.433   1.531   1.515  0.3861 -1.0113 -0.0363
 7000TIP3    H242492   6.412   1.417   1.613 -1.2677 -0.4144  0.3334
 7001TIP3   OH242493   2.709   1.100   6.391  0.4358  0.6467 -0.0203
 7001TIP3    H142494   2.803   1.118   6.393  0.4145  0.7576 -0.0095
 7001TIP3    H242495   2.668   1.186   6.405  0.2963  1.0701 -2.5974
 7002TIP3   OH242496   5.147   2.687   0.691  0.2305 -0.2678 -0.5754
 7002TIP3    H142497   5.150   2.602   0.648 -0.1412  0.1128 -1.3955
 7002TIP3    H242498   5.225   2.689   0.747 -0.8092 -1.9339  1.0481
 7003TIP3   OH242499   6.573   1.749  11.383 -0.4481 -0.1972 -0.0390
 7003TIP3    H142500   6.668   1.743  11.373 -0.5283 -0.6983 -0.5903
 7003TIP3    H242501   6.540   1.749  11.293 -0.9924 -0.4592  0.1568
 7004TIP3   OH242502   6.625   2.216   0.825 -0.2523  0.6764  0.0820
 7004TIP3    H142503   6.710   2.199   0.784 -1.6390  0.4772 -3.0267
 7004TIP3    H242504   6.630   2.308   0.850  1.1180  0.4810  0.6392
 7005TIP3   OH242505   0.904   1.809   3.419 -0.5331 -0.5122 -0.5432
 7005TIP3    H142506   0.843   1.777   3.352  1.1878 -0.0821 -2.4314
 7005TIP3    H242507   0.938   1.891   3.382  0.0829  0.0212  1.1358
 7006TIP3   OH242508   4.812   1.654   1.814 -0.5808 -0.0632 -0.3529
 7006TIP3    H142509   4.725   1.629   1.845 -1.2229  0.1226 -1.9103
 7006TIP3    H242510   4.807   1.646   1.718  2.0228 -2.8833 -0.3872
 7007TIP3   OH242511   1.666   1.418  13.503  0.0018  0.1577  0.5054
 7007TIP3    H142512   1.701   1.473  13.432  0.1225 -1.5343 -0.8178
 7007TIP3    H242513   1.714   1.445  13.581  0.7269  1.2610 -0.2989
 7008TIP3   OH242514   4.503   4.110   4.001 -0.3823  0.4509 -0.8385
 7008TIP3    H142515   4.502   4.127   4.095  0.9712  0.7602 -0.8517
 7008TIP3    H242516   4.526   4.018   3.993  0.5493  0.6648 -0.8490
 7009TIP3   OH242517   4.579   5.883   4.722 -0.4870  0.5819  0.1775
 7009TIP3    H142518   4.663   5.879   4.678 -0.4029  0.5868  0.3364
 7009TIP3    H242519   4.599   5.917   4.810 -0.5320 -0.2607  0.5263
 7010TIP3   OH242520   5.093   0.706   1.920  0.0188  0.2592 -0.0216
 7010TIP3    H142521   5.178   0.710   1.965  0.1903 -0.5897 -0.2424
 7010TIP3    H242522   5.034   0.666   1.984 -0.8086  2.8690  0.9531
 7011TIP3   OH242523   1.901   4.261   0.232 -0.2594 -0.0173  0.1500
 7011TIP3    H142524   1.955   4.325   0.278 -0.1505 -0.8857  1.2427
 7011TIP3    H242525   1.821   4.309   0.209  0.8493  1.2316 -1.3357
 7012TIP3   OH242526   2.965   2.348   3.992 -0.2039 -0.0744  0.3299
 7012TIP3    H142527   2.929   2.402   4.063  0.5824 -0.9099  1.3924
 7012TIP3    H242528   3.004   2.411   3.931 -0.2965  0.6224  0.9771
 7013TIP3   OH242529   0.805   2.303   5.238  0.0796  0.4356 -0.2728
 7013TIP3    H142530   0.845   2.390   5.232 -0.5147  0.8177  1.0138
 7013TIP3    H242531   0.711   2.319   5.230 -0.1234  0.0726  1.0777
 7014TIP3   OH242532   0.786   1.928   3.859 -0.0036 -0.4770  0.1579
 7014TIP3    H142533   0.743   1.878   3.929 -0.2267  0.5708  0.7958
 7014TIP3    H242534   0.743   1.899   3.779 -0.3920 -1.0229  0.5522
 7015TIP3   OH242535   2.480   0.170   4.071 -0.2608 -0.0136 -0.3225
 7015TIP3    H142536   2.539   0.123   4.011  1.0517  1.2373 -0.0670
 7015TIP3    H242537   2.409   0.200   4.015  1.8329  2.7175 -1.8060
 7016TIP3   OH242538   1.104   2.735  14.575  0.6188 -0.0214 -0.0408
 7016TIP3    H142539   1.159   2.776  14.508  0.0919 -0.3197 -0.6646
 7016TIP3    H242540   1.089   2.804  14.640  0.2608  0.5900 -0.7601
 7017TIP3   OH242541   0.025   6.759  15.659 -0.4178 -0.4816 -0.1538
 7017TIP3    H142542   0.050   6.846  15.628 -0.5961  0.6645  2.5928
 7017TIP3    H242543  -0.061   6.744  15.621 -1.4222  1.6342  1.0556
 7018TIP3   OH242544   2.722   0.878  11.686 -0.1492  0.3574 -0.4817
 7018TIP3    H142545   2.777   0.898  11.761 -0.3892 -0.3633 -0.1095
 7018TIP3    H242546   2.686   0.963  11.660  0.1306  0.6483  0.0592
 7019TIP3   OH242547   6.090   2.697  17.010  0.0817 -0.2464 -0.6835
 7019TIP3    H142548   6.102   2.786  16.976  0.1057 -0.0218 -0.1007
 7019TIP3    H242549   6.167   2.683  17.066  0.7823 -1.1508 -1.8334
 7020TIP3   OH242550   0.310   3.829  14.479  0.3534  0.1235  0.0333
 7020TIP3    H142551   0.232   3.882  14.465  0.0266 -0.5630 -0.8178
 7020TIP3    H242552   0.354   3.871  14.553 -0.5321  0.8399  0.1753
 7021TIP3   OH242553   4.852   2.820  14.249 -0.0850  0.5156  0.5839
 7021TIP3    H142554   4.870   2.800  14.157  2.3028 -2.3247  1.5156
 7021TIP3    H242555   4.786   2.756  14.275  1.6916 -1.0073  1.5881
 7022TIP3   OH242556   1.324   6.227  11.403 -0.1467  0.0303  0.5666
 7022TIP3    H142557   1.313   6.316  11.368  1.2382  0.3649  0.9093
 7022TIP3    H242558   1.237   6.204  11.437 -0.5386  1.2365  0.4407
 7023TIP3   OH242559   2.901   5.394  17.138 -0.4564  0.8345 -0.2484
 7023TIP3    H142560   2.900   5.463  17.204 -1.8330  1.0006 -0.4229
 7023TIP3    H242561   2.925   5.439  17.057  0.5893  0.7398 -0.0173
 7024TIP3   OH242562   1.213   0.555   3.515  0.0804  0.0083  0.2590
 7024TIP3    H142563   1.216   0.611   3.593  0.1013 -0.1305  0.3582
 7024TIP3    H242564   1.197   0.467   3.549 -0.9554  0.0955  0.0304
 7025TIP3   OH242565   5.627   2.744  11.506 -0.4410  0.2804 -0.4537
 7025TIP3    H142566   5.558   2.777  11.564  0.7166 -0.8934  1.7056
 7025TIP3    H242567   5.707   2.750  11.558  0.9732  0.6754 -2.5457
 7026TIP3   OH242568   1.137   4.746  16.558  0.3178  0.8731  0.2272
 7026TIP3    H142569   1.204   4.771  16.621 -0.3967  0.5975  1.1126
 7026TIP3    H242570   1.173   4.670  16.513 -0.3962 -0.8885  2.4695
 7027TIP3   OH242571   6.437   0.236  12.495  0.2829 -0.2005 -0.6013
 7027TIP3    H142572   6.357   0.275  12.532  0.6898  0.5642 -0.5101
 7027TIP3    H242573   6.439   0.269  12.405 -0.8067 -2.2003 -1.4271
 7028TIP3   OH242574   0.712   2.464   4.468  0.2008 -0.1628 -0.7398
 7028TIP3    H142575   0.648   2.517   4.514  2.3479 -0.0944  2.4481
 7028TIP3    H242576   0.686   2.374   4.485  0.2233 -0.1355 -0.5641
 7029TIP3   OH242577   5.429   4.057   1.639 -0.3328  0.4191  0.4740
 7029TIP3    H142578   5.354   4.019   1.683  0.2100 -1.1479  0.0897
 7029TIP3    H242579   5.391   4.103   1.563 -0.8983 -0.4235  0.2329
 7030TIP3   OH242580   6.798   0.988   5.535 -0.1725 -0.2817  0.3876
 7030TIP3    H142581   6.793   1.043   5.457  0.3153 -0.0649  0.5107
 7030TIP3    H242582   6.866   1.028   5.589 -0.2459 -0.6484  0.7557
 7031TIP3   OH242583   5.978   6.254  13.733 -0.1196  0.0602  0.1569
 7031TIP3    H142584   5.895   6.301  13.731 -1.0996 -1.5975  0.0842
 7031TIP3    H242585   6.006   6.259  13.824 -0.6690  0.0187  0.3335
 7032TIP3   OH242586   2.031   1.801   1.139 -0.3120 -0.0968  0.0265
 7032TIP3    H142587   2.034   1.815   1.044  0.4850  1.0955  0.2139
 7032TIP3    H242588   2.123   1.792   1.165 -0.5745 -1.4371  0.5559
 7033TIP3   OH242589   0.687   4.692   1.579 -0.5331  0.0836 -0.0560
 7033TIP3    H142590   0.710   4.621   1.519 -2.8967 -0.9205  0.1063
 7033TIP3    H242591   0.645   4.648   1.653 -0.0459  1.5153  1.1213
 7034TIP3   OH242592   0.290   3.032   4.920 -0.2439  0.2382 -0.0079
 7034TIP3    H142593   0.219   2.984   4.963 -0.0595  0.9557  1.1408
 7034TIP3    H242594   0.249   3.110   4.883 -0.1596  0.3437  0.1200
 7035TIP3   OH242595   0.613   2.074   5.182  0.2028 -0.0157 -0.4096
 7035TIP3    H142596   0.697   2.057   5.225 -0.6390 -0.7316  1.0345
 7035TIP3    H242597   0.550   2.079   5.254 -1.3498 -1.6504 -1.5647
 7036TIP3   OH242598   3.693   5.677  11.065 -0.1323  0.1193 -0.0241
 7036TIP3    H142599   3.713   5.771  11.059 -1.7643  0.7848  2.9897
 7036TIP3    H242600   3.758   5.643  11.127  1.4519 -1.1862 -2.2668
 7037TIP3   OH242601   5.092   5.255  13.040  0.0945  0.0343  0.4720
 7037TIP3    H142602   5.016   5.312  13.049  0.6070  0.6914  0.7357
 7037TIP3    H242603   5.121   5.239  13.129 -0.4291 -1.1861  0.4390
 7038TIP3   OH242604   3.807   4.918  14.473 -0.1141 -0.3648 -0.7844
 7038TIP3    H142605   3.793   4.870  14.392  2.3589  0.1540 -1.6194
 7038TIP3    H242606   3.786   5.009  14.452  0.3793 -0.2543 -0.8240
 7039TIP3   OH242607   4.785   6.492   5.120 -0.6871  0.3763 -0.0362
 7039TIP3    H142608   4.791   6.557   5.190 -0.4118 -0.2782  0.5519
 7039TIP3    H242609   4.876   6.470   5.100 -0.7324  1.0649 -1.0927
 7040TIP3   OH242610   6.402   1.430  16.002 -0.1316  0.6865  0.2560
 7040TIP3    H142611   6.483   1.404  16.046  0.3289  1.4204 -0.1349
 7040TIP3    H242612   6.431   1.470  15.921 -0.7091  3.2343  1.2146
 7041TIP3   OH242613   2.916   5.107  11.968 -0.8175  0.5503  0.0776
 7041TIP3    H142614   2.857   5.123  12.042  0.7076 -0.0733  1.4716
 7041TIP3    H242615   2.903   5.014  11.947 -2.5487  1.1133 -1.6733
 7042TIP3   OH242616   4.967   2.628  11.234 -0.3543 -0.3203  0.0036
 7042TIP3    H142617   4.899   2.596  11.175 -1.3806  0.5284  0.6927
 7042TIP3    H242618   4.940   2.599  11.321 -0.5313  1.0971  0.4469
 7043TIP3   OH242619   3.933   5.031  16.092 -0.0867  0.1115  0.1294
 7043TIP3    H142620   3.995   5.070  16.031  0.5069 -0.2747  0.4688
 7043TIP3    H242621   3.960   5.064  16.178  0.4387 -1.0203  0.4243
 7044TIP3   OH242622   4.730   3.133  16.699  0.0038  0.3627  0.2731
 7044TIP3    H142623   4.663   3.187  16.741 -0.4684 -0.1198  0.1440
 7044TIP3    H242624   4.736   3.168  16.610  1.3801  1.7316  0.8575
 7045TIP3   OH242625   0.481   6.491  14.750 -0.5695 -0.3520  0.0195
 7045TIP3    H142626   0.499   6.530  14.836  0.2277 -0.1193 -0.2472
 7045TIP3    H242627   0.534   6.542  14.689 -1.7392 -0.0058 -0.7285
 7046TIP3   OH242628   1.896   4.895   2.528 -0.0409 -0.2267 -0.1668
 7046TIP3    H142629   1.937   4.828   2.582  0.8536 -0.0989 -0.6598
 7046TIP3    H242630   1.944   4.975   2.549  0.8631 -0.3246 -1.6919
 7047TIP3   OH242631   1.595   0.182  15.962 -0.4861  0.3572 -0.0846
 7047TIP3    H142632   1.565   0.267  15.994 -1.0535 -0.0930  0.6078
 7047TIP3    H242633   1.673   0.163  16.015 -0.6444  0.2235  0.0997
 7048TIP3   OH242634   5.163   3.598   3.686  0.0437  0.3984  0.0476
 7048TIP3    H142635   5.179   3.662   3.616 -0.0230  0.4499  0.0792
 7048TIP3    H242636   5.178   3.647   3.767  0.0855  0.3483  0.0704
 7049TIP3   OH242637   0.809   5.563  11.228  0.4459 -0.5255 -0.1114
 7049TIP3    H142638   0.781   5.477  11.196  0.4867 -0.0994 -1.3630
 7049TIP3    H242639   0.799   5.621  11.152  1.8426  0.2633  0.2695
 7050TIP3   OH242640   6.354   2.999   4.014 -0.0607 -0.5500  0.3949
 7050TIP3    H142641   6.411   3.070   3.983  1.0772 -1.7323 -0.3251
 7050TIP3    H242642   6.301   2.977   3.938 -0.0814 -0.7790  0.4760
 7051TIP3   OH242643   1.411   6.735  14.807 -0.0901 -0.2594 -0.1920
 7051TIP3    H142644   1.432   6.796  14.737 -0.5290 -0.4755 -0.5161
 7051TIP3    H242645   1.327   6.696  14.781  0.5067 -1.5048 -0.3385
 7052TIP3   OH242646   3.888   6.250   4.547 -0.0969  0.6474  0.6681
 7052TIP3    H142647   3.941   6.256   4.467  0.8643  0.6092  1.2820
 7052TIP3    H242648   3.809   6.301   4.527 -0.1779  0.0896 -0.5327
 7053TIP3   OH242649   3.698   2.056   6.188  0.1538 -0.8930 -0.4208
 7053TIP3    H142650   3.651   2.136   6.211 -0.6522 -1.0706 -1.3807
 7053TIP3    H242651   3.643   1.985   6.221 -0.7253 -1.1326 -2.2763
 7054TIP3   OH242652   4.663   6.290   4.372  0.1658  0.0927 -0.1297
 7054TIP3    H142653   4.756   6.273   4.357 -0.1847  0.1673 -2.8946
 7054TIP3    H242654   4.622   6.203   4.373  0.1970  0.0792  0.7277
 7055TIP3   OH242655   5.714   0.012   1.508  0.2659 -0.1418 -0.4665
 7055TIP3    H142656   5.717  -0.047   1.433  1.2741 -0.5707 -0.0993
 7055TIP3    H242657   5.754  -0.037   1.579  0.2738  0.6476  0.0831
 7056TIP3   OH242658   6.218   5.354  14.005 -0.2211 -0.2142 -0.0473
 7056TIP3    H142659   6.185   5.335  13.918 -0.7044 -1.5505  0.4119
 7056TIP3    H242660   6.313   5.359  13.994 -0.3812  1.9260 -1.0423
 7057TIP3   OH242661   0.437   5.825   2.631 -0.4844  0.2201  0.2763
 7057TIP3    H142662   0.455   5.886   2.559  1.0160 -0.8162 -0.2900
 7057TIP3    H242663   0.398   5.749   2.588 -0.8429  0.1347  0.7483
 7058TIP3   OH242664   0.508   6.111   0.012 -0.2353 -0.5976 -0.6910
 7058TIP3    H142665   0.548   6.161  -0.060 -0.3582  0.2811 -0.1581
 7058TIP3    H242666   0.418   6.098  -0.017 -1.7898  3.8773  1.2051
 7059TIP3   OH242667   3.607   3.201  12.608 -0.3557 -0.0535 -0.4791
 7059TIP3    H142668   3.663   3.125  12.590 -1.6837 -1.2184  0.1628
 7059TIP3    H242669   3.554   3.175  12.683  0.6401  2.3279  1.1874
 7060TIP3   OH242670   0.283   1.111  13.250 -0.4539 -0.1769  0.0395
 7060TIP3    H142671   0.274   1.130  13.156 -0.0496 -1.0381 -0.1831
 7060TIP3    H242672   0.336   1.183  13.283  0.3759 -0.4633 -0.6265
 7061TIP3   OH242673   1.539   0.426  13.015  0.3236  0.4791  0.0634
 7061TIP3    H142674   1.620   0.405  12.969  0.1972  1.1562 -0.4880
 7061TIP3    H242675   1.472   0.425  12.947 -0.4241 -1.6190  0.7629
 7062TIP3   OH242676   4.233   3.608  12.936  0.1033 -0.0214  0.7923
 7062TIP3    H142677   4.237   3.584  12.844 -2.6225  1.1431  0.2718
 7062TIP3    H242678   4.324   3.627  12.960  0.7756  0.7193 -1.9625
 7063TIP3   OH242679   4.543   6.704  13.638  0.3374 -0.3374  0.4881
 7063TIP3    H142680   4.607   6.651  13.686  2.2968 -0.9879 -2.5485
 7063TIP3    H242681   4.577   6.793  13.642  1.3176 -0.6355 -0.8800
 7064TIP3   OH242682   6.005   5.244  14.686 -1.1569 -0.7680 -0.1814
 7064TIP3    H142683   6.077   5.293  14.724 -2.6235  0.7167  0.8337
 7064TIP3    H242684   6.044   5.199  14.611  0.7044  0.3621  0.0328
 7065TIP3   OH242685   6.323   3.601  12.303  0.4252 -0.4200 -1.1900
 7065TIP3    H142686   6.381   3.548  12.358  0.2086 -0.5479 -1.0850
 7065TIP3    H242687   6.381   3.669  12.266  0.5618 -0.2918 -0.7513
 7066TIP3   OH242688   5.274   6.357   1.612 -0.1379  0.5032 -0.7110
 7066TIP3    H142689   5.215   6.426   1.645 -1.8111 -1.2854  0.2867
 7066TIP3    H242690   5.346   6.404   1.572 -0.4107  2.8696  1.3061
 7067TIP3   OH242691   6.655   6.090   5.268 -0.4433 -0.0257 -0.6706
 7067TIP3    H142692   6.741   6.121   5.240  0.1614  0.8282  1.8707
 7067TIP3    H242693   6.600   6.168   5.269 -0.7937 -0.2674 -0.6701
 7068TIP3   OH242694   0.677   0.730  14.418  0.1445 -1.1135  0.1037
 7068TIP3    H142695   0.691   0.645  14.460 -0.4594 -0.7463  1.0988
 7068TIP3    H242696   0.715   0.721  14.331  0.8230 -2.1340  0.4912
 7069TIP3   OH242697   0.676   2.193  15.717  0.0224 -0.0735  0.5024
 7069TIP3    H142698   0.628   2.170  15.638  1.5242 -0.4296 -0.3463
 7069TIP3    H242699   0.709   2.282  15.700 -0.6596  0.3314  1.2408
 7070TIP3   OH242700   3.854   5.394   1.413  0.2976  0.2135  0.4589
 7070TIP3    H142701   3.769   5.352   1.427 -0.0266  0.5267 -0.5023
 7070TIP3    H242702   3.848   5.477   1.461  0.5500 -0.3267  1.4663
 7071TIP3   OH242703   2.853   4.835  13.510  0.7209 -0.0761 -0.3508
 7071TIP3    H142704   2.863   4.740  13.509  2.3123  0.0316  0.7866
 7071TIP3    H242705   2.842   4.860  13.418 -0.8496 -1.4315 -0.5680
 7072TIP3   OH242706   0.381   3.078   2.200  0.4179 -0.4171  0.7706
 7072TIP3    H142707   0.433   3.001   2.220  0.8338 -0.4349 -0.2928
 7072TIP3    H242708   0.391   3.090   2.105  0.3733  0.9500  0.9133
 7073TIP3   OH242709   4.012   2.550   2.021 -0.8401  0.2754 -0.2077
 7073TIP3    H142710   4.012   2.612   1.949  1.2121  0.4353 -0.1342
 7073TIP3    H242711   3.987   2.467   1.982 -2.4781  0.8900 -0.5284
 7074TIP3   OH242712   5.051   4.480  12.760  0.3706  0.0573  0.1123
 7074TIP3    H142713   4.998   4.417  12.808  1.2049 -0.2921  0.6044
 7074TIP3    H242714   5.107   4.520  12.827  0.0680  1.1003 -0.2409
 7075TIP3   OH242715   2.402   6.508   3.922 -0.5269  0.0281  0.7946
 7075TIP3    H142716   2.344   6.566   3.972 -0.8711 -0.7761  1.3419
 7075TIP3    H242717   2.470   6.567   3.888 -0.3686  0.6293  2.0816
 7076TIP3   OH242718   3.320   6.086  15.397 -0.2488 -0.0032  0.2109
 7076TIP3    H142719   3.246   6.144  15.414 -1.8540 -1.7821 -0.2622
 7076TIP3    H242720   3.357   6.067  15.483  1.3725  2.9127  0.2622
 7077TIP3   OH242721   4.194   4.365   2.345  0.0260 -0.0731 -0.2468
 7077TIP3    H142722   4.193   4.459   2.326 -2.1457  0.2919  1.3716
 7077TIP3    H242723   4.283   4.337   2.323 -0.1373  1.6719 -3.8094
 7078TIP3   OH242724   4.442   4.743  17.011  0.0027  0.0482  0.1425
 7078TIP3    H142725   4.508   4.688  16.968 -1.1937 -1.7378  0.4911
 7078TIP3    H242726   4.474   4.833  16.999  1.2452 -0.5967 -1.7783
 7079TIP3   OH242727   3.108   6.484  13.611  0.3726  0.5773  0.2686
 7079TIP3    H142728   3.156   6.408  13.643  1.5414  0.8787 -0.7019
 7079TIP3    H242729   3.170   6.531  13.556 -1.5450 -0.0658 -2.7039
 7080TIP3   OH242730   3.150   6.244  16.486  0.2219 -0.3732  0.6343
 7080TIP3    H142731   3.128   6.319  16.542  0.6214 -0.6459  1.1603
 7080TIP3    H242732   3.234   6.213  16.520  0.5581 -0.4259 -0.2446
 7081TIP3   OH242733   2.403   4.956  17.216 -0.2236  0.9497  0.3306
 7081TIP3    H142734   2.474   4.954  17.150 -0.4682  0.8736  0.0675
 7081TIP3    H242735   2.391   4.864  17.240 -3.1574  0.3004 -2.8056
 7082TIP3   OH242736   6.304   2.057   2.949  0.2581 -0.0386 -0.4128
 7082TIP3    H142737   6.320   2.075   3.042 -0.3952  0.2865 -0.3633
 7082TIP3    H242738   6.321   2.140   2.905 -1.4626  0.3941 -0.3324
 7083TIP3   OH242739   4.048   4.984  11.391  0.5910 -0.2322  0.0068
 7083TIP3    H142740   4.107   4.910  11.382  1.2523  0.3613 -0.6839
 7083TIP3    H242741   3.985   4.957  11.458  0.7055 -1.4801 -0.3688
 7084TIP3   OH242742   1.858   3.774  14.990 -0.4578 -0.3475  0.4682
 7084TIP3    H142743   1.868   3.853  15.044  1.3631 -0.0100 -0.2888
 7084TIP3    H242744   1.948   3.749  14.967 -1.1053 -1.4463 -1.0374
 7085TIP3   OH242745   0.489   1.853   6.155  0.1481  0.0446  0.2660
 7085TIP3    H142746   0.421   1.820   6.215 -0.7530 -1.5425 -1.5454
 7085TIP3    H242747   0.568   1.805   6.181 -0.8117 -2.6401 -1.3643
 7086TIP3   OH242748   4.473   6.354  15.351  0.0376  0.4177  0.2194
 7086TIP3    H142749   4.447   6.406  15.427 -0.8008 -2.9157  2.4640
 7086TIP3    H242750   4.399   6.362  15.290 -1.5273 -0.5097  1.8872
 7087TIP3   OH242751   5.617   1.807  14.130  1.3087  0.3820  0.0073
 7087TIP3    H142752   5.580   1.736  14.078  0.8213  1.0516 -0.5815
 7087TIP3    H242753   5.708   1.813  14.101  1.2302  0.2872 -0.2664
 7088TIP3   OH242754   6.327   1.387   2.913  0.1403 -0.2148 -0.0409
 7088TIP3    H142755   6.277   1.357   2.989  0.8374  1.7657  1.2736
 7088TIP3    H242756   6.411   1.341   2.920  0.5280  0.6056  0.9230
 7089TIP3   OH242757   3.974   0.003   0.147 -0.3757  0.0338  0.3591
 7089TIP3    H142758   4.030   0.020   0.072  1.6280 -2.5126  1.1379
 7089TIP3    H242759   4.018   0.045   0.220 -0.4472 -0.4099  0.6636
 7090TIP3   OH242760   3.272   2.457  15.122 -0.0579  0.3138  0.2060
 7090TIP3    H142761   3.278   2.463  15.027  0.9863  1.3795  0.3100
 7090TIP3    H242762   3.295   2.366  15.142  0.4758  0.2820 -0.5179
 7091TIP3   OH242763   2.593   6.609  14.043 -0.2256  0.2086  0.6842
 7091TIP3    H142764   2.570   6.593  14.134 -2.2397 -0.9850  0.0269
 7091TIP3    H242765   2.518   6.655  14.006 -0.1713 -0.7610 -0.7374
 7092TIP3   OH242766   4.279   2.812   2.578  0.2332 -0.6742  0.1972
 7092TIP3    H142767   4.229   2.731   2.583  0.9738 -1.1059  0.8684
 7092TIP3    H242768   4.317   2.822   2.665 -0.2582  0.6679  0.2700
 7093TIP3   OH242769   0.305   3.496  11.760  0.0165 -0.5180  0.5274
 7093TIP3    H142770   0.308   3.552  11.683 -0.6649 -1.1529  0.0238
 7093TIP3    H242771   0.213   3.469  11.766 -0.3433  0.9291  2.5960
 7094TIP3   OH242772   6.145   2.299   4.871 -0.7197  0.3663 -0.1354
 7094TIP3    H142773   6.086   2.361   4.828 -1.0526  1.3021  1.5680
 7094TIP3    H242774   6.188   2.253   4.799  0.7915  3.6963 -1.5906
 7095TIP3   OH242775   1.257   2.212  16.904 -0.3975  0.1613 -0.3193
 7095TIP3    H142776   1.197   2.194  16.976 -0.2374 -0.4016 -0.3193
 7095TIP3    H242777   1.339   2.169  16.929  0.4779  2.1176  0.3456
 7096TIP3   OH242778   5.540   3.467   4.593 -0.5402 -0.5179 -0.4522
 7096TIP3    H142779   5.596   3.488   4.519 -1.5823  0.1816 -1.0814
 7096TIP3    H242780   5.598   3.428   4.658  0.5708 -0.2264 -1.2505
 7097TIP3   OH242781   1.498   3.971  16.587 -0.0539  0.1091 -0.6306
 7097TIP3    H142782   1.579   3.970  16.537  0.6572 -1.1549  0.4801
 7097TIP3    H242783   1.448   3.896  16.554 -0.4436  0.4232 -0.7705
 7098TIP3   OH242784   1.638   3.533  15.293 -0.1863  0.4051  0.0671
 7098TIP3    H142785   1.561   3.494  15.333  0.1330 -0.0822  0.2156
 7098TIP3    H242786   1.634   3.506  15.202 -0.2618  0.4950  0.0433
 7099TIP3   OH242787   5.330   1.253   4.662  0.4895  0.2895 -0.6227
 7099TIP3    H142788   5.248   1.224   4.702  2.0899 -2.4766  1.0506
 7099TIP3    H242789   5.377   1.297   4.733  1.6771 -0.9862 -0.5706
 7100TIP3   OH242790   0.945   3.207  16.263  0.5496 -0.0785  0.6209
 7100TIP3    H142791   1.017   3.212  16.200 -0.1838  0.8500 -0.1830
 7100TIP3    H242792   0.936   3.113  16.281  1.6479 -0.2446  0.3924
 7101TIP3   OH242793   2.523   6.437   4.591 -0.1581 -0.9459  0.0122
 7101TIP3    H142794   2.520   6.525   4.629  2.5341 -1.4073  1.5639
 7101TIP3    H242795   2.481   6.447   4.506  0.5433  2.0166 -0.1297
 7102TIP3   OH242796   6.682   1.187   5.043  0.1079  0.2122  0.0568
 7102TIP3    H142797   6.600   1.212   5.000  1.3748 -0.7880 -3.2233
 7102TIP3    H242798   6.706   1.104   5.003  1.5319 -0.7731  2.7320
 7103TIP3   OH242799   2.731   6.346  13.037 -1.0191  0.6237  0.4831
 7103TIP3    H142800   2.720   6.436  13.065 -2.7461  0.4843  0.3583
 7103TIP3    H242801   2.753   6.351  12.944  0.8894  0.9470  0.9084
 7104TIP3   OH242802   1.076   2.360   0.709 -0.3444  0.1662 -0.0663
 7104TIP3    H142803   1.042   2.270   0.710 -0.3951  0.1693  1.3289
 7104TIP3    H242804   1.074   2.386   0.617  0.8505 -1.6940 -0.6784
 7105TIP3   OH242805   5.641   3.751  14.901 -0.1326 -0.2003  0.3095
 7105TIP3    H142806   5.570   3.705  14.945  0.3164 -0.6712  0.5567
 7105TIP3    H242807   5.710   3.759  14.967  0.8034 -1.4763 -0.4546
 7106TIP3   OH242808   4.115   3.017   4.845 -0.4617 -0.1586 -0.5820
 7106TIP3    H142809   4.188   2.970   4.885 -1.3399 -2.7702 -1.7622
 7106TIP3    H242810   4.064   3.051   4.918 -0.4357 -2.2095  0.4548
 7107TIP3   OH242811   4.581   6.120   5.522  0.3574  0.9522 -0.3421
 7107TIP3    H142812   4.657   6.075   5.559 -0.1327  1.3961  1.3293
 7107TIP3    H242813   4.506   6.070   5.556 -0.1247  0.4178 -2.1033
 7108TIP3   OH242814   2.287   1.639  12.030  0.2789 -0.1315 -0.0442
 7108TIP3    H142815   2.342   1.621  12.106  1.0770  0.3278 -0.5001
 7108TIP3    H242816   2.348   1.641  11.957 -0.4125 -0.0480 -0.6262
 7109TIP3   OH242817   2.976   6.497  15.591 -0.0875  0.3761  0.9246
 7109TIP3    H142818   2.994   6.515  15.683 -1.0364  1.4499  0.9165
 7109TIP3    H242819   2.890   6.537  15.575 -0.8483 -1.4988  0.0731
 7110TIP3   OH242820   0.593   1.803  13.472  0.3133 -0.3273  0.2941
 7110TIP3    H142821   0.538   1.733  13.509  0.0226 -0.5701 -0.5749
 7110TIP3    H242822   0.557   1.818  13.385  2.0053 -0.9325 -0.5558
 7111TIP3   OH242823   3.213   2.718   1.979 -0.3936 -0.4650 -0.1687
 7111TIP3    H142824   3.159   2.779   1.929  0.8656  0.2078 -0.7640
 7111TIP3    H242825   3.297   2.717   1.932  0.4266 -0.7329  1.2615
 7112TIP3   OH242826   0.942   2.299  15.488 -0.8753  0.0062  0.2366
 7112TIP3    H142827   0.941   2.345  15.404  1.4202 -0.4046 -0.0945
 7112TIP3    H242828   0.870   2.337  15.538 -2.4688  0.0842 -1.9872
 7113TIP3   OH242829   1.920   6.618   5.499  0.4671 -0.7352  0.7889
 7113TIP3    H142830   1.965   6.695   5.533  2.5377 -1.7216  0.4510
 7113TIP3    H242831   1.842   6.653   5.456  0.4710  0.9944  2.0821
 7114TIP3   OH242832   0.602   5.166   2.129 -0.5219  0.3416 -1.0785
 7114TIP3    H142833   0.634   5.248   2.167 -0.4900 -0.2651  0.2843
 7114TIP3    H242834   0.680   5.112   2.120 -0.7666 -0.1802 -0.2385
 7115TIP3   OH242835   3.035   1.632  12.191  0.2164 -0.4933  0.2507
 7115TIP3    H142836   3.025   1.608  12.283  1.9241  0.7937  0.8286
 7115TIP3    H242837   3.080   1.716  12.193  0.5078 -0.5494 -1.7715
 7116TIP3   OH242838   3.690   5.846  13.861  0.4334  0.2777  0.6001
 7116TIP3    H142839   3.714   5.775  13.801 -0.0353 -0.3156  1.1036
 7116TIP3    H242840   3.749   5.835  13.935 -1.1307 -1.0243  1.7260
 7117TIP3   OH242841   2.176   1.319  10.867  0.5953  0.4463  0.2694
 7117TIP3    H142842   2.223   1.236  10.871 -0.0655 -0.0171 -1.0560
 7117TIP3    H242843   2.089   1.298  10.902  0.7615  0.8616  0.9650
 7118TIP3   OH242844   2.130   3.177   2.160 -0.8017  0.3541  0.1784
 7118TIP3    H142845   2.117   3.249   2.098 -0.3515 -0.1743 -0.5438
 7118TIP3    H242846   2.222   3.154   2.150 -0.8620 -0.0957  0.6572
 7119TIP3   OH242847   3.891   0.315  17.100 -0.1036 -0.2048  0.5604
 7119TIP3    H142848   3.924   0.365  17.026  1.5714  0.4982  1.7237
 7119TIP3    H242849   3.886   0.378  17.172 -0.6814 -1.0852  1.3198
 7120TIP3   OH242850   2.547   2.279  12.958  0.5279 -0.5162  0.0512
 7120TIP3    H142851   2.505   2.280  13.044 -0.7902  0.5424 -0.5670
 7120TIP3    H242852   2.591   2.194  12.953  0.9760 -0.4341  1.9144
 7121TIP3   OH242853   4.646   2.957   4.816 -0.0695 -0.0945 -0.2813
 7121TIP3    H142854   4.653   3.050   4.795  0.5098  0.1014  0.6958
 7121TIP3    H242855   4.722   2.917   4.774 -0.1771 -0.0854 -0.4856
 7122TIP3   OH242856   0.586   6.678   0.272  0.0738 -0.2256  0.1154
 7122TIP3    H142857   0.629   6.761   0.254 -0.0551 -0.0892  0.4363
 7122TIP3    H242858   0.568   6.641   0.185  0.7867 -0.2618 -0.0241
 7123TIP3   OH242859   4.973   4.563  14.036 -1.1029 -0.0015 -0.0805
 7123TIP3    H142860   4.898   4.608  14.076 -0.2496  1.2955  0.1145
 7123TIP3    H242861   4.948   4.471  14.036 -2.8090  0.4205 -0.2498
 7124TIP3   OH242862   4.622   5.494   0.233  0.5986 -0.1250  0.2550
 7124TIP3    H142863   4.712   5.501   0.199  0.8644 -1.5793  0.5649
 7124TIP3    H242864   4.633   5.452   0.318 -0.4637 -1.7127 -0.3503
 7125TIP3   OH242865   6.472   6.128  11.518 -0.1291 -1.0107 -0.1388
 7125TIP3    H142866   6.505   6.095  11.601  0.5843  2.1575  0.9902
 7125TIP3    H242867   6.549   6.133  11.462  0.6962  2.3207  1.0708
 7126TIP3   OH242868   6.102   0.304  16.289 -0.0096  0.3274 -0.0360
 7126TIP3    H142869   6.018   0.289  16.333  0.0951  1.2190  0.5205
 7126TIP3    H242870   6.102   0.244  16.215 -0.6878 -0.4237  0.5498
 7127TIP3   OH242871   1.167   3.652   6.653 -0.2853 -0.3001 -0.3107
 7127TIP3    H142872   1.122   3.735   6.639 -1.2004 -0.5587  0.8940
 7127TIP3    H242873   1.178   3.646   6.748  1.4982 -0.6884 -0.4968
 7128TIP3   OH242874   4.188   0.180  14.744  0.0307 -0.1412  0.6872
 7128TIP3    H142875   4.121   0.112  14.747 -0.0577 -0.1660 -0.8641
 7128TIP3    H242876   4.269   0.135  14.767 -0.2855 -0.3833  1.3477
 7129TIP3   OH242877   6.239   0.794  13.770 -0.3887  0.2553  0.0057
 7129TIP3    H142878   6.151   0.830  13.768 -0.5736 -0.1493  0.4176
 7129TIP3    H242879   6.265   0.799  13.862  0.3156  1.0607 -0.2296
 7130TIP3   OH242880   4.785   6.798  16.582 -0.7592 -0.0466  0.5220
 7130TIP3    H142881   4.714   6.858  16.556 -0.8334 -0.4816 -0.3126
 7130TIP3    H242882   4.789   6.734  16.511 -1.9681 -2.2000  2.2529
 7131TIP3   OH242883   5.896   4.976   6.325 -0.0059 -0.1098 -0.4828
 7131TIP3    H142884   5.908   5.065   6.360  0.5902 -0.5888  0.5902
 7131TIP3    H242885   5.816   4.944   6.368 -0.5107  0.0773 -1.2597
 7132TIP3   OH242886   5.674   5.594   2.570  0.1292  0.2603 -0.4318
 7132TIP3    H142887   5.700   5.525   2.509  0.6349  0.0670 -0.0080
 7132TIP3    H242888   5.714   5.674   2.534  1.1735 -0.0000  0.1014
 7133TIP3   OH242889   0.403   3.222  13.163  0.1898  0.0740 -0.4090
 7133TIP3    H142890   0.472   3.240  13.098 -2.3379  0.4600 -3.2041
 7133TIP3    H242891   0.355   3.305  13.169 -0.0746 -0.1805  1.4944
 7134TIP3   OH242892   6.623   4.335   5.079 -0.2089 -0.1331  0.1807
 7134TIP3    H142893   6.671   4.356   5.159 -0.3216  0.9247 -0.0166
 7134TIP3    H242894   6.680   4.364   5.008 -1.1543  1.2512 -0.0529
 7135TIP3   OH242895   2.769   1.203   2.105  0.6437  1.0049  0.2238
 7135TIP3    H142896   2.808   1.271   2.160  2.7207 -2.4443  3.4433
 7135TIP3    H242897   2.837   1.180   2.042  0.3476  1.1341 -0.1510
 7136TIP3   OH242898   6.547   6.645   1.491 -0.3687 -0.3268 -0.2604
 7136TIP3    H142899   6.474   6.692   1.530  0.7228  2.9650 -1.8281
 7136TIP3    H242900   6.507   6.590   1.423 -1.5676 -0.5132  0.5782
 7137TIP3   OH242901   1.588   0.874   2.198  0.0203  0.3839  0.2984
 7137TIP3    H142902   1.673   0.917   2.187  0.4617  0.4984  3.2770
 7137TIP3    H242903   1.609   0.781   2.206 -0.1704  0.3621  0.5554
 7138TIP3   OH242904   0.301   0.786  14.578  0.0224 -0.3846 -0.3285
 7138TIP3    H142905   0.210   0.790  14.609 -0.1630 -2.8628 -0.3420
 7138TIP3    H242906   0.354   0.796  14.657 -0.2751  0.2404 -0.2020
 7139TIP3   OH242907   5.298   0.630   6.737 -0.2836  0.2768  0.0584
 7139TIP3    H142908   5.287   0.697   6.805 -0.3442  1.0762 -0.7126
 7139TIP3    H242909   5.235   0.655   6.669 -0.3694 -0.6291 -0.1989
 7140TIP3   OH242910   4.247   6.037   5.535  0.1537 -0.5366 -0.2438
 7140TIP3    H142911   4.203   6.107   5.583  0.0858 -0.1473 -0.8699
 7140TIP3    H242912   4.176   5.983   5.501  0.1939 -0.5955 -0.2350
 7141TIP3   OH242913   0.002   3.555   4.914  0.6840 -0.3681  0.8148
 7141TIP3    H142914   0.034   3.464   4.912  0.8490 -0.2948 -0.1401
 7141TIP3    H242915   0.061   3.599   4.976  0.6762 -0.8790  1.1985
 7142TIP3   OH242916   2.267   3.726  11.668 -0.1873 -0.1870  0.8179
 7142TIP3    H142917   2.175   3.701  11.675 -0.4617  0.9757  1.6288
 7142TIP3    H242918   2.296   3.736  11.759  0.0856  1.7069  0.5565
 7143TIP3   OH242919   3.535   4.677  12.545 -0.4017  0.1469 -0.2436
 7143TIP3    H142920   3.514   4.609  12.481  1.0690  0.4099 -1.0412
 7143TIP3    H242921   3.485   4.653  12.623 -0.0977 -1.7224 -0.5875
 7144TIP3   OH242922   0.835   3.513   0.375  0.6239 -0.4286 -0.1743
 7144TIP3    H142923   0.897   3.567   0.325  1.6300 -1.2530  0.1568
 7144TIP3    H242924   0.751   3.527   0.331  0.3659  2.9899  1.0592
 7145TIP3   OH242925   3.343   3.431  15.268 -0.3032 -0.6649 -0.1470
 7145TIP3    H142926   3.357   3.350  15.220  1.5364  0.6062 -1.9350
 7145TIP3    H242927   3.421   3.484  15.249 -1.9446  1.9696  0.0068
 7146TIP3   OH242928   1.771   5.143  13.037 -0.1614  0.5912  0.0488
 7146TIP3    H142929   1.702   5.192  12.991 -1.4902 -0.6711  0.6130
 7146TIP3    H242930   1.763   5.169  13.128 -1.5628 -1.3246  0.5418
 7147TIP3   OH242931   1.920   5.603  11.679  0.4493 -0.4129  0.0319
 7147TIP3    H142932   1.934   5.526  11.735  1.6334 -1.0790 -1.1318
 7147TIP3    H242933   1.928   5.678  11.739 -0.3500 -1.1538  1.1096
 7148TIP3   OH242934   2.950   3.980  14.064  0.4072 -0.8009  0.4746
 7148TIP3    H142935   3.033   3.935  14.081  1.1287  0.3048  0.0125
 7148TIP3    H242936   2.966   4.029  13.983  0.9059  3.1575  2.7442
 7149TIP3   OH242937   2.400   4.769  14.594 -0.4173  0.3119 -0.2790
 7149TIP3    H142938   2.442   4.820  14.525 -2.6576 -0.3015 -2.2510
 7149TIP3    H242939   2.472   4.732  14.645  1.3242  1.2324 -1.9693
 7150TIP3   OH242940   4.089   6.730   5.944 -1.2903  0.2186 -0.0433
 7150TIP3    H142941   3.998   6.704   5.930 -1.5956  1.3160 -0.2148
 7150TIP3    H242942   4.086   6.781   6.025 -0.5176 -1.2093  0.9218
 7151TIP3   OH242943   2.962   6.703   0.135  0.2101 -0.2358 -0.2481
 7151TIP3    H142944   2.885   6.659   0.099 -0.3931 -0.1632  0.8966
 7151TIP3    H242945   2.926   6.763   0.201  1.3870 -1.9492  2.0748
 7152TIP3   OH242946   0.435   5.870  14.858  0.3052  0.2372  0.3797
 7152TIP3    H142947   0.480   5.833  14.935 -1.8046  0.0863  1.6084
 7152TIP3    H242948   0.398   5.952  14.890 -2.0857 -0.6638  0.0710
 7153TIP3   OH242949   3.639   3.845   5.863 -0.2883 -0.3062  0.7232
 7153TIP3    H142950   3.625   3.861   5.957  1.2552 -0.2600  0.9658
 7153TIP3    H242951   3.700   3.913   5.836  1.7094 -2.1161  0.4088
 7154TIP3   OH242952   5.333   1.524  15.024  0.2334 -0.2036 -0.0467
 7154TIP3    H142953   5.380   1.540  15.105  0.0551 -0.5075  0.1195
 7154TIP3    H242954   5.384   1.457  14.979  0.0356 -0.4358  0.0716
 7155TIP3   OH242955   0.537   5.342  11.156 -0.0455 -0.6369  0.1693
 7155TIP3    H142956   0.565   5.251  11.150  0.7571 -0.5201  1.6173
 7155TIP3    H242957   0.603   5.384  11.211 -0.6942  0.7035 -0.0192
 7156TIP3   OH242958   0.010   6.683  11.395 -0.1090  0.0114 -0.2331
 7156TIP3    H142959   0.096   6.687  11.352  0.6367  0.1807  1.1995
 7156TIP3    H242960   0.030   6.683  11.489 -1.7091  0.9443  0.1570
 7157TIP3   OH242961   3.321   0.102   1.251 -0.5158 -0.1971 -0.1363
 7157TIP3    H142962   3.358   0.189   1.239 -0.3976 -0.1506  0.4878
 7157TIP3    H242963   3.388   0.042   1.217  0.2235 -0.1179  1.0859
 7158TIP3   OH242964   5.493   0.120   1.287 -0.3724  0.6498 -0.2217
 7158TIP3    H142965   5.503   0.100   1.194 -0.9351  2.0842 -0.6218
 7158TIP3    H242966   5.498   0.216   1.291 -2.2254  0.7471  0.9530
 7159TIP3   OH242967   4.190   3.555  11.500 -0.2895  0.0227  0.6476
 7159TIP3    H142968   4.097   3.555  11.475 -0.2696 -0.4395  0.5689
 7159TIP3    H242969   4.219   3.644  11.481 -0.6141  0.0550  0.2827
 7160TIP3   OH242970   4.503   2.138   4.877 -0.5639 -0.0164 -0.7144
 7160TIP3    H142971   4.580   2.145   4.934 -1.0501  1.8448 -0.1964
 7160TIP3    H242972   4.469   2.050   4.893  0.2701 -0.1313  0.6150
 7161TIP3   OH242973   1.366   1.920   0.389  0.0192  0.0103 -0.4496
 7161TIP3    H142974   1.445   1.882   0.426 -0.8227 -2.2151 -0.8187
 7161TIP3    H242975   1.326   1.968   0.461 -0.2992 -2.1664  0.9102
 7162TIP3   OH242976   1.286   4.973   1.705 -0.0103  0.1395 -0.3636
 7162TIP3    H142977   1.319   5.063   1.712  2.3463 -0.7474  1.1624
 7162TIP3    H242978   1.310   4.946   1.617 -0.1781  0.7756 -0.6152
 7163TIP3   OH242979   1.359   4.603   4.800  0.2613  0.1369 -0.2841
 7163TIP3    H142980   1.362   4.520   4.753  0.8874  0.2644 -0.4853
 7163TIP3    H242981   1.423   4.593   4.870 -2.4850 -1.0085  2.2254
 7164TIP3   OH242982   5.350   0.043  14.016 -0.6208  0.5704 -1.3633
 7164TIP3    H142983   5.274   0.086  14.054 -0.5069  1.0286 -1.6425
 7164TIP3    H242984   5.421   0.060  14.079 -0.9339 -0.5865 -0.6796
 7165TIP3   OH242985   2.488   0.357   3.040 -0.0707  0.4126  0.4292
 7165TIP3    H142986   2.500   0.267   3.012 -1.9291 -0.1622  1.3326
 7165TIP3    H242987   2.466   0.404   2.960  1.5703  0.2414 -0.1588
 7166TIP3   OH242988   0.323   0.671   3.408  0.1422  0.8239 -0.3469
 7166TIP3    H142989   0.367   0.698   3.328 -1.0076 -0.0731 -1.3024
 7166TIP3    H242990   0.236   0.711   3.402 -0.9376 -1.4607 -0.9034
 7167TIP3   OH242991   6.520   0.795   2.657 -0.2391  0.0946 -0.1064
 7167TIP3    H142992   6.547   0.823   2.744  0.4499 -1.7279  0.3106
 7167TIP3    H242993   6.509   0.876   2.607  1.4008  1.0747  1.0657
 7168TIP3   OH242994   3.668   0.954  14.510 -0.3054 -0.1668 -0.0499
 7168TIP3    H142995   3.724   1.016  14.462 -1.3195  1.9600  1.3278
 7168TIP3    H242996   3.619   0.908  14.442  2.4711 -1.5681 -1.2671
 7169TIP3   OH242997   1.653   6.594  14.317  0.0011  0.6110  0.5603
 7169TIP3    H142998   1.704   6.539  14.376 -0.1483  0.3703  0.4653
 7169TIP3    H242999   1.562   6.571  14.337 -0.0453 -1.5286 -1.6982
 7170TIP3   OH243000   1.133   2.518  15.713 -0.4389  0.0359 -0.2744
 7170TIP3    H143001   1.185   2.594  15.736  1.0803 -1.3194  1.0175
 7170TIP3    H243002   1.048   2.533  15.756  0.5165  0.1231  1.7028
 7171TIP3   OH243003   5.818   3.259  13.186  0.4137 -0.2321  0.7834
 7171TIP3    H143004   5.795   3.211  13.107  0.7002 -0.9214  1.1040
 7171TIP3    H243005   5.801   3.351  13.165  2.0178 -0.1982 -0.6644
 7172TIP3   OH243006   2.880   5.368  10.790  0.6945  0.4054 -0.1437
 7172TIP3    H143007   2.873   5.455  10.752 -0.3520  0.7899  0.8591
 7172TIP3    H243008   2.794   5.328  10.773  0.0885  0.6927  1.9578
 7173TIP3   OH243009   3.437   4.863  13.862 -0.3594  0.0536  0.5569
 7173TIP3    H143010   3.531   4.847  13.871 -0.3358  0.1400  0.4748
 7173TIP3    H243011   3.432   4.952  13.827 -0.4277 -0.4104 -0.6728
 7174TIP3   OH243012   0.734   4.510  11.884  0.1484 -0.3150 -0.5221
 7174TIP3    H143013   0.794   4.580  11.858 -1.1173  0.8565 -0.4125
 7174TIP3    H243014   0.685   4.488  11.805 -0.3013 -0.2081 -0.2805
 7175TIP3   OH243015   3.333   3.506   3.496 -0.6898  0.6920  0.0689
 7175TIP3    H143016   3.396   3.551   3.553 -1.2763  0.9386  0.5388
 7175TIP3    H243017   3.276   3.459   3.556  0.4615 -1.4794 -0.4534
 7176TIP3   OH243018   5.433   4.643  15.704 -0.9175  0.4817 -0.2467
 7176TIP3    H143019   5.390   4.724  15.730 -0.7910  0.4906 -0.0654
 7176TIP3    H243020   5.371   4.601  15.644 -0.5069  1.2355 -1.2160
 7177TIP3   OH243021   2.486   0.744  14.399  0.5127  0.3707  0.3892
 7177TIP3    H143022   2.578   0.761  14.418  1.0799 -0.7984 -1.1185
 7177TIP3    H243023   2.465   0.666  14.451 -0.2123  1.6879  2.1859
 7178TIP3   OH243024   2.120   6.120  15.215 -0.0150 -0.1419  0.0140
 7178TIP3    H143025   2.121   6.029  15.245  1.4889 -0.6562 -1.4187
 7178TIP3    H243026   2.028   6.138  15.194 -0.2708 -1.4771 -0.0784
 7179TIP3   OH243027   5.259   5.547  11.313 -0.1483  0.2246  1.0316
 7179TIP3    H143028   5.304   5.481  11.366 -0.5924  2.4660  4.5372
 7179TIP3    H243029   5.166   5.534  11.333 -0.5512 -0.1504 -0.9182
 7180TIP3   OH243030   4.779   1.055   1.959  0.6936 -0.1206  0.5441
 7180TIP3    H143031   4.830   0.978   1.934  0.4320  0.4411 -2.0074
 7180TIP3    H243032   4.696   1.045   1.912 -0.4928  0.3450  2.4435
 7181TIP3   OH243033   3.156   6.183  17.118  0.1306 -0.1082  0.0835
 7181TIP3    H143034   3.248   6.181  17.142  0.2902 -0.6487 -0.5390
 7181TIP3    H243035   3.115   6.115  17.172  0.2017 -0.2528 -0.0442
 7182TIP3   OH243036   5.938   1.715  17.111 -0.2569 -0.2564  0.1046
 7182TIP3    H143037   6.004   1.755  17.055  0.6283  0.0783  1.3548
 7182TIP3    H243038   5.856   1.756  17.085  0.1984  0.1964 -0.6490
 7183TIP3   OH243039   0.376   4.870   0.142  0.4594  0.2649 -0.2036
 7183TIP3    H143040   0.382   4.796   0.204  0.7397 -0.4098 -1.0173
 7183TIP3    H243041   0.288   4.863   0.106  0.8295 -0.3113 -1.0365
 7184TIP3   OH243042   3.016   1.224  16.437 -0.2140  0.1527  0.4635
 7184TIP3    H143043   2.924   1.197  16.435 -0.5074  1.1073 -0.6930
 7184TIP3    H243044   3.023   1.278  16.515 -1.3212  2.1123 -0.6925
 7185TIP3   OH243045   4.067   5.945   5.323 -0.0829  0.1181  0.2270
 7185TIP3    H143046   4.081   5.960   5.229  2.6940 -0.3696  0.4864
 7185TIP3    H243047   4.057   5.850   5.331 -5.0203  0.3714  0.0282
 7186TIP3   OH243048   1.640   2.813  15.323  0.0640  0.4845 -0.1989
 7186TIP3    H143049   1.607   2.723  15.312 -0.7450  0.3475  2.6770
 7186TIP3    H243050   1.714   2.804  15.384 -1.2277  1.9230  1.6683
 7187TIP3   OH243051   1.395   5.205  11.062 -0.7366 -0.4498  0.6135
 7187TIP3    H143052   1.327   5.258  11.104  0.0639  0.5622  0.6705
 7187TIP3    H243053   1.359   5.183  10.976 -0.5358  1.3803  0.0256
 7188TIP3   OH243054   2.691   1.440  11.728  0.1926  0.0599 -0.1561
 7188TIP3    H143055   2.601   1.471  11.737 -1.0060 -2.6432 -1.6268
 7188TIP3    H243056   2.709   1.446  11.634  2.4191  2.4917  0.3013
 7189TIP3   OH243057   1.746   0.932  12.220 -0.3459 -0.2888  0.1900
 7189TIP3    H143058   1.761   0.926  12.126  0.4160 -2.1791  0.3734
 7189TIP3    H243059   1.671   0.875  12.236 -0.0672 -0.4876  0.8043
 7190TIP3   OH243060   2.148   4.014   4.023  0.1131  0.0144 -0.1137
 7190TIP3    H143061   2.056   4.003   4.048  0.0233  0.8163 -0.0388
 7190TIP3    H243062   2.195   3.953   4.079 -0.5088 -1.6962 -1.3690
 7191TIP3   OH243063   3.506   2.216  15.731 -0.3231 -0.1330 -0.1154
 7191TIP3    H143064   3.598   2.220  15.705 -0.1739  0.8188  0.4900
 7191TIP3    H243065   3.509   2.205  15.826 -0.8013  1.8600  0.1635
 7192TIP3   OH243066   1.312   6.813   0.373  0.3580  0.0385 -0.3953
 7192TIP3    H143067   1.393   6.821   0.324  0.3806  2.3732 -0.0919
 7192TIP3    H243068   1.265   6.895   0.355 -0.8640 -0.2512  1.2590
 7193TIP3   OH243069   3.664   0.935   2.807  0.0292 -0.1844  0.1349
 7193TIP3    H143070   3.657   0.852   2.759 -0.4308  0.3407 -0.7391
 7193TIP3    H243071   3.623   0.916   2.891 -0.8635 -0.6211 -0.3762
 7194TIP3   OH243072   2.972   3.146   3.496  0.2320 -0.0958  0.3126
 7194TIP3    H143073   3.047   3.090   3.515  0.2676 -1.1822 -2.5125
 7194TIP3    H243074   3.008   3.235   3.495  0.8125 -0.2878  1.9253
 7195TIP3   OH243075   1.564   5.655   4.351  0.0481 -0.0045 -0.0176
 7195TIP3    H143076   1.522   5.672   4.435 -1.2311  1.2521 -0.8547
 7195TIP3    H243077   1.548   5.734   4.300  1.1808 -0.5587 -1.3031
 7196TIP3   OH243078   2.806   3.929   1.945 -0.3371 -0.7040  0.0923
 7196TIP3    H143079   2.715   3.897   1.938  0.3917 -3.3069  1.2587
 7196TIP3    H243080   2.803   3.997   2.012 -1.7630  1.0294 -1.5926
 7197TIP3   OH243081   6.709   6.736  14.067  0.6995  0.4549 -0.3075
 7197TIP3    H143082   6.676   6.659  14.113  1.4043 -1.7134 -3.1834
 7197TIP3    H243083   6.637   6.798  14.069 -0.8220 -1.2534 -0.0507
 7198TIP3   OH243084   4.228   6.669   4.720 -0.3031 -0.5069 -0.3082
 7198TIP3    H143085   4.180   6.651   4.639 -0.5704 -0.5006 -0.1522
 7198TIP3    H243086   4.162   6.665   4.789 -0.5996  2.0520 -0.3466
 7199TIP3   OH243087   2.989   4.023  12.310  0.2574 -0.1426  0.3285
 7199TIP3    H143088   2.950   4.047  12.394  1.4385  0.8892  0.6097
 7199TIP3    H243089   3.060   4.086  12.298  0.8247 -0.9883 -0.9073
 7200TIP3   OH243090   1.368   3.032  14.601 -0.2905  0.8143 -0.6720
 7200TIP3    H143091   1.429   3.004  14.669  0.2341  0.9844 -1.0665
 7200TIP3    H243092   1.285   3.045  14.648  0.5103  2.8090  0.3195
 7201TIP3   OH243093   1.298   0.765   0.745  0.0664 -0.1841  0.1062
 7201TIP3    H143094   1.336   0.851   0.729 -0.1385 -0.0403  0.3816
 7201TIP3    H243095   1.227   0.758   0.681 -1.1142  0.6199  1.2864
 7202TIP3   OH243096   3.520   2.294   0.086 -0.5479 -0.2577 -0.7795
 7202TIP3    H143097   3.465   2.354   0.136  2.1336  1.1384  0.7034
 7202TIP3    H243098   3.468   2.274   0.008 -2.7174  1.7136  0.0227
 7203TIP3   OH243099   1.060   0.832   3.114 -0.0429  0.1707 -0.1065
 7203TIP3    H143100   1.037   0.770   3.183  0.7075 -0.4469 -0.4016
 7203TIP3    H243101   1.122   0.785   3.059  0.3770  1.1154 -0.4611
 7204TIP3   OH243102   1.592   6.478  15.880  0.6723  0.0607 -0.7503
 7204TIP3    H143103   1.499   6.467  15.902  0.9354 -1.2215 -0.1557
 7204TIP3    H243104   1.594   6.556  15.824 -0.5992  0.8783  0.2501
 7205TIP3   OH243105   1.090   0.453  12.789 -0.6101  0.1040  0.3337
 7205TIP3    H143106   1.065   0.531  12.839  2.3596  1.4506 -0.0768
 7205TIP3    H243107   1.180   0.435  12.816 -1.0208 -2.9572  0.0381
 7206TIP3   OH243108   5.058   5.167   4.507 -0.2878  0.3846  0.3388
 7206TIP3    H143109   5.026   5.190   4.419 -0.1522 -1.5842 -0.2723
 7206TIP3    H243110   4.979   5.147   4.557 -0.2656 -0.6176 -0.0031
 7207TIP3   OH243111   3.006   1.326   1.221  0.2419 -0.6162 -0.6231
 7207TIP3    H143112   2.914   1.300   1.218 -0.5989  2.0608 -3.0342
 7207TIP3    H243113   3.019   1.355   1.311 -1.3518 -0.8909 -0.2646
 7208TIP3   OH243114   3.210   3.691   4.671  0.1094  0.1801 -0.3578
 7208TIP3    H143115   3.141   3.686   4.737  1.1636 -0.6531  0.7360
 7208TIP3    H243116   3.217   3.784   4.651  0.3285  0.5793  1.3776
 7209TIP3   OH243117   4.090   4.636  16.408  0.2603  0.4918 -0.4089
 7209TIP3    H143118   4.012   4.691  16.397 -0.4154 -0.1907  0.8058
 7209TIP3    H243119   4.065   4.551  16.370  0.3013  0.1847  0.2408
 7210TIP3   OH243120   3.411   3.859   4.382 -0.2537 -0.0891 -0.0567
 7210TIP3    H143121   3.394   3.951   4.360  1.3597  0.2111 -0.2287
 7210TIP3    H243122   3.410   3.857   4.478 -0.8157 -0.0058 -0.0595
 7211TIP3   OH243123   1.857   6.604  13.974  0.1075 -0.1570  0.2350
 7211TIP3    H143124   1.808   6.684  13.954  2.5885  1.6942  1.0727
 7211TIP3    H243125   1.945   6.635  13.994  0.5590 -2.8644  3.1422
 7212TIP3   OH243126   2.801   1.840  10.619  0.0862  0.0014 -0.1188
 7212TIP3    H143127   2.714   1.823  10.656 -0.7296  0.0440 -1.8892
 7212TIP3    H243128   2.799   1.933  10.594  0.7433  0.0725  0.0750
 7213TIP3   OH243129   5.577   1.361   5.189 -0.1666 -0.2623 -0.1100
 7213TIP3    H143130   5.649   1.418   5.160 -0.0141 -0.0518  0.6371
 7213TIP3    H243131   5.616   1.273   5.191  0.1947 -0.0941  0.6630
 7214TIP3   OH243132   1.183   0.776   6.272  0.1705 -0.3540  0.0192
 7214TIP3    H143133   1.238   0.843   6.313 -0.7445  1.1072 -1.0296
 7214TIP3    H243134   1.245   0.718   6.228  0.9058  1.5415 -1.5789
 7215TIP3   OH243135   4.944   3.907  16.381 -0.6089 -1.0540 -0.2825
 7215TIP3    H143136   4.903   3.877  16.462 -0.5316 -1.9421 -0.5681
 7215TIP3    H243137   4.967   3.827  16.334 -0.9150 -0.5480 -1.3211
 7216TIP3   OH243138   3.383   5.749   0.040 -0.4215  0.3403 -0.1742
 7216TIP3    H143139   3.401   5.788   0.125  1.1147  1.5732 -1.0112
 7216TIP3    H243140   3.380   5.823  -0.021 -2.5069 -0.4032 -1.0750
 7217TIP3   OH243141   0.402   4.195   3.646  0.4831 -0.2153  0.2085
 7217TIP3    H143142   0.342   4.267   3.624  0.2789 -0.0052  1.3670
 7217TIP3    H243143   0.410   4.200   3.741  0.9336 -1.3700  0.2368
 7218TIP3   OH243144   4.949   1.455  14.171  0.6013  0.5055 -0.1238
 7218TIP3    H143145   5.041   1.481  14.167  1.3239 -1.9109 -0.9983
 7218TIP3    H243146   4.909   1.495  14.094  0.9499  1.4120  0.1552
 7219TIP3   OH243147   6.638   3.885   4.221 -0.0521 -0.1099 -0.0487
 7219TIP3    H143148   6.560   3.936   4.244 -0.7528 -0.9818 -0.4346
 7219TIP3    H243149   6.605   3.815   4.165  1.0321 -0.4414 -0.2922
 7220TIP3   OH243150   2.012   3.158  12.591 -0.9010 -0.2543 -0.0454
 7220TIP3    H143151   2.056   3.221  12.648 -1.1936  0.6088 -0.7467
 7220TIP3    H243152   1.920   3.184  12.592 -0.7091  0.6854 -1.9881
 7221TIP3   OH243153   2.248   2.273  16.840  0.0742 -0.2986 -0.0164
 7221TIP3    H143154   2.338   2.242  16.850  0.3649  0.9176  1.5374
 7221TIP3    H243155   2.256   2.368  16.833 -0.9553 -0.3130 -2.3523
 7222TIP3   OH243156   0.562   5.847  16.207  0.1311 -0.0016 -0.2171
 7222TIP3    H143157   0.524   5.928  16.241  0.5140  0.0165  0.1617
 7222TIP3    H243158   0.500   5.779  16.234 -0.0407  0.1248 -0.2861
 7223TIP3   OH243159   3.744   3.741  16.273  0.6243 -0.2400 -0.0557
 7223TIP3    H143160   3.723   3.833  16.260  2.3310  0.2452  0.2987
 7223TIP3    H243161   3.771   3.710  16.186  2.0921  0.2064  0.2071
 7224TIP3   OH243162   4.035   6.353   3.830  0.7301  0.6445 -0.2856
 7224TIP3    H143163   4.056   6.351   3.737  1.2276 -0.1176 -0.1659
 7224TIP3    H243164   3.982   6.275   3.845 -0.2118  1.2941 -0.1102
 7225TIP3   OH243165   3.330   1.452   0.059 -0.4169  0.7387  0.0595
 7225TIP3    H143166   3.331   1.544   0.086  1.0425  1.1918 -1.3845
 7225TIP3    H243167   3.410   1.415   0.099 -0.2785  0.4488 -0.4787
 7226TIP3   OH243168   2.119   1.034  12.362  0.0116 -0.4779  0.0738
 7226TIP3    H143169   2.170   1.080  12.295  0.4939 -1.7611 -0.4698
 7226TIP3    H243170   2.132   1.085  12.441 -0.3855  0.9526 -0.7328
 7227TIP3   OH243171   0.985   2.230  16.480  0.1380  0.0591  0.5375
 7227TIP3    H143172   0.901   2.270  16.503  0.4044  2.5486 -2.1614
 7227TIP3    H243173   0.972   2.136  16.492 -3.4403  0.2424 -0.8265
 7228TIP3   OH243174   4.270   5.952  14.111 -0.0541  0.2975  0.0536
 7228TIP3    H143175   4.351   5.901  14.109 -0.0614  0.2446  0.6880
 7228TIP3    H243176   4.262   5.989  14.024 -0.1459 -0.9361 -0.4789
 7229TIP3   OH243177   4.554   6.381  12.016 -0.2598 -0.2473 -0.5734
 7229TIP3    H143178   4.640   6.341  12.005 -1.2715 -3.1659  1.0079
 7229TIP3    H243179   4.550   6.449  11.949  2.9982 -0.4209 -1.0937
 7230TIP3   OH243180   3.638   1.666  17.018  0.3174  0.4519  0.0130
 7230TIP3    H143181   3.611   1.754  16.992  0.4122  0.6095  0.4426
 7230TIP3    H243182   3.683   1.678  17.102  0.1041 -0.0386  0.1998
 7231TIP3   OH243183   1.358   4.587  16.444 -0.0775  0.0501  0.6064
 7231TIP3    H143184   1.306   4.519  16.402 -1.9759 -0.5744  3.6978
 7231TIP3    H243185   1.435   4.541  16.479  0.3726  0.1733 -0.1889
 7232TIP3   OH243186   5.470   2.906  10.948  0.2376  0.0510  0.1493
 7232TIP3    H143187   5.422   2.988  10.939  0.2317 -0.0900 -1.1912
 7232TIP3    H243188   5.467   2.866  10.862  0.6818 -1.1279  0.6570
 7233TIP3   OH243189   4.061   2.267  14.516 -0.2831 -0.3783  0.8266
 7233TIP3    H143190   4.008   2.308  14.448 -1.5569 -0.9309  1.4520
 7233TIP3    H243191   4.125   2.334  14.541 -0.7856  0.3585  0.1580
 7234TIP3   OH243192   2.422   5.532   5.561  0.1758  0.1879  0.8206
 7234TIP3    H143193   2.447   5.446   5.527 -0.2809  0.3363  0.0887
 7234TIP3    H243194   2.484   5.592   5.520 -1.2026  0.5345 -0.8486
 7235TIP3   OH243195   3.381   1.995   4.689 -0.2668  0.0041 -0.5353
 7235TIP3    H143196   3.389   2.077   4.641  0.3792 -0.0611 -0.5586
 7235TIP3    H243197   3.288   1.972   4.685 -1.0722  2.3246  2.0718
 7236TIP3   OH243198   3.013   3.930  14.616 -0.3582  0.1078 -0.5642
 7236TIP3    H143199   2.982   3.999  14.558 -0.4193  1.8002  1.3596
 7236TIP3    H243200   3.087   3.970  14.662 -1.3811 -0.4901  1.7504
 7237TIP3   OH243201   2.094   1.934  14.755 -0.5082  0.0600 -0.4585
 7237TIP3    H143202   2.175   1.883  14.765 -1.0082 -0.9991 -1.5776
 7237TIP3    H243203   2.123   2.025  14.757  0.7727 -0.3038 -1.2443
 7238TIP3   OH243204   4.972   2.219  12.563  0.1096 -0.1229 -0.5562
 7238TIP3    H143205   4.985   2.151  12.497 -1.9911  1.0688 -2.3250
 7238TIP3    H243206   4.969   2.172  12.647  0.5423 -1.9499 -1.5268
 7239TIP3   OH243207   6.151   5.466  15.715 -0.1058 -0.3538 -0.1420
 7239TIP3    H143208   6.090   5.503  15.779  1.3005 -1.3266  1.8972
 7239TIP3    H243209   6.234   5.459  15.763  0.5348 -2.9217 -1.4471
 7240TIP3   OH243210   2.780   1.706  14.304  0.0098  0.3895  0.4308
 7240TIP3    H143211   2.792   1.674  14.214  1.0278  1.3088  0.2099
 7240TIP3    H243212   2.751   1.797  14.294 -0.2058  0.3943  1.0363
 7241TIP3   OH243213   3.366   2.365  13.879  0.1682 -0.1177 -0.0484
 7241TIP3    H143214   3.272   2.357  13.893 -0.0624  0.5714 -1.1173
 7241TIP3    H243215   3.383   2.321  13.796  0.8785 -0.6718  0.3747
 7242TIP3   OH243216   4.934   3.209  15.319  0.0659 -0.4300 -0.1365
 7242TIP3    H143217   4.857   3.248  15.278 -1.3058 -0.6669  2.0429
 7242TIP3    H243218   4.998   3.280  15.323 -0.1479 -0.1196 -1.6191
 7243TIP3   OH243219   0.926   5.994   5.077  0.2591 -0.1545  0.2217
 7243TIP3    H143220   0.983   6.065   5.106  0.2547 -0.2242  0.4029
 7243TIP3    H243221   0.837   6.028   5.088  0.2476  0.9658 -2.5534
 7244TIP3   OH243222   5.080   3.717   5.820  0.0318 -0.5228 -0.0959
 7244TIP3    H143223   5.103   3.661   5.746 -0.5030 -0.6248 -0.1914
 7244TIP3    H243224   5.064   3.803   5.781 -0.8197 -0.7138 -0.1840
 7245TIP3   OH243225   1.700   2.278  16.291 -0.5502 -0.0302  0.1028
 7245TIP3    H143226   1.646   2.357  16.291  0.2191  0.5160 -0.3465
 7245TIP3    H243227   1.696   2.246  16.381 -0.7911  0.5879  0.3172
 7246TIP3   OH243228   3.721   1.980  15.669 -0.1048 -0.1654  0.6600
 7246TIP3    H143229   3.747   1.986  15.577  1.8573 -1.8946  1.0170
 7246TIP3    H243230   3.733   2.068  15.704  1.9862 -0.0968 -0.0936
 7247TIP3   OH243231   0.799   2.870   5.101  0.0111 -0.0868 -0.2604
 7247TIP3    H143232   0.720   2.914   5.133  1.5226  1.5009  1.5885
 7247TIP3    H243233   0.767   2.805   5.039 -2.7427  0.3743  0.5367
 7248TIP3   OH243234   3.019   3.339   5.107  0.5158 -0.2105 -0.3828
 7248TIP3    H143235   2.944   3.304   5.058  1.3156 -1.0219 -1.0670
 7248TIP3    H243236   2.994   3.429   5.128 -0.7218 -0.5278 -0.4386
 7249TIP3   OH243237   5.264   4.357  16.658 -0.2345 -0.1165 -0.5496
 7249TIP3    H143238   5.250   4.268  16.689 -1.9555  0.5189  0.6585
 7249TIP3    H243239   5.189   4.374  16.600  0.3021  0.4069 -1.1006
 7250TIP3   OH243240   0.297   5.831   2.884 -0.2271 -0.1398 -0.1218
 7250TIP3    H143241   0.226   5.769   2.871 -0.1407 -0.4882  0.9241
 7250TIP3    H243242   0.327   5.854   2.796 -0.6349 -1.1486 -0.5290
 7251TIP3   OH243243   4.851   2.903  10.679  0.1189  0.1399 -0.1222
 7251TIP3    H143244   4.789   2.835  10.704  2.1401 -2.6447 -2.0242
 7251TIP3    H243245   4.801   2.961  10.622 -1.6826  0.3942  1.6123
 7252TIP3   OH243246   0.325   0.778   6.062 -0.3064  0.0448 -0.4886
 7252TIP3    H143247   0.314   0.691   6.024  1.6777  1.1155 -3.8607
 7252TIP3    H243248   0.249   0.827   6.031 -0.8622 -0.1429  0.5224
 7253TIP3   OH243249   0.916   4.469   0.704  0.0284  0.1448 -0.0683
 7253TIP3    H143250   0.906   4.526   0.780  0.6998 -1.2876  1.1404
 7253TIP3    H243251   1.009   4.473   0.683 -0.1638  0.5851 -0.8895
 7254TIP3   OH243252   2.193   2.434  12.331  0.1443 -0.3691 -0.4176
 7254TIP3    H143253   2.108   2.426  12.373  0.0028 -1.5935 -0.8978
 7254TIP3    H243254   2.255   2.437  12.404 -0.2832  0.1994 -0.0729
 7255TIP3   OH243255   4.535   5.208   4.045 -0.1066  0.7030 -0.2207
 7255TIP3    H143256   4.462   5.271   4.042 -0.1650  0.6126 -1.1463
 7255TIP3    H243257   4.496   5.128   4.082 -0.2374  0.9514  0.1815
 7256TIP3   OH243258   4.380   0.041   0.463  0.0456 -0.0115 -0.5328
 7256TIP3    H143259   4.423   0.126   0.450 -0.1167  0.0142 -0.9244
 7256TIP3    H243260   4.290   0.063   0.486  0.0759 -0.0748 -0.3505
 7257TIP3   OH243261   5.833   0.710   0.751  0.4551  0.0137  0.3025
 7257TIP3    H143262   5.771   0.744   0.815  0.2160  0.7682 -0.3194
 7257TIP3    H243263   5.918   0.715   0.795  0.0807 -1.1943  1.2262
 7258TIP3   OH243264   1.979   3.109  13.304  0.4441  0.1132 -0.1400
 7258TIP3    H143265   1.979   3.043  13.374 -1.0274  1.8344  1.5720
 7258TIP3    H243266   2.064   3.151  13.311  0.1285  0.5881  0.9511
 7259TIP3   OH243267   2.381   0.954  11.171 -0.3190 -0.0446  0.2063
 7259TIP3    H143268   2.386   1.046  11.143 -1.3829 -0.2557 -0.7224
 7259TIP3    H243269   2.287   0.937  11.181 -0.3719 -1.8408 -2.4275
 7260TIP3   OH243270   3.087   3.628   1.286 -0.5468 -0.0970 -0.0782
 7260TIP3    H143271   3.047   3.666   1.208 -0.6858  0.3358  0.2011
 7260TIP3    H243272   3.027   3.651   1.357 -0.5741 -0.7471  0.1103
 7261TIP3   OH243273   4.225   4.260  13.620  0.8427 -0.2062  0.5111
 7261TIP3    H143274   4.171   4.193  13.662  1.0291 -0.5265  0.2415
 7261TIP3    H243275   4.256   4.219  13.540  1.3763  0.0287  0.5947
 7262TIP3   OH243276   3.503   2.329  12.936  0.0105  0.0050  0.5562
 7262TIP3    H143277   3.574   2.322  12.871  0.4992  0.6784  0.9982
 7262TIP3    H243278   3.526   2.406  12.987 -1.7322  1.0350 -0.1071
 7263TIP3   OH243279   3.261   2.247  12.997 -0.2450  0.4749  0.9138
 7263TIP3    H143280   3.265   2.167  13.050 -0.4137  0.6651  1.2154
 7263TIP3    H243281   3.351   2.280  12.997 -0.1132  0.1143  0.5253
 7264TIP3   OH243282   6.708   0.906  14.116  0.3179  0.1686 -0.0240
 7264TIP3    H143283   6.664   0.914  14.200  0.6610  0.3893  0.1375
 7264TIP3    H243284   6.790   0.955  14.127  0.7543 -0.5016 -0.2118
 7265TIP3   OH243285   3.529   6.516   5.410 -0.1981  0.7928  0.1275
 7265TIP3    H143286   3.455   6.463   5.439 -0.5744  1.9693  1.4279
 7265TIP3    H243287   3.600   6.495   5.471 -0.3789  1.8088  0.7135
 7266TIP3   OH243288   1.925   4.618   4.435 -0.4216  0.2216 -0.4906
 7266TIP3    H143289   2.019   4.620   4.449 -0.6305  1.4753  0.9909
 7266TIP3    H243290   1.891   4.563   4.507 -0.8158 -0.3365 -1.0909
 7267TIP3   OH243291   0.073   5.750   5.716  0.1286 -0.3079 -0.1497
 7267TIP3    H143292   0.146   5.691   5.698  0.2587 -0.6191  1.2791
 7267TIP3    H243293   0.026   5.708   5.788 -0.8218  0.4531 -0.3056
 7268TIP3   OH243294   3.984   4.191  14.203  0.2583 -0.7553 -0.0585
 7268TIP3    H143295   4.022   4.191  14.291  1.6503 -2.3097 -0.5978
 7268TIP3    H243296   4.053   4.153  14.148 -1.2353 -1.4442 -1.5184
 7269TIP3   OH243297   6.244   5.196   0.383 -0.1179  0.5399  0.5491
 7269TIP3    H143298   6.324   5.249   0.382 -1.3665  2.6114  1.7929
 7269TIP3    H243299   6.268   5.116   0.430  1.5282  0.5392 -0.2401
 7270TIP3   OH243300   5.060   5.498   0.860 -0.1622 -0.0125 -0.6105
 7270TIP3    H143301   5.086   5.410   0.888  0.2961 -0.2380 -1.7151
 7270TIP3    H243302   5.137   5.552   0.880  0.3855 -0.2792 -1.8942
 7271TIP3   OH243303   5.180   0.000  15.924  0.2217  0.1582 -0.0190
 7271TIP3    H143304   5.260  -0.025  15.970  0.7333  0.1632 -0.8796
 7271TIP3    H243305   5.114  -0.062  15.955  0.4929  0.2972  0.8658
 7272TIP3   OH243306   4.332   3.380   5.642  0.4475 -0.1308 -0.2944
 7272TIP3    H143307   4.358   3.295   5.608 -0.5649 -0.0031 -1.4541
 7272TIP3    H243308   4.397   3.442   5.608 -0.7533  0.0595 -2.4587
 7273TIP3   OH243309   5.965   6.615   4.136  0.2144 -0.3390  0.6880
 7273TIP3    H143310   6.009   6.572   4.062 -0.2463  1.8749 -0.9729
 7273TIP3    H243311   6.037   6.646   4.191  0.6058 -0.9328  0.5214
 7274TIP3   OH243312   6.057   5.892  12.847 -0.2909 -0.5674 -0.1774
 7274TIP3    H143313   6.067   5.881  12.941 -1.0252  1.5380  0.2010
 7274TIP3    H243314   5.998   5.822  12.820  0.0430 -1.2817  0.8816
 7275TIP3   OH243315   1.354   4.373   4.582 -0.3910  0.5898  0.6112
 7275TIP3    H143316   1.390   4.453   4.542  1.7824  0.3699  1.9333
 7275TIP3    H243317   1.326   4.320   4.508  0.9543  1.3299 -0.4933
 7276TIP3   OH243318   3.221   1.676   0.208  0.2999 -0.9390 -0.5481
 7276TIP3    H143319   3.129   1.658   0.228  0.0319  0.3173 -0.5504
 7276TIP3    H243320   3.221   1.766   0.177  1.5451 -0.9159 -0.5243
 7277TIP3   OH243321   0.011   1.643  16.821 -0.2968  0.4404 -0.2442
 7277TIP3    H143322  -0.009   1.737  16.817  3.1736  1.2878 -0.8415
 7277TIP3    H243323   0.010   1.614  16.730 -1.2739 -0.1089 -0.0667
 7278TIP3   OH243324   2.842   4.385   1.923 -0.6025  0.1045  0.4009
 7278TIP3    H143325   2.867   4.459   1.868  0.3940 -0.8759 -0.5405
 7278TIP3    H243326   2.800   4.424   1.999  1.0220  1.7325  0.5423
 7279TIP3   OH243327   1.202   0.704  11.442 -0.0594 -0.0231 -0.1805
 7279TIP3    H143328   1.115   0.726  11.409  0.2496  0.7431 -0.4925
 7279TIP3    H243329   1.237   0.787  11.475  1.4329  0.1557 -2.0617
 7280TIP3   OH243330   1.746   2.373   4.043  0.7100  0.0885 -0.1979
 7280TIP3    H143331   1.751   2.278   4.052  2.3111 -0.0450 -1.9117
 7280TIP3    H243332   1.805   2.407   4.111  3.8662 -0.4186 -2.4739
 7281TIP3   OH243333   6.354   5.982   6.389 -0.1252  0.4348  0.6636
 7281TIP3    H143334   6.397   6.033   6.320 -1.9049  0.7552 -0.2572
 7281TIP3    H243335   6.326   5.902   6.346 -0.2646  0.1316  1.3058
 7282TIP3   OH243336   3.041   5.658  13.052 -0.2069  0.1260  0.5647
 7282TIP3    H143337   2.946   5.660  13.043 -0.2213  0.4159  0.7534
 7282TIP3    H243338   3.066   5.750  13.055  0.2460  0.0915 -1.1792
 7283TIP3   OH243339   2.548   5.835  11.048 -0.7256 -0.4101  0.1214
 7283TIP3    H143340   2.580   5.878  10.969 -0.1642  0.0444  0.5884
 7283TIP3    H243341   2.454   5.825  11.033 -0.8211  0.7109 -0.1324
 7284TIP3   OH243342   4.360   6.811   1.758 -0.0618 -0.0864 -0.2468
 7284TIP3    H143343   4.305   6.784   1.685 -0.5515 -0.1968  0.1503
 7284TIP3    H243344   4.395   6.897   1.733  1.9541 -1.2827 -1.7644
 7285TIP3   OH243345   3.482   3.562   0.092  0.0155  0.0205  0.0436
 7285TIP3    H143346   3.452   3.481   0.051  0.4723 -0.3492  0.4285
 7285TIP3    H243347   3.403   3.600   0.131 -0.5071  0.5767 -1.4778
 7286TIP3   OH243348   3.689   4.291   4.893 -0.2220 -0.0654  0.0757
 7286TIP3    H143349   3.686   4.218   4.955 -1.1899  0.9398  1.2770
 7286TIP3    H243350   3.725   4.253   4.813  0.6453 -1.5187  1.0976
 7287TIP3   OH243351   0.300   0.318   1.860 -0.1743 -0.4422 -0.0209
 7287TIP3    H143352   0.223   0.368   1.832  0.3196 -1.3889 -3.6265
 7287TIP3    H243353   0.267   0.256   1.924 -2.1578  0.0912 -0.4732
 7288TIP3   OH243354   5.259   2.314   2.780 -0.7237  0.2806  0.3843
 7288TIP3    H143355   5.351   2.332   2.763 -0.6964 -1.0658 -1.1026
 7288TIP3    H243356   5.212   2.368   2.716 -0.9765  0.6191  0.8421
 7289TIP3   OH243357   4.537   3.181   4.577  0.3055  0.2049  0.1314
 7289TIP3    H143358   4.521   3.187   4.482  2.9490 -1.8823 -0.5762
 7289TIP3    H243359   4.479   3.247   4.615 -1.1953  0.8173 -2.8793
 7290TIP3   OH243360   5.245   1.053   1.220 -0.4039  0.2847  0.0218
 7290TIP3    H143361   5.306   0.997   1.268  0.7395  0.2158 -1.4501
 7290TIP3    H243362   5.184   0.992   1.178  0.4367  0.1612 -1.0418
 7291TIP3   OH243363   5.498   5.372   0.150 -0.2973  0.7876 -0.0378
 7291TIP3    H143364   5.510   5.278   0.141 -0.4123  0.7385  0.3109
 7291TIP3    H243365   5.544   5.410   0.075  0.0646  0.4748  0.0218
 7292TIP3   OH243366   4.770   4.994   0.488  0.1728 -1.1668 -0.7335
 7292TIP3    H143367   4.793   5.059   0.422  0.1460 -0.2787  0.1023
 7292TIP3    H243368   4.714   4.931   0.442  0.8442 -1.0323 -1.7470
 7293TIP3   OH243369   2.345   0.821  10.633 -0.2919 -0.0076 -0.1475
 7293TIP3    H143370   2.400   0.809  10.711  0.1239 -0.8069 -0.5536
 7293TIP3    H243371   2.265   0.861  10.667  0.4596  1.0340  0.4708
 7294TIP3   OH243372   3.407   5.118  12.210 -0.0676 -0.0655 -0.3372
 7294TIP3    H143373   3.337   5.071  12.166 -0.3451 -0.3554  0.3960
 7294TIP3    H243374   3.429   5.063  12.286 -0.8255  1.2653  0.8933
 7295TIP3   OH243375   5.195   4.597  12.949 -0.7597  0.1596  0.4153
 7295TIP3    H143376   5.290   4.612  12.946 -0.5772 -0.9101  0.6149
 7295TIP3    H243377   5.158   4.683  12.931  0.2372  0.8566  1.5010
 7296TIP3   OH243378   1.326   3.198   2.087 -0.0014 -0.5455 -0.4244
 7296TIP3    H143379   1.246   3.219   2.039 -0.4822 -0.0014  0.5926
 7296TIP3    H243380   1.375   3.142   2.027 -0.4581  0.3190 -1.6674
 7297TIP3   OH243381   6.687   1.662   3.799  0.0823  0.0611 -0.7051
 7297TIP3    H143382   6.605   1.681   3.845 -1.0915 -4.1557 -0.7018
 7297TIP3    H243383   6.748   1.638   3.869 -0.0412 -0.9988 -0.9445
 7298TIP3   OH243384   5.375   5.401  12.539 -0.2380  0.1982  0.1966
 7298TIP3    H143385   5.342   5.462  12.605 -0.0378 -1.4921  1.9568
 7298TIP3    H243386   5.369   5.315  12.581  0.4225 -0.8937 -1.8122
 7299TIP3   OH243387   5.220   3.314  12.574 -0.2203  0.4547  0.4817
 7299TIP3    H143388   5.142   3.321  12.629 -1.0031 -0.7448 -0.4296
 7299TIP3    H243389   5.193   3.259  12.500  0.8490  1.8770 -1.0396
 7300TIP3   OH243390   6.412   1.018  11.115 -0.2636 -0.1050 -0.1114
 7300TIP3    H143391   6.393   0.994  11.206  1.1358  0.3547  0.3167
 7300TIP3    H243392   6.325   1.030  11.075 -0.9320 -1.5022  0.8157
 7301TIP3   OH243393   5.280   3.326  13.809 -0.1559  0.0263 -0.9164
 7301TIP3    H143394   5.272   3.308  13.715  0.4673  1.2337 -1.2182
 7301TIP3    H243395   5.195   3.365  13.832 -0.2868 -0.2093 -0.9965
 7302TIP3   OH243396   5.264   2.295   5.317  0.8552  0.3096 -0.4354
 7302TIP3    H143397   5.240   2.365   5.378 -0.0048 -0.3484  0.0047
 7302TIP3    H243398   5.360   2.294   5.318  0.8630  1.0410  0.0618
 7303TIP3   OH243399   3.266   5.384   2.756  0.7346 -0.4203 -0.2900
 7303TIP3    H143400   3.193   5.405   2.814  0.5267  0.1361 -0.7461
 7303TIP3    H243401   3.338   5.438   2.787  0.7123 -0.3526 -0.3556
 7304TIP3   OH243402   0.766   5.375  16.342 -0.2736 -0.2791  0.0905
 7304TIP3    H143403   0.837   5.351  16.283 -0.2128  2.0075 -0.8652
 7304TIP3    H243404   0.698   5.410  16.285 -1.0587  0.0813  1.2183
 7305TIP3   OH243405   2.580   5.077   2.027 -0.0540 -0.3276 -0.0005
 7305TIP3    H143406   2.657   5.024   2.007 -0.5829 -0.5468 -1.6091
 7305TIP3    H243407   2.506   5.019   2.010 -0.5871 -0.0789  1.4092
 7306TIP3   OH243408   3.663   2.613  14.376 -0.3364  0.3654 -0.2851
 7306TIP3    H143409   3.582   2.605  14.427 -1.8740 -1.6486 -2.7854
 7306TIP3    H243410   3.690   2.522  14.361  1.7359  0.9766 -0.5760
 7307TIP3   OH243411   5.715   0.695   5.597 -0.1985 -0.2576 -0.5914
 7307TIP3    H143412   5.645   0.648   5.644 -1.9361  1.5381 -1.2286
 7307TIP3    H243413   5.685   0.697   5.506  0.7584  0.4323 -0.9089
 7308TIP3   OH243414   2.821   0.050  13.455 -0.3715  0.0238  0.3698
 7308TIP3    H143415   2.833   0.144  13.469  1.1121 -0.2885  1.3977
 7308TIP3    H243416   2.897   0.010  13.497 -1.6232 -1.7304  1.0525
 7309TIP3   OH243417   5.817   1.746   0.784  0.0760 -0.2672  0.2550
 7309TIP3    H143418   5.733   1.737   0.828 -0.4742 -0.6069 -0.8210
 7309TIP3    H243419   5.881   1.757   0.854 -0.9216  0.4489  1.0653
 7310TIP3   OH243420   2.252   4.782  16.944 -0.0617  0.0608  0.0782
 7310TIP3    H143421   2.250   4.732  17.026 -0.3682 -2.1295 -1.1828
 7310TIP3    H243422   2.175   4.838  16.948 -1.1505 -1.4089  0.5060
 7311TIP3   OH243423   4.663   5.490   4.130 -0.3788 -0.1450  0.2798
 7311TIP3    H143424   4.610   5.569   4.127 -0.2190 -0.0659 -0.6702
 7311TIP3    H243425   4.604   5.421   4.162 -1.5514 -0.4303 -2.2647
 7312TIP3   OH243426   6.107   6.221   2.402 -0.0845 -0.3355 -0.1360
 7312TIP3    H143427   6.061   6.186   2.478 -1.7904  1.7733 -0.1227
 7312TIP3    H243428   6.099   6.152   2.336 -1.6943 -0.7704  0.4687
 7313TIP3   OH243429   3.405   3.440  10.615  0.5633  0.1954 -0.3516
 7313TIP3    H143430   3.337   3.465  10.677  0.4876  1.1637 -0.8177
 7313TIP3    H243431   3.393   3.498  10.540 -0.1812 -1.7871 -1.8834
 7314TIP3   OH243432   6.603   5.699   2.132 -0.2286 -0.1149 -0.2581
 7314TIP3    H143433   6.507   5.694   2.132 -0.2631  0.5094 -0.6605
 7314TIP3    H243434   6.627   5.696   2.039  0.0457  1.3849 -0.2517
 7315TIP3   OH243435   5.341   5.505  17.193  0.1464 -0.2008  0.0608
 7315TIP3    H143436   5.435   5.525  17.195 -0.0760  0.8305  1.0639
 7315TIP3    H243437   5.312   5.519  17.283 -1.5126  2.2494 -0.7639
 7316TIP3   OH243438   5.420   2.032   1.735 -0.3658  0.2140 -0.3820
 7316TIP3    H143439   5.333   2.021   1.772 -0.5311  0.6450 -0.6362
 7316TIP3    H243440   5.478   2.042   1.811 -0.6153  0.4571 -0.2217
 7317TIP3   OH243441   6.398   0.481  15.608  0.1406  0.2261  0.3870
 7317TIP3    H143442   6.304   0.499  15.608 -0.1326 -0.8480 -1.9163
 7317TIP3    H243443   6.407   0.399  15.655 -0.8536 -2.3461 -3.3975
 7318TIP3   OH243444   5.875   0.786   4.662  0.2601  0.4056 -0.4952
 7318TIP3    H143445   5.830   0.865   4.634  3.4984  1.3798 -3.6721
 7318TIP3    H243446   5.960   0.816   4.696  1.4630 -1.6013 -1.4987
 7319TIP3   OH243447   5.515   4.206   1.269 -0.5493  0.2904  0.2237
 7319TIP3    H143448   5.444   4.235   1.326 -0.4015  1.2103 -0.0403
 7319TIP3    H243449   5.479   4.212   1.181 -0.3643  0.1022  0.1329
 7320TIP3   OH243450   0.890   2.875  14.398 -0.2885  0.3064 -0.2401
 7320TIP3    H143451   0.946   2.814  14.446  0.5008  0.7799 -0.5257
 7320TIP3    H243452   0.918   2.962  14.427 -0.8085  0.5546 -0.4642
 7321TIP3   OH243453   3.002   1.989  13.274  0.3797 -0.0416  0.9932
 7321TIP3    H143454   2.981   2.069  13.321 -1.1434  0.3125 -0.1860
 7321TIP3    H243455   2.946   1.992  13.196  0.2174 -2.2828  0.9575
 7322TIP3   OH243456   3.581   2.689  11.517 -0.0351 -0.3738  0.5856
 7322TIP3    H143457   3.502   2.675  11.466  0.8069 -0.9843 -0.6106
 7322TIP3    H243458   3.645   2.722  11.454  0.0499  2.3762  1.9522
 7323TIP3   OH243459   0.151   4.956  14.559 -0.5186 -0.1415  0.7537
 7323TIP3    H143460   0.074   4.991  14.605 -0.1132 -0.4243  1.6824
 7323TIP3    H243461   0.154   4.864  14.586 -0.1667 -0.2680  0.2813
 7324TIP3   OH243462   3.663   1.720   3.373  0.1679  0.4956  0.4792
 7324TIP3    H143463   3.622   1.634   3.362  0.5320  0.3544  0.1796
 7324TIP3    H243464   3.757   1.702   3.373  0.2723  0.9777 -0.4241
 7325TIP3   OH243465   5.506   4.350   5.358  0.3309 -0.0040  0.2572
 7325TIP3    H143466   5.587   4.364   5.406  0.2947 -0.6732  0.5216
 7325TIP3    H243467   5.439   4.340   5.426 -0.4225  2.8167  0.0807
 7326TIP3   OH243468   2.509   2.419  13.879  0.0226 -0.2963  0.4494
 7326TIP3    H143469   2.505   2.426  13.784 -0.8463 -0.6330  0.4536
 7326TIP3    H243470   2.547   2.333  13.895  0.0859 -0.2755  0.4135
 7327TIP3   OH243471   5.845   5.900   3.185 -0.2333  0.2086  0.3141
 7327TIP3    H143472   5.935   5.881   3.211  0.2454 -0.2235 -1.5385
 7327TIP3    H243473   5.848   5.906   3.089 -2.0694  0.7579  0.2486
 7328TIP3   OH243474   5.871   4.990  16.871  0.3064  0.0290  0.1966
 7328TIP3    H143475   5.809   4.966  16.940  1.7950 -0.7543  1.3336
 7328TIP3    H243476   5.872   4.914  16.813  3.5561 -2.1228  2.7295
 7329TIP3   OH243477   2.294   4.969  13.979 -1.0172  0.0173  0.0622
 7329TIP3    H143478   2.386   4.943  13.969 -0.9148 -0.1706  1.3356
 7329TIP3    H243479   2.253   4.942  13.896 -0.3729 -1.8899  0.3132
 7330TIP3   OH243480   4.917   1.444  16.515 -0.0723  0.1049  0.4558
 7330TIP3    H143481   4.862   1.392  16.575  1.4922 -0.2382  1.6560
 7330TIP3    H243482   4.855   1.478  16.451 -1.4319 -1.7542  0.6751
 7331TIP3   OH243483   5.365   5.086  11.482 -0.5519 -0.0086 -0.2650
 7331TIP3    H143484   5.410   5.157  11.437 -0.7659  1.0390  1.0881
 7331TIP3    H243485   5.275   5.118  11.492 -0.5776 -0.3240  0.6222
 7332TIP3   OH243486   2.624   4.976  16.995  0.4150 -0.3531 -0.7147
 7332TIP3    H143487   2.617   4.984  16.900  1.4809  1.2813 -0.6859
 7332TIP3    H243488   2.697   5.032  17.019 -0.7290  0.3991  1.2440
 7333TIP3   OH243489   3.361   3.231  13.245 -0.2870  0.1120 -0.6439
 7333TIP3    H143490   3.288   3.237  13.183 -1.0005  0.5144  0.2053
 7333TIP3    H243491   3.319   3.220  13.330  0.6678 -0.2154 -0.2020
 7334TIP3   OH243492   3.813   3.404   1.116 -0.6888  0.7512 -0.4844
 7334TIP3    H143493   3.817   3.498   1.133  0.9433  0.4092  1.5222
 7334TIP3    H243494   3.775   3.367   1.196 -0.5519 -0.3442 -0.9115
 7335TIP3   OH243495   1.890   4.828   4.807 -0.0775 -0.0141 -0.0569
 7335TIP3    H143496   1.964   4.882   4.780 -0.3761  0.5128  0.1740
 7335TIP3    H243497   1.927   4.766   4.870  0.0584  0.6172  0.4861
 7336TIP3   OH243498   2.539   3.963  12.317 -0.1304  0.3419  0.1450
 7336TIP3    H143499   2.625   4.001  12.301 -0.0481  0.5264  1.0071
 7336TIP3    H243500   2.555   3.869  12.325 -0.4575 -0.0779 -2.9484
 7337TIP3   OH243501   3.601   0.490  14.046  0.0075 -0.0002 -0.2752
 7337TIP3    H143502   3.696   0.500  14.055  0.9151 -5.2865 -0.4346
 7337TIP3    H243503   3.571   0.468  14.133 -0.2463 -2.0949 -0.8297
 7338TIP3   OH243504   5.565   4.472   3.437  0.1407 -0.0670 -0.1574
 7338TIP3    H143505   5.596   4.397   3.386 -1.8986  0.0210 -1.6203
 7338TIP3    H243506   5.470   4.472   3.426 -0.1466  1.3796  1.7375
 7339TIP3   OH243507   6.224   5.266   2.531  0.4959  0.0486 -0.0786
 7339TIP3    H143508   6.214   5.197   2.465  0.3490 -0.6264  0.6391
 7339TIP3    H243509   6.151   5.252   2.591  1.7525 -0.6177  1.3568
 7340TIP3   OH243510   2.883   0.902  11.917  0.0893 -0.1705  0.0815
 7340TIP3    H143511   2.888   0.975  11.978 -0.4997 -1.1360  1.3214
 7340TIP3    H243512   2.852   0.828  11.970  0.6699 -1.3240 -1.1308
 7341TIP3   OH243513   3.462   5.200   3.677  0.0080 -0.0203 -0.5465
 7341TIP3    H143514   3.495   5.110   3.674  0.1704  0.0649 -1.7917
 7341TIP3    H243515   3.373   5.191   3.712 -0.2043 -0.7537 -1.2299
 7342TIP3   OH243516   6.648   3.053   4.999 -0.4201  0.7689 -0.2676
 7342TIP3    H143517   6.676   2.989   5.064 -0.4377  0.9799 -0.0515
 7342TIP3    H243518   6.589   3.005   4.941  2.0240 -0.3275 -2.0543
 7343TIP3   OH243519   4.863   3.520   2.649  0.2761  0.0759 -0.5375
 7343TIP3    H143520   4.946   3.480   2.675  0.5781  0.8957 -0.2126
 7343TIP3    H243521   4.796   3.472   2.699  0.6971  0.4669  0.4185
 7344TIP3   OH243522   2.718   0.637   3.696  0.7213  0.5345  0.1493
 7344TIP3    H143523   2.776   0.590   3.756 -0.4328 -0.5474  0.4451
 7344TIP3    H243524   2.686   0.711   3.748  1.1026  0.6070  0.2877
 7345TIP3   OH243525   5.318   6.165   2.628 -0.0233  0.0633 -0.1541
 7345TIP3    H143526   5.254   6.225   2.593  0.0460  0.0682 -0.2713
 7345TIP3    H243527   5.355   6.121   2.552  1.3207  1.2586 -0.2378
 7346TIP3   OH243528   1.539   5.268   3.904 -0.2211  0.0110  0.8862
 7346TIP3    H143529   1.506   5.272   3.815 -0.4896  0.2463  0.9930
 7346TIP3    H243530   1.585   5.185   3.909  1.1618  0.6987  0.0639
 7347TIP3   OH243531   4.420   6.378  16.757  0.3772  0.6099  0.5577
 7347TIP3    H143532   4.423   6.392  16.852  1.4150  1.0944  0.4621
 7347TIP3    H243533   4.437   6.464  16.719 -1.2387  0.6773 -0.0948
 7348TIP3   OH243534   2.418   6.153   1.825  0.0445  0.3806 -0.4889
 7348TIP3    H143535   2.376   6.135   1.740  1.3948  1.0997 -1.3488
 7348TIP3    H243536   2.421   6.068   1.869 -0.3110 -0.0864 -1.3443
 7349TIP3   OH243537   3.168   5.918  11.149 -0.3719  0.4439  0.2129
 7349TIP3    H143538   3.135   5.846  11.094 -1.7465  1.5685 -0.4968
 7349TIP3    H243539   3.262   5.900  11.157 -0.3400 -0.4388 -1.5052
 7350TIP3   OH243540   2.785   4.750   2.242  0.0682  0.4052 -0.3559
 7350TIP3    H143541   2.749   4.678   2.294 -2.3235 -0.1371 -2.5694
 7350TIP3    H243542   2.823   4.809   2.307  1.3712 -2.3696  1.6115
 7351TIP3   OH243543   1.366   0.812  10.425  0.4013  0.0139 -0.0831
 7351TIP3    H143544   1.422   0.847  10.355 -0.5857  0.5618 -0.6332
 7351TIP3    H243545   1.309   0.749  10.380  0.2380 -0.1644  0.3702
 7352TIP3   OH243546   6.623   5.989  14.298 -0.2648  0.2723  0.0069
 7352TIP3    H143547   6.570   5.985  14.218  0.2196  0.0532 -0.3098
 7352TIP3    H243548   6.597   6.070  14.340  0.4967  1.1267 -1.1080
 7353TIP3   OH243549   0.210   1.176  16.484 -0.4412 -0.3616 -0.0988
 7353TIP3    H143550   0.229   1.141  16.397 -0.4978 -1.5079  0.3223
 7353TIP3    H243551   0.115   1.164  16.494 -0.6481  0.9070 -0.3402
 7354TIP3   OH243552   2.839   3.101   6.172 -0.3303  0.5339 -0.1371
 7354TIP3    H143553   2.857   3.070   6.260 -0.2852  0.5635 -0.1358
 7354TIP3    H243554   2.746   3.086   6.159  0.0109 -1.2675 -0.7919
 7355TIP3   OH243555   6.660   3.651  13.889  0.0795  0.1983  0.4024
 7355TIP3    H143556   6.581   3.696  13.859  0.3878  0.1401 -0.5323
 7355TIP3    H243557   6.642   3.630  13.980 -2.5900 -3.2155 -0.7196
 7356TIP3   OH243558   1.205   2.124   3.474 -0.3444  0.2567  0.4999
 7356TIP3    H143559   1.136   2.091   3.531 -0.8517  0.1165 -0.1805
 7356TIP3    H243560   1.274   2.059   3.479 -1.0433 -0.5695 -0.2728
 7357TIP3   OH243561   4.711   6.383  13.176  0.1916 -0.4455 -0.2614
 7357TIP3    H143562   4.664   6.451  13.127 -0.1241  0.5639  1.3576
 7357TIP3    H243563   4.643   6.320  13.200  0.1668 -0.4188 -0.2606
 7358TIP3   OH243564   0.712   2.281  12.534 -0.5374 -0.0440  0.5321
 7358TIP3    H143565   0.765   2.316  12.463 -1.8346 -1.5418 -1.2668
 7358TIP3    H243566   0.734   2.188  12.536 -2.2679 -0.4875  0.4373
 7359TIP3   OH243567   6.218   1.003   2.902  0.2830 -0.2252 -0.5166
 7359TIP3    H143568   6.310   0.985   2.919 -0.2031 -2.7548 -0.2852
 7359TIP3    H243569   6.170   0.947   2.962 -1.4125 -0.4281 -1.9714
 7360TIP3   OH243570   1.747   4.564   1.786  0.0414 -0.3575  0.2010
 7360TIP3    H143571   1.827   4.545   1.835 -0.2472 -0.0367  0.7975
 7360TIP3    H243572   1.716   4.647   1.821  0.6115  0.6244 -1.5155
 7361TIP3   OH243573   5.181   4.430  14.258 -0.0934 -0.1447  0.0188
 7361TIP3    H143574   5.233   4.426  14.177  1.4276  3.3644  0.6045
 7361TIP3    H243575   5.103   4.479  14.234  0.8563  1.8554  0.7662
 7362TIP3   OH243576   6.691   0.086  11.405 -0.1079  0.0782 -0.0945
 7362TIP3    H143577   6.606   0.079  11.362  0.9226 -1.8027 -1.9457
 7362TIP3    H243578   6.720  -0.004  11.417  1.7238  0.6867  0.3256
 7363TIP3   OH243579   3.204   4.991  10.746 -0.2814 -0.6819  0.8689
 7363TIP3    H143580   3.165   4.910  10.713 -2.1776  0.6100 -0.2229
 7363TIP3    H243581   3.225   5.041  10.667  0.8889 -0.0866  1.5346
 7364TIP3   OH243582   6.415   5.652  10.593 -0.2913  0.1335  0.8236
 7364TIP3    H143583   6.502   5.678  10.564 -1.3446 -0.0647 -3.2039
 7364TIP3    H243584   6.390   5.717  10.658  1.7358  1.9462 -0.0961
 7365TIP3   OH243585   5.162   6.029  13.230  0.2857  0.1095 -0.7156
 7365TIP3    H143586   5.120   5.984  13.156 -0.3786 -1.5815  0.6193
 7365TIP3    H243587   5.197   5.958  13.284 -0.3178  1.2297  1.2175
 7366TIP3   OH243588   5.034   4.383  15.504 -0.4238 -1.0410 -0.0990
 7366TIP3    H143589   5.119   4.403  15.542 -0.3819 -2.2944  0.5228
 7366TIP3    H243590   4.970   4.414  15.568 -0.3904 -1.5743  0.1974
 7367TIP3   OH243591   4.535   5.085  15.087 -0.3948  0.0147 -0.1499
 7367TIP3    H143592   4.520   5.047  15.174 -1.0061 -1.3235 -0.7952
 7367TIP3    H243593   4.449   5.085  15.046 -0.2021  1.1183 -0.5839
 7368TIP3   OH243594   1.092   0.437  13.191  0.0407 -0.0621 -0.3592
 7368TIP3    H143595   1.142   0.514  13.164  0.0038 -0.5516 -1.8870
 7368TIP3    H243596   1.152   0.389  13.249  0.5317  0.4579 -0.4252
 7369TIP3   OH243597   3.345   1.400   1.120  0.0013 -0.0859 -0.0197
 7369TIP3    H143598   3.296   1.476   1.153 -1.0837 -0.7832  0.0031
 7369TIP3    H243599   3.369   1.351   1.199  0.5390  0.1140 -0.0500
 7370TIP3   OH243600   6.172   0.813  17.175 -0.3143  0.1584 -0.2130
 7370TIP3    H143601   6.130   0.899  17.183  0.3970  0.5204 -0.3100
 7370TIP3    H243602   6.232   0.809  17.249  0.1218  0.0139 -0.5692
 7371TIP3   OH243603   3.424   6.043  13.590 -0.1395  0.1704  0.6181
 7371TIP3    H143604   3.376   5.960  13.591  0.1004  0.0338  0.9584
 7371TIP3    H243605   3.356   6.110  13.589 -0.3357 -0.0297  0.3358
 7372TIP3   OH243606   2.997   6.076  11.977  0.0672  0.2743 -0.0761
 7372TIP3    H143607   3.089   6.093  11.955  0.3211 -1.7530 -0.7793
 7372TIP3    H243608   2.978   6.137  12.047  2.2971  0.0320  0.8290
 7373TIP3   OH243609   3.597   2.792  13.945 -0.0419 -0.0396  0.0580
 7373TIP3    H143610   3.659   2.727  13.914  0.2369 -0.2990  1.1154
 7373TIP3    H243611   3.536   2.804  13.873 -0.6783 -2.1923  0.1748
 7374TIP3   OH243612   0.232   0.610  15.854 -0.4545 -0.0677 -0.2874
 7374TIP3    H143613   0.177   0.665  15.798 -1.2947 -0.9249 -0.3276
 7374TIP3    H243614   0.175   0.537  15.879  0.9455 -1.5393 -1.1857
 7375TIP3   OH243615   1.219   5.361  13.511  0.5100  0.2456  0.0972
 7375TIP3    H143616   1.136   5.388  13.549  0.1330 -0.2695 -0.3488
 7375TIP3    H243617   1.196   5.320  13.428  1.0853 -1.1411  0.5971
 7376TIP3   OH243618   2.501   5.509  13.469  0.1746 -0.3122 -0.1514
 7376TIP3    H143619   2.548   5.582  13.510  0.1602 -1.0170  1.1456
 7376TIP3    H243620   2.413   5.515  13.504 -0.0903 -0.3912 -0.7922
 7377TIP3   OH243621   6.107   3.040  17.194 -0.0246  0.9077 -0.7300
 7377TIP3    H143622   6.191   2.997  17.208 -0.0745  0.4267 -1.7757
 7377TIP3    H243623   6.079   3.010  17.107 -0.2646  2.7282 -1.3253
 7378TIP3   OH243624   6.445   2.348  16.133  0.1015  0.1403 -0.1852
 7378TIP3    H143625   6.369   2.293  16.116  0.3647 -0.1325 -0.4741
 7378TIP3    H243626   6.520   2.296  16.104  0.3060  0.8889 -1.0134
 7379TIP3   OH243627   4.271   3.676  13.263  0.5015  0.4442  0.0857
 7379TIP3    H143628   4.334   3.716  13.203  1.2051 -0.3242  0.2951
 7379TIP3    H243629   4.318   3.602  13.301 -0.6395 -0.3339  0.0120
 7380TIP3   OH243630   5.613   5.767   3.183  0.1507 -0.0002  0.6086
 7380TIP3    H143631   5.700   5.807   3.191  0.3128  0.0117 -0.9678
 7380TIP3    H243632   5.597   5.727   3.269  1.0075  1.3855  1.4440
 7381TIP3   OH243633   0.095   2.185   3.461 -0.0115 -0.1573 -0.1008
 7381TIP3    H143634   0.175   2.134   3.467 -0.4907 -1.2550 -2.0843
 7381TIP3    H243635   0.041   2.155   3.534  0.1675 -1.7314 -0.5736
 7382TIP3   OH243636   4.703   5.566  14.411  0.9230  0.1001 -0.3619
 7382TIP3    H143637   4.652   5.582  14.491  1.6097 -0.2989  0.1670
 7382TIP3    H243638   4.663   5.622  14.345  0.1175  0.1696  0.1742
 7383TIP3   OH243639   4.729   4.041   4.393 -0.1325  0.0406  0.1021
 7383TIP3    H143640   4.640   4.071   4.408 -0.6195 -2.4077  3.0405
 7383TIP3    H243641   4.726   3.947   4.408  2.9627 -0.1322  0.3721
 7384TIP3   OH243642   6.647   2.914   5.321 -0.4250  0.3999  0.3574
 7384TIP3    H143643   6.552   2.925   5.312 -0.6831 -1.4841  0.4343
 7384TIP3    H243644   6.669   2.843   5.260  0.8372  0.3682  0.8173
 7385TIP3   OH243645   4.985   3.024  12.331 -0.4232  0.6469 -0.3746
 7385TIP3    H143646   5.017   3.106  12.293 -2.2303  1.7762  0.4252
 7385TIP3    H243647   4.936   3.051  12.409  1.2311 -1.4170  1.5015
 7386TIP3   OH243648   5.209   5.935   3.994 -0.5517  0.0279  0.1028
 7386TIP3    H143649   5.281   5.871   3.996  0.2905  0.9534  1.7019
 7386TIP3    H243650   5.186   5.942   3.902  1.9492  0.2767 -0.5906
 7387TIP3   OH243651   6.670   1.827  15.373 -0.4782  0.0138  0.4471
 7387TIP3    H143652   6.710   1.864  15.295  0.4296 -2.9271 -0.6295
 7387TIP3    H243653   6.586   1.791  15.343  0.7483 -2.9133  0.2310
 7388TIP3   OH243654   1.533   3.862   1.067 -0.3375  0.6749  0.2097
 7388TIP3    H143655   1.621   3.837   1.041 -0.3896 -1.4486  1.8617
 7388TIP3    H243656   1.476   3.813   1.007 -0.4094  0.8570  0.1290
 7389TIP3   OH243657   6.273   0.206   3.945 -0.5266 -0.2568 -0.0126
 7389TIP3    H143658   6.254   0.265   3.872  0.5546 -1.0934 -1.0147
 7389TIP3    H243659   6.189   0.164   3.964 -0.6426 -0.6967 -1.4065
 7390TIP3   OH243660   4.127   2.790  15.703 -0.2408 -0.2331  0.2144
 7390TIP3    H143661   4.137   2.705  15.661 -0.1492 -0.2406  0.2495
 7390TIP3    H243662   4.185   2.848  15.652 -1.4106  0.1483 -0.7489
 7391TIP3   OH243663   1.606   2.248  11.157  0.1176  0.1948  0.0486
 7391TIP3    H143664   1.532   2.306  11.176  0.1560  0.8410 -1.5796
 7391TIP3    H243665   1.666   2.261  11.230 -1.0211  0.2501  1.0062
 7392TIP3   OH243666   2.303   0.029   5.345 -0.1620 -0.2792  0.0100
 7392TIP3    H143667   2.240  -0.042   5.357  0.7100 -1.8181 -3.2477
 7392TIP3    H243668   2.252   0.102   5.312 -0.5561 -0.7506 -0.4389
 7393TIP3   OH243669   3.338   0.987  15.615  0.2966  0.2429 -0.0664
 7393TIP3    H143670   3.344   0.893  15.626 -0.4272  0.0901 -0.8461
 7393TIP3    H243671   3.388   1.024  15.688  2.0385 -0.7531 -0.7133
 7394TIP3   OH243672   4.580   4.816  12.021 -0.1225 -0.5216  0.1735
 7394TIP3    H143673   4.621   4.747  12.074 -0.3107 -1.0772 -0.3983
 7394TIP3    H243674   4.615   4.803  11.933 -1.0398 -0.6147 -0.1896
 7395TIP3   OH243675   3.823   0.889   0.764  0.7718 -0.0368  0.1403
 7395TIP3    H143676   3.855   0.966   0.717  0.8429  0.9127  1.6463
 7395TIP3    H243677   3.900   0.856   0.811  0.0691  1.1167  2.2684
 7396TIP3   OH243678   0.088   0.415  10.508  0.2413 -0.1168  0.2209
 7396TIP3    H143679   0.017   0.358  10.480 -1.3357  0.5071  2.6643
 7396TIP3    H243680   0.141   0.427  10.429 -3.0822  0.5076 -2.1200
 7397TIP3   OH243681   5.573   4.549  12.149 -0.0596 -0.3964  0.2192
 7397TIP3    H143682   5.581   4.558  12.054  2.2925  1.0829  0.4834
 7397TIP3    H243683   5.659   4.517  12.177  0.8683  3.2841  2.1834
 7398TIP3   OH243684   4.367   1.495   5.557 -0.1349  0.2922  0.1175
 7398TIP3    H143685   4.417   1.573   5.534  1.8908 -0.2188  2.3591
 7398TIP3    H243686   4.384   1.434   5.485 -0.1132  1.2113 -0.6838
 7399TIP3   OH243687   2.434   5.354   0.365 -0.6422  0.1232 -0.0288
 7399TIP3    H143688   2.376   5.430   0.366 -1.5709 -0.5418  1.9392
 7399TIP3    H243689   2.445   5.333   0.272 -0.3002  2.6513 -0.6395
 7400TIP3   OH243690   2.904   0.150   0.806 -0.2496 -0.2220 -0.0335
 7400TIP3    H143691   2.969   0.157   0.736  0.8284  0.8263  1.0345
 7400TIP3    H243692   2.869   0.061   0.797  1.6908 -1.0097 -0.3358
 7401TIP3   OH243693   1.651   1.258   2.870  0.1485 -0.9654  0.4115
 7401TIP3    H143694   1.682   1.345   2.897 -1.3500 -0.1192 -0.4705
 7401TIP3    H243695   1.655   1.206   2.950 -0.1949  0.2913  1.2817
 7402TIP3   OH243696   6.776   1.941   4.427  0.4990  0.2670 -0.5564
 7402TIP3    H143697   6.810   1.973   4.511  0.8771  0.6994 -0.8783
 7402TIP3    H243698   6.836   1.974   4.361  0.2237 -0.1039 -1.0054
 7403TIP3   OH243699   1.442   4.456  14.718 -0.6971 -0.1180  0.1541
 7403TIP3    H143700   1.437   4.446  14.623 -1.5145 -0.4310  0.2287
 7403TIP3    H243701   1.531   4.427  14.740  0.3388  2.1175 -0.7661
 7404TIP3   OH243702   4.709   3.276  16.477 -0.1302  0.0706 -0.0304
 7404TIP3    H143703   4.754   3.344  16.427  0.9810  0.3988  1.3539
 7404TIP3    H243704   4.631   3.257  16.426 -0.6629  2.6343 -0.3089
 7405TIP3   OH243705   2.776   4.536  16.552  0.5830 -0.5310  0.3823
 7405TIP3    H143706   2.686   4.564  16.564  0.5506  0.1058 -1.1348
 7405TIP3    H243707   2.779   4.499  16.464  1.5543 -1.6116  0.8307
 7406TIP3   OH243708   4.334   4.549   4.811  0.2045 -0.3871 -0.1000
 7406TIP3    H143709   4.241   4.543   4.789  0.4833 -0.9711 -1.2146
 7406TIP3    H243710   4.339   4.514   4.900 -0.7983  0.8434  0.4755
 7407TIP3   OH243711   5.599   3.862  16.540  0.2176  0.5344 -0.0995
 7407TIP3    H143712   5.642   3.825  16.463  1.9418  3.0995 -0.5099
 7407TIP3    H243713   5.649   3.828  16.615  0.5895  0.5320 -0.3461
 7408TIP3   OH243714   0.012   4.635   5.028  0.2316 -0.7877  0.1423
 7408TIP3    H143715  -0.015   4.685   4.951 -0.6184  0.2271  1.0638
 7408TIP3    H243716   0.063   4.696   5.080 -2.1133 -0.2832  2.0351
 7409TIP3   OH243717   2.007   6.236   2.271  0.3977 -0.0688 -0.0885
 7409TIP3    H143718   2.095   6.225   2.309  0.4653  0.5338 -0.0573
 7409TIP3    H243719   2.017   6.309   2.210 -0.0562 -0.0789 -0.1721
 7410TIP3   OH243720   4.423   2.382  12.592  0.1367 -0.7462  0.3500
 7410TIP3    H143721   4.480   2.418  12.661 -0.8752 -3.1201  2.5921
 7410TIP3    H243722   4.395   2.459  12.542  1.1205  1.0978  2.4507
 7411TIP3   OH243723   5.881   5.566  14.389  0.3662 -0.4476  0.0931
 7411TIP3    H143724   5.967   5.574  14.348  0.4063  0.9548  0.4002
 7411TIP3    H243725   5.821   5.604  14.324  0.1145 -0.5176  0.2852
 7412TIP3   OH243726   6.771   1.466  11.944  0.6720 -0.0634  0.2885
 7412TIP3    H143727   6.795   1.435  12.031  1.8195 -2.0024 -0.6690
 7412TIP3    H243728   6.854   1.489  11.902  0.4991 -2.2410 -1.3811
 7413TIP3   OH243729   0.398   2.679  15.154 -0.5388  0.3398 -1.1130
 7413TIP3    H143730   0.493   2.686  15.152 -0.5314  0.1009 -1.6620
 7413TIP3    H243731   0.371   2.683  15.062 -1.1143  1.1263 -0.9271
 7414TIP3   OH243732   5.770   3.082   3.820 -0.2489 -0.1812 -0.6816
 7414TIP3    H143733   5.757   3.140   3.895  0.9760 -0.3388 -0.3200
 7414TIP3    H243734   5.774   2.995   3.858  1.2836 -0.1871 -0.7820
 7415TIP3   OH243735   5.698   6.418   4.788 -0.0028  0.2729  0.0240
 7415TIP3    H143736   5.718   6.377   4.872 -1.5777  1.1111  0.8575
 7415TIP3    H243737   5.751   6.498   4.787 -0.2206  0.4243  0.3786
 7416TIP3   OH243738   3.547   6.191   0.168 -0.1827 -0.5417 -0.0225
 7416TIP3    H143739   3.496   6.250   0.224 -0.8971 -0.9787 -0.2067
 7416TIP3    H243740   3.604   6.144   0.229 -2.2252 -2.3518  0.6497
 7417TIP3   OH243741   3.830   3.523   2.649  0.5717  0.0101  0.0251
 7417TIP3    H143742   3.761   3.488   2.593 -1.3163 -0.3147  2.3904
 7417TIP3    H243743   3.869   3.445   2.690  0.4780  0.3343  0.7448
 7418TIP3   OH243744   2.452   0.496   3.557  0.1049 -0.2933  0.4271
 7418TIP3    H143745   2.459   0.584   3.521  1.0183 -0.2858  0.5987
 7418TIP3    H243746   2.478   0.438   3.485  0.1912 -0.3803  0.5270
 7419TIP3   OH243747   5.477   1.891  15.271 -0.2203 -0.2906 -0.5790
 7419TIP3    H143748   5.530   1.951  15.218 -0.7242  1.4261  0.7837
 7419TIP3    H243749   5.518   1.892  15.357 -1.5873 -0.0693  0.0966
 7420TIP3   OH243750   1.020   1.704   2.858 -0.2505  0.2588 -0.5989
 7420TIP3    H143751   1.012   1.609   2.853 -1.6624  0.3417 -0.2416
 7420TIP3    H243752   1.011   1.734   2.768 -0.3988  0.0905 -0.6403
 7421TIP3   OH243753   1.562   2.003  10.327 -0.1018  0.1882  0.1793
 7421TIP3    H143754   1.576   2.011  10.233  1.7017  0.3783  0.4257
 7421TIP3    H243755   1.503   2.075  10.349  0.0732  0.6122 -0.7083
 7422TIP3   OH243756   0.254   5.091   2.843  0.0069 -0.6442  0.2769
 7422TIP3    H143757   0.265   5.006   2.885  0.0739 -1.3364 -1.0602
 7422TIP3    H243758   0.251   5.070   2.749 -1.2489  0.6983 -0.0126
 7423TIP3   OH243759   6.127   2.933  16.506  0.4693  0.1845  0.4916
 7423TIP3    H143760   6.152   2.964  16.593  1.4202  0.5308  0.1105
 7423TIP3    H243761   6.035   2.957  16.498  0.7002  1.2994  0.9224
 7424TIP3   OH243762   6.703   2.399  11.539  0.3185  0.0585 -0.2619
 7424TIP3    H143763   6.608   2.388  11.534 -0.0739  2.2192  1.1648
 7424TIP3    H243764   6.727   2.442  11.456  0.1622 -0.9054 -0.8252
 7425TIP3   OH243765   6.566   5.646  15.858  0.2914 -0.4563  0.0240
 7425TIP3    H143766   6.543   5.554  15.845 -2.7352  0.0394  1.0547
 7425TIP3    H243767   6.529   5.668  15.943  2.7325  1.2582  0.7319
 7426TIP3   OH243768   1.736   0.359  13.357  0.3606 -0.3542  0.0189
 7426TIP3    H143769   1.748   0.311  13.439 -0.4467 -0.5717  0.0246
 7426TIP3    H243770   1.824   0.378  13.326  0.6783 -1.1141  0.4460
 7427TIP3   OH243771   2.869   6.653  16.302  0.2392  0.2075  0.5880
 7427TIP3    H143772   2.945   6.650  16.361 -0.0478  0.9921  1.0188
 7427TIP3    H243773   2.809   6.588  16.338  1.2416 -1.4042 -0.5513
 7428TIP3   OH243774   0.748   3.432  16.924 -0.1755  0.3730 -0.2785
 7428TIP3    H143775   0.727   3.365  16.859 -0.4994  0.5377 -0.3481
 7428TIP3    H243776   0.832   3.405  16.960 -1.6419 -1.7422  1.8768
 7429TIP3   OH243777   2.604   2.297   4.116  0.4362 -0.6324  0.3732
 7429TIP3    H143778   2.508   2.291   4.108  0.0938  1.9796  1.5742
 7429TIP3    H243779   2.630   2.213   4.152 -1.5470 -1.0358  1.0002
 7430TIP3   OH243780   4.032   4.802   0.468 -0.0972 -0.5696 -0.3738
 7430TIP3    H143781   4.070   4.784   0.554  0.7316 -1.5981 -0.9355
 7430TIP3    H243782   3.937   4.804   0.485 -0.0246 -1.9649  0.3767
 7431TIP3   OH243783   5.208   6.761   5.363  0.2137 -0.5473  0.1282
 7431TIP3    H143784   5.140   6.722   5.418  1.1620 -0.8763  1.1243
 7431TIP3    H243785   5.254   6.821   5.421  0.1567  0.4263 -0.8039
 7432TIP3   OH243786   3.719   4.851  13.900 -0.3581  0.0004  0.0604
 7432TIP3    H143787   3.792   4.850  13.838 -0.0003 -0.4880  0.4825
 7432TIP3    H243788   3.727   4.769  13.948 -0.5706  0.4200  0.8238
 7433TIP3   OH243789   6.300   0.623  11.952 -0.0398  0.1240  0.0103
 7433TIP3    H143790   6.287   0.702  12.004 -1.7254 -0.1875  0.1466
 7433TIP3    H243791   6.215   0.578  11.957 -0.1753 -0.0772 -2.7142
 7434TIP3   OH243792   0.242   2.062  13.604  0.1868  0.4448 -0.0096
 7434TIP3    H143793   0.326   2.037  13.565  0.4307 -0.2341  0.9110
 7434TIP3    H243794   0.255   2.154  13.630  0.7532  0.2680  0.3719
 7435TIP3   OH243795   2.085   5.656   3.004 -0.3391 -0.5350  0.2630
 7435TIP3    H143796   2.146   5.587   2.977 -1.5381 -2.0468  1.3205
 7435TIP3    H243797   2.005   5.638   2.955 -0.5239  0.4011  0.2031
 7436TIP3   OH243798   3.307   1.030   1.811  0.1727  0.0004  0.0010
 7436TIP3    H143799   3.329   0.937   1.804  1.4223  0.1705  1.2754
 7436TIP3    H243800   3.281   1.042   1.902  0.2759  0.9425 -0.0780
 7437TIP3   OH243801   0.574   1.058   6.562  0.3701 -0.2042 -0.0554
 7437TIP3    H143802   0.503   1.117   6.588  1.2310  0.4845  0.7508
 7437TIP3    H243803   0.652   1.112   6.561  0.8406 -0.8579 -1.3862
 7438TIP3   OH243804   1.266   6.275   2.353  0.6271  0.2753  0.4842
 7438TIP3    H143805   1.197   6.209   2.362 -1.4160  2.1456 -0.5016
 7438TIP3    H243806   1.293   6.294   2.442 -0.0001 -0.6181  0.8788
 7439TIP3   OH243807   3.179   2.257   2.154 -0.8033  0.5129  0.2893
 7439TIP3    H143808   3.216   2.293   2.074 -0.6804 -0.8377 -0.2888
 7439TIP3    H243809   3.089   2.290   2.157 -0.0450  2.6985  0.9904
 7440TIP3   OH243810   3.711   2.326   2.606  0.0432 -0.1254 -0.1600
 7440TIP3    H143811   3.617   2.328   2.589 -0.0707 -2.6134 -0.1131
 7440TIP3    H243812   3.720   2.363   2.694 -1.3119 -2.6110  1.1443
 7441TIP3   OH243813   1.515   1.933   4.789 -0.2279  0.4734  0.0685
 7441TIP3    H143814   1.584   1.896   4.844 -1.1663 -0.1078  0.8809
 7441TIP3    H243815   1.530   1.893   4.703 -1.9699 -2.9977  1.1830
 7442TIP3   OH243816   0.817   2.907  15.092 -0.1404  0.6594 -0.0896
 7442TIP3    H143817   0.868   2.837  15.134 -1.1878  0.5662  1.0734
 7442TIP3    H243818   0.754   2.860  15.037 -0.7647  0.6689  0.5990
 7443TIP3   OH243819   0.829   4.842   5.905 -0.1647 -0.6120  0.9399
 7443TIP3    H143820   0.827   4.913   5.840  0.4737 -2.2524 -0.9607
 7443TIP3    H243821   0.916   4.849   5.944  0.1390 -0.7234  0.3020
 7444TIP3   OH243822   5.345   4.283   1.484  0.0794  0.5114 -0.1658
 7444TIP3    H143823   5.264   4.282   1.432 -0.7427  0.3337  1.0905
 7444TIP3    H243824   5.318   4.309   1.571  0.7764 -2.8781  1.2205
 7445TIP3   OH243825   6.028   1.819   1.797 -0.3710  0.7453  0.2620
 7445TIP3    H143826   6.106   1.872   1.810  0.1486  0.1667 -0.3719
 7445TIP3    H243827   5.967   1.876   1.751  0.5441  0.5447 -1.3133
 7446TIP3   OH243828   0.256   5.101  15.140  0.1095  0.7833 -0.2528
 7446TIP3    H143829   0.271   5.118  15.233  1.4748  0.3764 -0.3844
 7446TIP3    H243830   0.160   5.102  15.131 -0.0189  3.0114  0.7224
 7447TIP3   OH243831   0.644   5.264  13.224 -0.1006 -0.1778 -0.8238
 7447TIP3    H143832   0.710   5.291  13.159  1.0009 -0.5068  0.1164
 7447TIP3    H243833   0.564   5.309  13.198  1.2325  2.7646 -0.2326
 7448TIP3   OH243834   6.392   1.220   3.173 -0.0390  0.4544  0.3273
 7448TIP3    H143835   6.364   1.151   3.232 -2.1844  0.6244 -0.4296
 7448TIP3    H243836   6.485   1.203   3.158 -0.2444 -1.5218  1.1035
 7449TIP3   OH243837   6.669   5.143   2.322  0.1688  0.9499  0.7630
 7449TIP3    H143838   6.590   5.117   2.370  0.0433  0.5595  0.3485
 7449TIP3    H243839   6.660   5.238   2.311 -0.1265  0.9428  0.9233
 7450TIP3   OH243840   4.650   2.484   3.835 -0.4545 -0.1668  0.1640
 7450TIP3    H143841   4.689   2.424   3.771 -0.2390  0.2305 -0.0830
 7450TIP3    H243842   4.643   2.432   3.915 -1.0943 -0.7985 -0.2860
 7451TIP3   OH243843   2.437   2.448   1.290 -0.1265  0.0620 -0.9369
 7451TIP3    H143844   2.474   2.526   1.330  1.3816 -1.1649  0.1828
 7451TIP3    H243845   2.470   2.449   1.200 -1.4080  1.4852 -1.4262
 7452TIP3   OH243846   3.206   5.751  14.826 -0.2842 -0.3804  0.2829
 7452TIP3    H143847   3.243   5.700  14.755  0.5593 -1.7978  1.6828
 7452TIP3    H243848   3.114   5.762  14.802  0.0597 -0.5172 -1.1752
 7453TIP3   OH243849   0.140   4.046  15.176 -0.4496  0.1475  0.5393
 7453TIP3    H143850   0.173   4.002  15.254  0.8524 -0.4159 -0.3000
 7453TIP3    H243851   0.201   4.119  15.163 -1.3501  0.9433  0.7082
 7454TIP3   OH243852   2.116   1.931  15.859  0.0531  0.1441  0.2172
 7454TIP3    H143853   2.184   1.935  15.926  1.5390  0.1639 -1.2260
 7454TIP3    H243854   2.048   1.876  15.897  1.0019 -0.1310  1.5940
 7455TIP3   OH243855   5.981   6.457   1.319 -0.3327  1.0798  0.0274
 7455TIP3    H143856   6.004   6.550   1.326  2.3099  0.4539  1.2854
 7455TIP3    H243857   6.066   6.412   1.310 -1.6486 -1.0721 -3.3508
 7456TIP3   OH243858   5.349   6.701  12.752 -0.1434  0.2135 -0.7414
 7456TIP3    H143859   5.261   6.736  12.766  0.2553  0.7385  0.5151
 7456TIP3    H243860   5.403   6.743  12.818  0.8387 -0.9523 -0.7709
 7457TIP3   OH243861   6.119   2.255   3.285  0.3161  0.6226 -0.3255
 7457TIP3    H143862   6.212   2.270   3.302  0.4947 -0.5825 -0.0942
 7457TIP3    H243863   6.088   2.208   3.363 -0.0493 -0.5876 -1.1662
 7458TIP3   OH243864   3.408   1.017   3.571 -0.1001  0.3323  0.0009
 7458TIP3    H143865   3.341   1.033   3.637  1.4757  3.1952  1.0543
 7458TIP3    H243866   3.368   1.044   3.488 -1.0995 -0.5315  0.1820
 7459TIP3   OH243867   1.259   1.894  13.681 -0.1957 -0.0125 -0.4899
 7459TIP3    H143868   1.289   1.831  13.615  1.5682 -1.5625  1.6172
 7459TIP3    H243869   1.325   1.964  13.679 -0.2021 -0.0049 -0.4430
 7460TIP3   OH243870   6.378   1.273  11.559 -0.1165  0.3939  0.3094
 7460TIP3    H143871   6.470   1.248  11.564  0.0524  1.0847  0.7710
 7460TIP3    H243872   6.380   1.368  11.553 -0.7266  0.3277 -1.7175
 7461TIP3   OH243873   1.137   0.718   3.954 -0.0143 -0.0405  0.0550
 7461TIP3    H143874   1.218   0.700   4.001 -0.5035 -1.1473  0.5067
 7461TIP3    H243875   1.099   0.632   3.938 -0.0903  0.3267 -1.9908
 7462TIP3   OH243876   4.667   4.835   4.196  0.1476 -0.3240  0.4509
 7462TIP3    H143877   4.590   4.888   4.218  0.4472  0.8934 -1.2542
 7462TIP3    H243878   4.737   4.869   4.252  0.2916  0.9955 -0.4999
 7463TIP3   OH243879   6.226   4.107  16.005  0.2065  0.2993 -0.0057
 7463TIP3    H143880   6.252   4.056  16.081  0.7763 -0.1321 -0.4799
 7463TIP3    H243881   6.224   4.198  16.036  0.1567  0.0953  0.5880
 7464TIP3   OH243882   3.649   5.768  13.181 -0.4993  0.6548 -0.3570
 7464TIP3    H143883   3.573   5.710  13.169  1.1083 -1.7317  0.1889
 7464TIP3    H243884   3.627   5.820  13.259 -1.9761  0.7756 -0.8205
 7465TIP3   OH243885   0.233   1.159   3.773  0.4136  0.2912  0.5987
 7465TIP3    H143886   0.284   1.115   3.705 -1.9141 -0.4097 -0.7924
 7465TIP3    H243887   0.239   1.252   3.750  0.7113  0.1759  0.2009
 7466TIP3   OH243888   5.858   1.582  13.925 -0.7891  0.0058 -0.1447
 7466TIP3    H143889   5.763   1.592  13.933 -0.7622 -0.1982  0.5013
 7466TIP3    H243890   5.892   1.604  14.012 -0.2617 -0.1635 -0.3021
 7467TIP3   OH243891   5.170   5.624  14.502  0.0665 -0.2809 -0.0646
 7467TIP3    H143892   5.147   5.699  14.556 -1.6687 -0.5169 -0.4329
 7467TIP3    H243893   5.249   5.652  14.455 -0.5910  1.3434 -0.2663
 7468TIP3   OH243894   1.234   5.307   4.735 -0.3558 -0.2496 -0.2159
 7468TIP3    H143895   1.178   5.324   4.810 -0.0089 -0.3712  0.0712
 7468TIP3    H243896   1.218   5.381   4.676 -1.7868 -0.9301 -0.7272
 7469TIP3   OH243897   3.018   0.873  15.220  0.1001 -0.2435 -0.1971
 7469TIP3    H143898   2.951   0.940  15.228 -0.1753 -0.5340 -0.0330
 7469TIP3    H243899   2.980   0.796  15.263  0.5601 -0.3936 -0.0525
 7470TIP3   OH243900   0.415   3.567   1.777  0.0925  0.0759 -0.0608
 7470TIP3    H143901   0.465   3.510   1.718  0.0149  0.5934 -0.6352
 7470TIP3    H243902   0.356   3.615   1.719 -0.8383 -0.2767  0.5780
 7471TIP3   OH243903   4.035   3.763  15.237 -0.4105 -0.2275  0.2977
 7471TIP3    H143904   4.035   3.728  15.148  1.2152 -0.3492  0.3238
 7471TIP3    H243905   3.953   3.812  15.242 -0.9820 -0.9909 -0.9464
 7472TIP3   OH243906   4.860   0.282  14.666 -0.3005 -0.0989 -0.1393
 7472TIP3    H143907   4.850   0.259  14.574 -0.9436  0.0324 -0.1109
 7472TIP3    H243908   4.770   0.288  14.699 -0.0919  0.4656  0.3427
 7473TIP3   OH243909   3.334   0.171   5.703 -0.0677 -0.1312  0.4413
 7473TIP3    H143910   3.362   0.212   5.622  0.6838  2.1183  1.7545
 7473TIP3    H243911   3.414   0.158   5.753 -0.6547 -0.1125  1.4244
 7474TIP3   OH243912   5.868   6.447  10.693  0.0223  0.3588  0.3509
 7474TIP3    H143913   5.927   6.513  10.731 -0.7376  0.3326  1.6209
 7474TIP3    H243914   5.836   6.488  10.613  0.1272  1.2408  0.7448
 7475TIP3   OH243915   0.157   3.966   0.101  0.2057  0.2630 -0.0469
 7475TIP3    H143916   0.103   4.038   0.131 -1.7907 -1.1552 -0.0599
 7475TIP3    H243917   0.173   3.985   0.008  2.0039  1.9822  0.5268
 7476TIP3   OH243918   0.785   1.989   2.727 -0.4632  0.5185 -0.2401
 7476TIP3    H143919   0.835   1.923   2.679  0.8919  1.4172 -0.1183
 7476TIP3    H243920   0.851   2.051   2.758 -1.8022  3.0211 -1.9851
 7477TIP3   OH243921   3.491   5.937   3.139  0.0692 -0.3744 -0.2162
 7477TIP3    H143922   3.480   5.878   3.214 -0.6529  1.9356  1.6149
 7477TIP3    H243923   3.584   5.958   3.138  0.1796 -0.8647 -0.3388
 7478TIP3   OH243924   1.360   5.233  15.087  0.1059  0.4613 -0.2061
 7478TIP3    H143925   1.408   5.163  15.131  0.9147  0.4316 -1.1089
 7478TIP3    H243926   1.424   5.303  15.076 -0.6376  1.2765  0.4892
 7479TIP3   OH243927   3.240   4.798   2.915 -0.5304 -0.3733 -0.0986
 7479TIP3    H143928   3.301   4.842   2.975 -0.5417 -2.2020  1.3531
 7479TIP3    H243929   3.238   4.853   2.837  0.7050  1.2782  0.9793
 7480TIP3   OH243930   0.494   4.558  12.976 -0.1895 -0.0973 -0.3686
 7480TIP3    H143931   0.498   4.464  12.958 -0.0427  0.0884 -1.3607
 7480TIP3    H243932   0.472   4.598  12.892 -1.7833  0.6496  0.3646
 7481TIP3   OH243933   3.726   3.019  15.038  0.5131  0.1834 -0.2274
 7481TIP3    H143934   3.660   3.060  14.982  0.5650  1.0250  0.3159
 7481TIP3    H243935   3.747   2.937  14.994 -1.3486 -0.4117 -0.1040
 7482TIP3   OH243936   3.242   1.465   5.262 -0.2668 -0.0897  0.1817
 7482TIP3    H143937   3.248   1.371   5.243  0.7111 -0.0623  0.3162
 7482TIP3    H243938   3.200   1.469   5.348  0.2212 -0.4379  0.4456
 7483TIP3   OH243939   3.389   5.251   0.801 -0.4849  0.8184 -0.6103
 7483TIP3    H143940   3.393   5.208   0.715 -2.0618 -0.1083 -0.2462
 7483TIP3    H243941   3.369   5.342   0.781 -3.2743  0.1645 -1.1935
 7484TIP3   OH243942   2.013   2.939  17.052  0.4027 -0.1025 -0.2052
 7484TIP3    H143943   1.932   2.917  17.006 -1.0184  1.9277  1.1554
 7484TIP3    H243944   2.038   3.025  17.019  1.7185 -0.4428 -0.1836
 7485TIP3   OH243945   6.084   0.696   4.900 -0.3948  0.0888 -0.0131
 7485TIP3    H143946   6.071   0.780   4.858 -0.0069  0.5424  0.7512
 7485TIP3    H243947   5.996   0.665   4.921 -0.5807 -0.0703 -0.9988
 7486TIP3   OH243948   5.738   3.481  14.827 -0.4487  0.3205  0.2817
 7486TIP3    H143949   5.655   3.451  14.866 -0.7499 -1.0274 -1.2510
 7486TIP3    H243950   5.711   3.540  14.757 -0.3713 -2.2250 -2.0447
 7487TIP3   OH243951   6.185   5.913   4.722 -0.1845  0.1660  0.2425
 7487TIP3    H143952   6.171   5.819   4.733 -1.0483  0.2880  0.2665
 7487TIP3    H243953   6.146   5.953   4.800  0.3487  0.5298  0.3257
 7488TIP3   OH243954   3.321   1.790  14.430  0.1031  0.2061 -0.0299
 7488TIP3    H143955   3.302   1.707  14.388  0.2867 -0.6259  1.4833
 7488TIP3    H243956   3.250   1.803  14.493  0.6872  0.6112  0.5653
 7489TIP3   OH243957   3.723   2.909   0.861 -0.6573  0.1329  0.4606
 7489TIP3    H143958   3.700   2.974   0.794 -1.3161 -0.6024 -0.0488
 7489TIP3    H243959   3.744   2.961   0.938 -0.9924  0.9616  0.0153
 7490TIP3   OH243960   5.662   3.765  16.286 -0.3538 -0.0357  0.6514
 7490TIP3    H143961   5.668   3.788  16.193 -1.1135  2.5097  1.1572
 7490TIP3    H243962   5.633   3.674  16.286  1.2447 -0.6200 -1.5759
 7491TIP3   OH243963   2.838   5.156   2.270  0.1276  0.1330 -0.0574
 7491TIP3    H143964   2.744   5.140   2.266  0.2195 -0.2449 -0.9226
 7491TIP3    H243965   2.859   5.154   2.363 -0.8106  0.7768  0.1881
 7492TIP3   OH243966   1.329   4.093   0.727 -0.4117 -0.0106 -0.3385
 7492TIP3    H143967   1.409   4.046   0.706 -1.2714 -0.7237 -2.3496
 7492TIP3    H243968   1.349   4.185   0.710 -0.2027 -0.2683 -1.5968
 7493TIP3   OH243969   1.165   6.331  14.244 -0.0716 -0.0327  0.3646
 7493TIP3    H143970   1.124   6.417  14.258 -0.2537  0.1443 -1.0522
 7493TIP3    H243971   1.215   6.342  14.163  0.1634 -1.1798  0.3463
 7494TIP3   OH243972   1.105   6.249  16.370  0.0155  0.3307  0.0915
 7494TIP3    H143973   1.200   6.264  16.378  0.3793 -1.9202  0.6722
 7494TIP3    H243974   1.076   6.234  16.460 -0.1419 -2.6585 -0.3720
 7495TIP3   OH243975   1.640   5.915  11.758 -0.0731 -0.2122 -0.4288
 7495TIP3    H143976   1.596   5.830  11.753 -0.0810 -0.1780 -0.9946
 7495TIP3    H243977   1.652   5.941  11.667  1.2397 -0.2778 -0.2849
 7496TIP3   OH243978   3.370   6.356  10.305  0.1695 -0.1802 -0.1483
 7496TIP3    H143979   3.288   6.372  10.353  0.7891  0.7073  0.6666
 7496TIP3    H243980   3.409   6.443  10.294  1.3824 -0.6562  0.1884
 7497TIP3   OH243981   6.640   4.103   5.248 -0.3110 -0.1980  0.1182
 7497TIP3    H143982   6.595   4.112   5.332  0.4137 -0.1118  0.5097
 7497TIP3    H243983   6.645   4.192   5.214 -0.8368 -0.2661 -0.1450
 7498TIP3   OH243984   5.746   4.281  11.552 -0.4447 -0.8188  0.3277
 7498TIP3    H143985   5.791   4.341  11.494 -1.4343 -0.4799 -0.1088
 7498TIP3    H243986   5.799   4.280  11.632  0.5320 -0.7405 -0.3163
 7499TIP3   OH243987   2.624   5.913  14.041  0.1078 -0.5708 -0.3686
 7499TIP3    H143988   2.586   5.989  14.087  1.0648 -0.3672  0.1072
 7499TIP3    H243989   2.550   5.855  14.026 -0.1392 -1.0576  2.2583
 7500TIP3   OH243990   6.803   4.314   4.142 -0.2839  0.3861 -0.2672
 7500TIP3    H143991   6.724   4.363   4.165 -0.7335 -0.3599 -0.1960
 7500TIP3    H243992   6.818   4.257   4.217 -1.2926 -1.4763 -1.4089
 7501TIP3   OH243993   6.299   1.586   4.488 -0.2609  0.0060 -0.7512
 7501TIP3    H143994   6.389   1.583   4.455  0.5983  0.4481  1.4211
 7501TIP3    H243995   6.290   1.508   4.543 -0.3047  1.2733  1.1247
 7502TIP3   OH243996   2.345   1.662  15.350  0.3525  0.2387 -0.8205
 7502TIP3    H143997   2.332   1.716  15.428  0.6098 -0.5170 -0.2333
 7502TIP3    H243998   2.277   1.595  15.355  1.0490 -0.4841 -0.6216
 7503TIP3   OH243999   6.150   3.934  14.761 -0.1938 -0.0729  0.3094
 7503TIP3    H144000   6.159   3.988  14.839 -0.1187 -0.9549  0.9297
 7503TIP3    H244001   6.240   3.912  14.736  0.0290  2.9528 -2.0562
 7504TIP3   OH244002   3.848   1.962  15.406  0.2921  0.3523 -0.0007
 7504TIP3    H144003   3.850   1.882  15.353  0.3568  0.5983 -0.3718
 7504TIP3    H244004   3.939   1.990  15.412  0.4646 -0.4130  1.3850
 7505TIP3   OH244005   2.640   0.440   4.599 -0.8840 -0.2248  0.1896
 7505TIP3    H144006   2.658   0.376   4.668  0.1135 -1.8257 -1.4605
 7505TIP3    H244007   2.601   0.388   4.528  0.9473  0.7314 -1.6299
 7506TIP3   OH244008   0.662   5.391  12.867 -0.3340  0.2233  0.2166
 7506TIP3    H144009   0.673   5.438  12.784 -0.0039 -1.2148 -0.5901
 7506TIP3    H244010   0.570   5.405  12.890 -0.2258  1.3037  0.0355
 7507TIP3   OH244011   0.060   4.013  11.512  0.7919 -0.5987 -0.0715
 7507TIP3    H144012   0.028   3.955  11.443  1.6565 -1.4447  0.2129
 7507TIP3    H244013  -0.010   4.077  11.524  0.8924  0.0235 -2.2411
 7508TIP3   OH244014   3.816   6.623  11.767  0.5084  0.0119  0.7286
 7508TIP3    H144015   3.819   6.719  11.763  0.2961  0.0497  1.2639
 7508TIP3    H244016   3.902   6.595  11.737 -0.7816  0.1570 -3.7919
 7509TIP3   OH244017   2.647   2.010  13.471  0.2806 -0.1620 -0.7309
 7509TIP3    H144018   2.634   1.928  13.519 -1.6461 -0.1113 -1.1064
 7509TIP3    H244019   2.576   2.067  13.499  1.2881  1.2269 -0.8700
 7510TIP3   OH244020   2.059   2.352  14.973  0.1652 -0.2926  0.0487
 7510TIP3    H144021   2.070   2.332  15.066 -1.3918  0.6390  0.4832
 7510TIP3    H244022   1.964   2.364  14.963  0.2254 -1.0385 -1.8117
 7511TIP3   OH244023   6.716   4.322   0.864  0.2039  0.2702  0.3495
 7511TIP3    H144024   6.628   4.283   0.859 -0.4459  1.5707  1.1381
 7511TIP3    H244025   6.732   4.333   0.958  1.8716 -1.3337  0.2968
 7512TIP3   OH244026   0.152   3.681   2.389 -0.1022  0.1434 -0.2920
 7512TIP3    H144027   0.066   3.717   2.412 -0.9513 -2.0925  0.2076
 7512TIP3    H244028   0.154   3.595   2.430  1.4760 -0.7946 -2.1818
 7513TIP3   OH244029   6.044   0.668  14.006  0.1688 -0.0462 -0.2794
 7513TIP3    H144030   5.983   0.728  14.049 -0.1261  0.1400 -0.9404
 7513TIP3    H244031   6.124   0.719  13.994 -0.6169  0.7938 -2.3353
 7514TIP3   OH244032   3.428   5.751  13.970 -0.1368 -0.9602 -0.1989
 7514TIP3    H144033   3.404   5.833  14.013 -1.6889 -1.1927 -0.5791
 7514TIP3    H244034   3.511   5.770  13.926  1.5293 -0.6859  2.7808
 7515TIP3   OH244035   5.132   0.090   5.608 -0.0512  0.3832  0.1645
 7515TIP3    H144036   5.170   0.015   5.652 -1.7059 -1.2254 -1.0106
 7515TIP3    H244037   5.040   0.090   5.636 -0.3453  1.2825 -0.7322
 7516TIP3   OH244038   5.845   4.809   6.050  0.1814  0.2062  0.0692
 7516TIP3    H144039   5.904   4.883   6.068  0.6749 -0.2863  0.5135
 7516TIP3    H244040   5.787   4.806   6.126 -0.0739  0.3623 -0.1200
 7517TIP3   OH244041   1.830   1.256   5.154 -0.3661 -0.6820  0.9542
 7517TIP3    H144042   1.916   1.294   5.170 -0.0827 -1.2740  0.8349
 7517TIP3    H244043   1.812   1.203   5.231 -0.1434 -1.4370  0.4908
 7518TIP3   OH244044   2.938   3.804   6.420 -0.7625  0.2729  0.2928
 7518TIP3    H144045   3.032   3.796   6.404 -0.8308 -0.3574  0.1705
 7518TIP3    H244046   2.906   3.714   6.421 -1.6710  0.5386 -1.5172
 7519TIP3   OH244047   2.123   4.657  16.687  0.2776 -0.4921 -0.4902
 7519TIP3    H144048   2.177   4.688  16.759  0.2380  0.6627 -0.9366
 7519TIP3    H244049   2.043   4.710  16.692  0.0463 -0.7716 -1.0559
 7520TIP3   OH244050   5.615   3.911   1.793 -0.3689  0.0249  0.4609
 7520TIP3    H144051   5.568   3.984   1.753  0.0279 -0.5103 -1.0164
 7520TIP3    H244052   5.613   3.841   1.728  0.1732 -0.9314  1.4275
 7521TIP3   OH244053   3.842   2.574  14.636  0.4968 -0.5356  0.0083
 7521TIP3    H144054   3.758   2.603  14.672  0.1322 -1.9404  0.3583
 7521TIP3    H244055   3.820   2.498  14.583  1.5404 -0.8599  0.0193
 7522TIP3   OH244056   0.971   2.170  11.626 -0.4731 -0.6509 -0.2205
 7522TIP3    H144057   1.032   2.107  11.586  0.3360  0.3380 -0.6059
 7522TIP3    H244058   1.024   2.215  11.692 -0.9352 -0.1557 -0.1809
 7523TIP3   OH244059   5.632   4.804   3.998 -0.6840  0.0274 -0.0557
 7523TIP3    H144060   5.644   4.880   3.941 -1.3360 -1.1355 -1.8500
 7523TIP3    H244061   5.719   4.765   4.005 -0.1715  1.3998  1.6159
 7524TIP3   OH244062   0.533   0.719  16.874 -0.0517  0.0940  0.5957
 7524TIP3    H144063   0.549   0.651  16.940 -0.0201 -0.1210  0.3654
 7524TIP3    H244064   0.484   0.675  16.805  2.7668 -0.5718 -1.1493
 7525TIP3   OH244065   5.167   0.295  12.779 -0.3161 -0.1724  0.7216
 7525TIP3    H144066   5.081   0.287  12.739 -0.7439  1.1858  1.2822
 7525TIP3    H244067   5.148   0.314  12.871  0.5347  0.9172  0.6989
 7526TIP3   OH244068   0.467   4.673   3.209 -0.2744 -0.2519 -0.2432
 7526TIP3    H144069   0.480   4.587   3.249 -0.2947 -0.5304 -0.8200
 7526TIP3    H244070   0.444   4.653   3.118 -1.4776  0.3239 -0.0755
 7527TIP3   OH244071   2.456   0.647   0.606 -0.3271  0.1694 -0.1900
 7527TIP3    H144072   2.547   0.670   0.591 -0.3819  0.2114 -0.4713
 7527TIP3    H244073   2.440   0.573   0.547  0.2103 -1.4857  1.6057
 7528TIP3   OH244074   6.091   3.957  12.435  0.5195  0.3160  0.1951
 7528TIP3    H144075   6.050   4.043  12.444  3.7848  2.0349 -0.1420
 7528TIP3    H244076   6.096   3.942  12.341 -1.5082 -1.1167  0.2452
 7529TIP3   OH244077   6.789   2.752   4.001 -0.0325 -0.3500 -0.2456
 7529TIP3    H144078   6.710   2.800   3.975  0.2791  0.2947 -0.0126
 7529TIP3    H244079   6.851   2.819   4.027  0.0354 -0.9255  1.1716
 7530TIP3   OH244080   4.066   2.821   3.740 -0.1560 -0.6218 -0.3434
 7530TIP3    H144081   3.976   2.814   3.772 -0.7483  0.1066 -1.7493
 7530TIP3    H244082   4.058   2.868   3.657  1.5855 -0.0811 -0.2390
 7531TIP3   OH244083   4.475   3.456   4.953 -0.2239 -0.1199  0.1868
 7531TIP3    H144084   4.449   3.517   4.884  0.3946  0.5635  0.5471
 7531TIP3    H244085   4.396   3.406   4.972 -0.9013  0.9678  0.2872
 7532TIP3   OH244086   0.436   4.694   5.715  0.8994  0.2299 -0.2993
 7532TIP3    H144087   0.517   4.737   5.687 -0.0019  2.2445  0.0132
 7532TIP3    H244088   0.371   4.720   5.651  0.8255 -3.0764 -1.7711
 7533TIP3   OH244089   4.717   0.327   6.480 -0.1897  0.0352  0.2856
 7533TIP3    H144090   4.687   0.300   6.393 -2.8089 -2.0738  1.6594
 7533TIP3    H244091   4.758   0.249   6.517  1.2972  1.0319  0.8309
 7534TIP3   OH244092   3.328   0.441   5.885  0.1753 -0.4742 -0.1934
 7534TIP3    H144093   3.380   0.365   5.911 -0.0692 -1.5088 -2.4751
 7534TIP3    H244094   3.344   0.451   5.791 -0.0088  2.1855 -0.0238
 7535TIP3   OH244095   1.773   3.964  16.756  0.7400  0.1731  0.0870
 7535TIP3    H144096   1.717   3.916  16.817  0.8294 -1.1833 -0.8411
 7535TIP3    H244097   1.743   4.054  16.760 -0.5983 -0.2803  0.6173
 7536TIP3   OH244098   4.055   5.865  15.566 -0.2255  0.5008  0.4694
 7536TIP3    H144099   4.100   5.888  15.484 -1.6419  1.7614  0.0117
 7536TIP3    H244100   4.008   5.784  15.545  0.2872  0.2241  0.3745
 7537TIP3   OH244101   2.217   6.450   3.363 -0.7251  0.0518  0.6893
 7537TIP3    H144102   2.193   6.490   3.446 -0.1689  0.8231  0.4885
 7537TIP3    H244103   2.282   6.384   3.386 -1.0123 -0.1572  0.9215
 7538TIP3   OH244104   5.187   5.167   3.496 -0.0578  0.2150 -0.1607
 7538TIP3    H144105   5.095   5.144   3.492  0.5400 -2.2919 -2.5824
 7538TIP3    H244106   5.194   5.250   3.447 -0.6855 -1.2472 -2.9148
 7539TIP3   OH244107   1.735   2.119   3.989 -0.1737  0.5283 -0.3676
 7539TIP3    H144108   1.684   2.148   3.914 -0.7438 -0.4144 -0.3629
 7539TIP3    H244109   1.738   2.023   3.981  1.0663  0.5241 -0.0248
 7540TIP3   OH244110   1.038   1.756   5.152 -0.3925  0.5863  0.2566
 7540TIP3    H144111   0.990   1.773   5.233 -1.4250 -1.8921  0.2629
 7540TIP3    H244112   1.101   1.827   5.145 -1.0519  1.4730  2.6331
 7541TIP3   OH244113   4.038   5.281   0.748  0.2784  0.4737  0.2293
 7541TIP3    H144114   4.017   5.371   0.726 -1.2876 -0.0791 -0.7507
 7541TIP3    H244115   4.027   5.233   0.666  1.1473 -0.5986  0.7153
 7542TIP3   OH244116   5.720   3.483  13.071  0.4885  0.2842  0.4067
 7542TIP3    H144117   5.693   3.532  12.994 -0.3518 -0.3004  0.3140
 7542TIP3    H244118   5.649   3.496  13.134  0.1716 -0.9415  0.3196
 7543TIP3   OH244119   2.916   2.231  13.652  0.4857  0.7750 -0.0809
 7543TIP3    H144120   3.002   2.190  13.647 -0.0869 -0.4355 -0.5359
 7543TIP3    H244121   2.862   2.166  13.697  0.1384  2.1155  1.5489
 7544TIP3   OH244122   4.940   0.362   2.866 -0.7132 -0.0618 -0.2264
 7544TIP3    H144123   4.983   0.414   2.798  1.2179 -1.5605 -0.2495
 7544TIP3    H244124   4.955   0.411   2.946  0.6731 -0.3007 -0.3154
 7545TIP3   OH244125   6.508   2.406   2.200  0.6073 -0.4528  0.3038
 7545TIP3    H144126   6.560   2.475   2.241  1.1210 -0.2769 -0.5993
 7545TIP3    H244127   6.466   2.449   2.126  0.4813 -0.9775  0.0694
 7546TIP3   OH244128   2.589   5.863  16.874 -0.3850  0.2955 -0.0803
 7546TIP3    H144129   2.537   5.838  16.798 -1.3876 -0.2614  0.7584
 7546TIP3    H244130   2.542   5.939  16.910  0.1954  0.6815 -0.1389
 7547TIP3   OH244131   2.500   2.765  16.708 -0.2658 -0.4086 -0.6958
 7547TIP3    H144132   2.460   2.778  16.622 -1.2753 -0.4200 -0.2419
 7547TIP3    H244133   2.428   2.779  16.770  0.3092 -0.9842  0.1183
 7548TIP3   OH244134   1.007   0.851   1.383 -0.8042  0.2553  0.0093
 7548TIP3    H144135   1.025   0.788   1.453  2.7150  0.7712 -0.2278
 7548TIP3    H244136   1.087   0.903   1.377 -2.8789  3.6442 -1.0001
 7549TIP3   OH244137   1.627   0.427   4.498 -0.0149  0.5856 -1.0243
 7549TIP3    H144138   1.567   0.444   4.426 -0.5278 -2.0051 -1.3045
 7549TIP3    H244139   1.702   0.382   4.458 -0.5261 -1.3431  0.0129
 7550TIP3   OH244140   4.507   4.121  15.497 -0.0641  0.1464 -0.3560
 7550TIP3    H144141   4.596   4.120  15.530 -0.3597 -1.4636  0.4701
 7550TIP3    H244142   4.477   4.031  15.503 -2.2545  0.8731  0.8016
 7551TIP3   OH244143   5.965   1.396   0.270  0.0977 -0.0605 -0.8815
 7551TIP3    H144144   5.955   1.421   0.178 -1.0210  1.9133 -0.2819
 7551TIP3    H244145   5.978   1.479   0.316  1.5317 -1.0816  0.6596
 7552TIP3   OH244146   1.880   1.803  17.081  0.2750 -0.4738  0.0503
 7552TIP3    H144147   1.832   1.758  17.010  2.3673 -2.1605 -0.3856
 7552TIP3    H244148   1.947   1.853  17.036  1.6878 -1.6367  0.7924
 7553TIP3   OH244149   5.521   1.392   5.480 -0.1065  0.3675  0.3829
 7553TIP3    H144150   5.551   1.383   5.390  0.4003 -0.4490  0.6260
 7553TIP3    H244151   5.600   1.410   5.530  0.2222 -2.8467  1.1820
 7554TIP3   OH244152   1.899   1.415   4.158 -0.3191  0.0378  0.2569
 7554TIP3    H144153   1.827   1.359   4.128  0.1145  0.7200 -2.3140
 7554TIP3    H244154   1.968   1.402   4.092  1.5925  0.1124  2.1334
 7555TIP3   OH244155   0.261   4.109  13.149  0.6744  0.1430  0.1039
 7555TIP3    H144156   0.188   4.082  13.205  0.7466 -0.5601 -0.1379
 7555TIP3    H244157   0.265   4.204  13.160 -0.5252  0.2450 -0.1755
 7556TIP3   OH244158   2.450   1.557  13.521  0.0693  0.3750 -0.1103
 7556TIP3    H144159   2.395   1.493  13.565 -0.5142  0.1729 -1.1183
 7556TIP3    H244160   2.538   1.542  13.557 -0.5278  0.8697  1.7025
 7557TIP3   OH244161   3.334   6.552  13.418  0.2390 -0.2386  0.6519
 7557TIP3    H144162   3.382   6.478  13.383  0.1610  0.3275 -0.7064
 7557TIP3    H244163   3.372   6.628  13.374  0.1640  0.5133  1.8437
 7558TIP3   OH244164   3.665   3.823   0.081 -0.1722 -0.0007 -0.6460
 7558TIP3    H144165   3.657   3.918   0.087  0.6787  0.0138  0.6256
 7558TIP3    H244166   3.577   3.790   0.095 -0.2836  0.5682 -0.0004
 7559TIP3   OH244167   4.060   3.487   4.915  0.1187 -0.9777 -0.1798
 7559TIP3    H144168   4.057   3.566   4.969  0.5788 -0.9753 -0.1532
 7559TIP3    H244169   4.105   3.422   4.970  0.6731 -0.9469 -0.5952
 7560TIP3   OH244170   3.409   3.154  17.137  0.5459 -0.3233  0.4125
 7560TIP3    H144171   3.434   3.192  17.221 -0.2567  0.5142  0.3010
 7560TIP3    H244172   3.313   3.149  17.142  0.3304  1.2870 -1.0443
 7561TIP3   OH244173   1.155   6.075  14.081  0.3105  0.6129  0.5853
 7561TIP3    H144174   1.166   6.169  14.070  0.2849  0.8949  2.5477
 7561TIP3    H244175   1.093   6.049  14.013 -0.6507  2.2402  0.8046
 7562TIP3   OH244176   5.736   1.508  15.033  0.3205  0.1238 -0.1798
 7562TIP3    H144177   5.816   1.456  15.027 -0.3822 -0.8588 -1.9237
 7562TIP3    H244178   5.726   1.527  15.126  3.5110  1.8191 -0.0516
 7563TIP3   OH244179   1.992   6.009  15.660 -0.0891  0.0244 -0.8250
 7563TIP3    H144180   1.998   5.914  15.660 -0.7578 -0.0498  0.8481
 7563TIP3    H244181   1.926   6.029  15.593 -2.5232 -0.9696  1.1233
 7564TIP3   OH244182   3.455   2.277  12.270  0.2241 -0.1911 -0.8893
 7564TIP3    H144183   3.365   2.309  12.265  0.5399  1.0980  0.7216
 7564TIP3    H244184   3.447   2.182  12.263 -1.5045 -0.2895  1.2873
 7565TIP3   OH244185   6.287   3.675  15.624  0.2515  0.1499 -0.0979
 7565TIP3    H144186   6.307   3.767  15.608 -2.2773  1.0333  1.1304
 7565TIP3    H244187   6.246   3.645  15.543  0.5595  0.2683 -0.2988
 7566TIP3   OH244188   5.418   3.664  10.435 -0.2177  0.0521  0.1830
 7566TIP3    H144189   5.476   3.642  10.508  0.8037  1.4780 -0.1594
 7566TIP3    H244190   5.367   3.585  10.421  0.5847 -0.7425  1.4940
 7567TIP3   OH244191   1.697   4.146  14.988  0.0982  0.1841 -0.2266
 7567TIP3    H144192   1.772   4.134  14.930  0.7162  0.4018  0.5147
 7567TIP3    H244193   1.629   4.090  14.951 -0.1690  1.7511 -2.2654
 7568TIP3   OH244194   1.660   6.573  11.081  0.6559  0.7322 -0.6492
 7568TIP3    H144195   1.598   6.643  11.103  0.4273  1.2581 -2.7356
 7568TIP3    H244196   1.736   6.590  11.137 -0.3580  1.1526  0.6455
 7569TIP3   OH244197   4.372   2.829   5.720 -0.0609  0.0798 -0.3809
 7569TIP3    H144198   4.344   2.906   5.769 -0.3788 -0.3900  0.1914
 7569TIP3    H244199   4.464   2.818   5.742 -0.2754 -0.3085  0.3833
 7570TIP3   OH244200   3.776   4.786  12.675  0.2137  0.3847  0.2259
 7570TIP3    H144201   3.718   4.838  12.730  0.6224  2.0990 -0.8861
 7570TIP3    H244202   3.719   4.750  12.607  0.2348  0.9981 -0.1201
 7571TIP3   OH244203   2.109   5.808   2.767 -0.2686  0.0381 -0.9128
 7571TIP3    H144204   2.049   5.736   2.750 -1.6404  1.1379 -0.9735
 7571TIP3    H244205   2.094   5.831   2.859  0.4791 -0.0314 -0.7642
 7572TIP3   OH244206   4.405   4.161   0.629  0.2165 -0.2045  0.1196
 7572TIP3    H144207   4.402   4.065   0.626  0.5696 -0.2817  1.6715
 7572TIP3    H244208   4.451   4.185   0.549  1.7833 -1.4410  0.5814
 7573TIP3   OH244209   3.800   0.854  11.840 -0.1135 -0.2761  0.5366
 7573TIP3    H144210   3.781   0.939  11.801  2.3922  0.1561  0.0549
 7573TIP3    H244211   3.790   0.791  11.769  1.0365  0.0486  0.0722
 7574TIP3   OH244212   4.120   5.893   3.394  0.1804 -0.0023  0.2039
 7574TIP3    H144213   4.078   5.952   3.457  0.4953  0.0180  0.3975
 7574TIP3    H244214   4.184   5.947   3.349 -0.3738  0.0975 -0.4706
 7575TIP3   OH244215   3.116   5.096  15.094 -0.5043  0.1434 -0.4745
 7575TIP3    H144216   3.178   5.102  15.167  2.4270 -2.3415 -2.5690
 7575TIP3    H244217   3.052   5.031  15.123  0.4021 -0.5313  0.0888
 7576TIP3   OH244218   4.923   4.163  16.324  0.2366  0.2753  0.0116
 7576TIP3    H144219   4.923   4.071  16.348 -0.3317  0.3225  0.1988
 7576TIP3    H244220   4.832   4.183  16.305 -0.1324  1.4562  2.5379
 7577TIP3   OH244221   5.926   4.619   4.820  0.2670 -0.1783 -0.2640
 7577TIP3    H144222   5.969   4.634   4.736 -1.8615  0.4776 -1.2825
 7577TIP3    H244223   5.833   4.610   4.799 -0.2663 -0.4684  1.9723
 7578TIP3   OH244224   0.702   2.453   0.558 -0.4208  0.4837 -0.2687
 7578TIP3    H144225   0.657   2.538   0.561  0.9572  1.2130  0.8520
 7578TIP3    H244226   0.709   2.427   0.650 -0.6416 -0.7755 -0.5842
 7579TIP3   OH244227   1.156   3.159   6.082  0.2026  0.3773 -0.3619
 7579TIP3    H144228   1.250   3.159   6.102  0.4132 -0.7729 -1.2608
 7579TIP3    H244229   1.125   3.244   6.112  1.2488  0.2284  1.2428
 7580TIP3   OH244230   0.652   4.847   2.826 -0.8275  0.2868  0.3819
 7580TIP3    H144231   0.647   4.896   2.744  1.6932 -0.4007 -0.2679
 7580TIP3    H244232   0.746   4.842   2.845 -1.0864 -2.7559  1.3409
 7581TIP3   OH244233   5.036   4.399  16.855  0.4383  0.5349 -0.4959
 7581TIP3    H144234   5.013   4.310  16.830  0.3274  0.4910 -0.2454
 7581TIP3    H244235   5.131   4.397  16.869  0.3717  0.3495 -0.0647
 7582TIP3   OH244236   5.419   1.394   0.029  0.5611  0.2156  0.1353
 7582TIP3    H144237   5.391   1.485   0.021 -0.5797 -0.1423 -0.1151
 7582TIP3    H244238   5.346   1.343  -0.006  1.4213 -0.7733 -0.2751
 7583TIP3   OH244239   1.579   6.205  15.355  0.1749 -0.2760 -0.2021
 7583TIP3    H144240   1.489   6.173  15.343 -0.1224  0.2413  0.5243
 7583TIP3    H244241   1.587   6.277  15.293 -0.3196  0.4249  0.5189
 7584TIP3   OH244242   4.330   6.173   3.931  0.0553 -0.9169  0.0778
 7584TIP3    H144243   4.362   6.226   4.004 -2.8226  0.1792  0.6833
 7584TIP3    H244244   4.408   6.152   3.880  1.8222  0.4903  2.0420
 7585TIP3   OH244245   5.985   4.049  11.056  0.3757  0.7117 -0.4153
 7585TIP3    H144246   5.898   4.088  11.047 -0.3817 -0.8326 -0.2185
 7585TIP3    H244247   5.998   4.043  11.151  0.9843  1.5170 -0.4412
 7586TIP3   OH244248   4.672   1.952  11.645  0.0886  0.5081  0.2127
 7586TIP3    H144249   4.717   1.965  11.561  0.6429 -0.7264  0.2954
 7586TIP3    H244250   4.641   1.862  11.642 -2.8751  1.4334 -0.0379
 7587TIP3   OH244251   5.903   2.336  15.190 -0.1678 -0.3079  0.2721
 7587TIP3    H144252   5.867   2.372  15.110  0.2528 -0.7882 -0.1384
 7587TIP3    H244253   5.938   2.412  15.237 -0.3903 -0.0314 -0.0103
 7588TIP3   OH244254   5.568   2.439   2.442  0.0865  0.1748  0.7194
 7588TIP3    H144255   5.569   2.356   2.491 -0.3884 -0.4677 -0.3051
 7588TIP3    H244256   5.513   2.420   2.366  1.1749  0.9904 -0.2992
 7589TIP3   OH244257   4.497   5.470  11.601 -0.5065 -0.0370 -0.6264
 7589TIP3    H144258   4.425   5.444  11.659 -1.0776  0.9198 -0.8793
 7589TIP3    H244259   4.490   5.565  11.595 -0.5167 -0.1042 -2.3158
 7590TIP3   OH244260   4.662   2.244  14.448  0.3601 -0.9417  0.3994
 7590TIP3    H144261   4.720   2.185  14.498  0.7702 -1.6806 -0.9077
 7590TIP3    H244262   4.676   2.330  14.488 -1.0331 -1.8219  3.0628
 7591TIP3   OH244263   6.201   3.556  12.672 -0.5159  0.5721 -0.0000
 7591TIP3    H144264   6.163   3.530  12.588  0.9639 -0.9357 -0.2718
 7591TIP3    H244265   6.288   3.589  12.650  0.3022 -0.8182  0.9931
 7592TIP3   OH244266   5.387   1.261   2.385  0.0212 -0.0236  0.4042
 7592TIP3    H144267   5.436   1.222   2.312 -0.1038 -0.1590  0.3928
 7592TIP3    H244268   5.407   1.205   2.460  0.9434  0.6871  0.7032
 7593TIP3   OH244269   6.549   1.625  16.266 -0.2027  0.1711 -0.5057
 7593TIP3    H144270   6.536   1.720  16.273 -0.8423 -0.0020  1.3673
 7593TIP3    H244271   6.643   1.616  16.249  0.5464  1.1517  2.3521
 7594TIP3   OH244272   0.771   0.069  12.202  0.1540  0.5015  0.1954
 7594TIP3    H144273   0.704   0.138  12.205  0.8885  1.1972  1.7777
 7594TIP3    H244274   0.763   0.032  12.114 -2.2016  0.6410  0.2844
 7595TIP3   OH244275   6.500   3.409   0.368  0.0948  0.4210 -0.4313
 7595TIP3    H144276   6.578   3.421   0.422 -1.1071 -0.6115  1.6642
 7595TIP3    H244277   6.531   3.361   0.291  1.5141 -0.0255  0.3798
 7596TIP3   OH244278   4.106   6.477   5.572 -0.0297  0.2714  0.1095
 7596TIP3    H144279   4.022   6.519   5.554  0.2732  0.1079 -1.9045
 7596TIP3    H244280   4.171   6.542   5.545  0.4533 -1.1275 -2.4161
 7597TIP3   OH244281   0.528   2.849  12.211 -0.4013 -0.8139  0.0412
 7597TIP3    H144282   0.549   2.820  12.300  0.3853 -0.7764 -0.1266
 7597TIP3    H244283   0.603   2.820  12.159 -0.2318  0.3348 -0.3716
 7598TIP3   OH244284   6.524   3.211  12.625  0.1995  0.1172  0.5764
 7598TIP3    H144285   6.519   3.259  12.708 -3.0261  0.7358  0.1589
 7598TIP3    H244286   6.559   3.125  12.649  0.4156  0.6519  2.3572
 7599TIP3   OH244287   6.474   1.108   4.907  0.6129 -0.2566  0.2399
 7599TIP3    H144288   6.430   1.137   4.827 -3.1064 -1.8913  1.4230
 7599TIP3    H244289   6.499   1.017   4.889  0.8067 -0.2722  0.5665
 7600TIP3   OH244290   2.255   2.988  16.651  0.5565 -0.4989 -0.0303
 7600TIP3    H144291   2.269   2.933  16.728  0.6491  1.0233  1.0845
 7600TIP3    H244292   2.186   2.943  16.602  0.8887 -1.7844  0.6233
 7601TIP3   OH244293   1.539   5.084   4.225  0.0412  0.5515  0.3109
 7601TIP3    H144294   1.465   5.057   4.279 -0.2950 -1.7438 -1.1575
 7601TIP3    H244295   1.545   5.178   4.238 -2.9291  0.7761  0.7671
 7602TIP3   OH244296   0.646   2.357   4.057 -0.5723  0.2109  0.4497
 7602TIP3    H144297   0.664   2.451   4.056  1.1294 -0.0758 -0.8923
 7602TIP3    H244298   0.622   2.338   4.147  0.7074  1.6433  1.1403
 7603TIP3   OH244299   5.477   4.467  12.496 -0.0090  0.0217 -0.1348
 7603TIP3    H144300   5.392   4.499  12.466 -0.0298 -0.3217 -0.4496
 7603TIP3    H244301   5.462   4.435  12.585 -0.5391 -1.3468 -0.6868
 7604TIP3   OH244302   5.996   4.423  13.339  0.2926  0.8284 -0.1578
 7604TIP3    H144303   5.937   4.369  13.287 -0.5223  1.6279 -0.0870
 7604TIP3    H244304   5.950   4.507  13.347  0.5016  0.7885  1.6766
 7605TIP3   OH244305   6.653   6.007   0.868 -0.4103 -0.0938 -0.7504
 7605TIP3    H144306   6.579   5.976   0.919 -0.5006 -0.8344 -1.3227
 7605TIP3    H244307   6.614   6.065   0.802 -0.2612  1.1292  0.1949
 7606TIP3   OH244308   5.195   0.334  16.217 -0.4012 -0.5145 -0.1711
 7606TIP3    H144309   5.193   0.314  16.124 -1.6674 -2.2077  0.1533
 7606TIP3    H244310   5.197   0.429  16.222 -0.3908 -0.3969 -1.9277
 7607TIP3   OH244311   2.744   5.460   5.608  0.2764  0.0193  0.0977
 7607TIP3    H144312   2.793   5.406   5.669 -0.6726 -0.1757  0.7249
 7607TIP3    H244313   2.750   5.415   5.524 -0.0362 -0.7707  0.4890
 7608TIP3   OH244314   2.693   0.886   6.143 -0.2448 -0.4603  0.2125
 7608TIP3    H144315   2.780   0.861   6.175 -0.3361  0.0275  0.8524
 7608TIP3    H244316   2.677   0.828   6.069  0.1493 -1.3209  0.7945
 7609TIP3   OH244317   0.438   5.330  17.191  0.6197  0.0120 -0.2450
 7609TIP3    H144318   0.418   5.295  17.278  2.5312  0.6330  0.5210
 7609TIP3    H244319   0.490   5.262  17.149 -1.5265 -0.9036 -1.5349
 7610TIP3   OH244320   4.956   5.765   2.048 -0.6403  0.1277  0.2219
 7610TIP3    H144321   4.912   5.680   2.034 -1.1350  0.5196 -0.6823
 7610TIP3    H244322   5.020   5.771   1.978 -2.3383  1.6006 -1.2994
 7611TIP3   OH244323   3.107   3.578   1.639  0.0953  0.1513  0.3052
 7611TIP3    H144324   3.193   3.613   1.660 -0.3465  2.0570 -0.8279
 7611TIP3    H244325   3.050   3.609   1.709  0.0231  0.2699  0.1947
 7612TIP3   OH244326   3.624   1.638  14.483  0.4522  0.2578  0.2420
 7612TIP3    H144327   3.696   1.701  14.472  0.5690  0.0979  0.0863
 7612TIP3    H244328   3.554   1.673  14.428  0.8726 -0.2903 -0.6563
 7613TIP3   OH244329   4.249   1.638  14.308 -0.0470 -0.3385  0.2292
 7613TIP3    H144330   4.343   1.644  14.325  0.0686 -1.0795 -0.0830
 7613TIP3    H244331   4.239   1.555  14.262 -0.8140 -0.1051 -0.0394
 7614TIP3   OH244332   6.723   6.772   3.738  0.4358 -1.0600 -0.3926
 7614TIP3    H144333   6.672   6.809   3.666  0.6905 -1.0475 -0.5653
 7614TIP3    H244334   6.706   6.678   3.733  1.8192 -1.2866 -1.5554
 7615TIP3   OH244335   4.617   4.104   3.745 -0.0818  0.1961 -0.2660
 7615TIP3    H144336   4.566   4.110   3.825  0.8618 -0.1667  0.3700
 7615TIP3    H244337   4.700   4.065   3.771  0.2625  0.1159 -1.4071
 7616TIP3   OH244338   3.674   1.758  16.724 -0.1653 -0.2363 -0.3900
 7616TIP3    H144339   3.655   1.736  16.633  0.6503 -1.9531 -0.1857
 7616TIP3    H244340   3.593   1.738  16.771  0.7399 -4.0992 -0.0669
 7617TIP3   OH244341   3.362   0.881   1.147  0.1056  0.0763 -0.7220
 7617TIP3    H144342   3.411   0.906   1.068 -0.2298  1.3848 -0.5438
 7617TIP3    H244343   3.367   0.786   1.149 -0.0885 -0.0194 -2.4741
 7618TIP3   OH244344   4.188   4.946   3.679 -0.0126 -0.2219  0.0701
 7618TIP3    H144345   4.207   4.862   3.639 -1.2976 -0.9328  0.8980
 7618TIP3    H244346   4.192   5.009   3.607 -0.4837 -1.2003 -0.8327
 7619TIP3   OH244347   5.296   6.309   5.925  0.3774  0.4401  0.0470
 7619TIP3    H144348   5.232   6.318   5.996 -0.1363  0.4895 -0.4076
 7619TIP3    H244349   5.351   6.387   5.932 -0.0233  0.7292  0.0547
 7620TIP3   OH244350   1.679   2.646  15.830  0.9408  0.4700 -0.0860
 7620TIP3    H144351   1.698   2.725  15.779  0.1309  0.3441 -0.5944
 7620TIP3    H244352   1.638   2.678  15.910  0.4693  0.5538 -0.3614
 7621TIP3   OH244353   2.960   0.027   4.765  0.6961  0.2944 -0.1406
 7621TIP3    H144354   2.976   0.040   4.859  0.2730 -0.7090  0.0832
 7621TIP3    H244355   3.048   0.021   4.727  0.8859  1.9311 -0.0050
 7622TIP3   OH244356   6.514   1.919   1.524  0.5089 -0.2225 -0.0007
 7622TIP3    H144357   6.491   2.005   1.559  2.5600 -0.0366  1.0463
 7622TIP3    H244358   6.566   1.938   1.446 -1.1007 -0.6099 -1.2428
 7623TIP3   OH244359   6.763   5.265  15.875 -0.1126 -0.0899  0.3816
 7623TIP3    H144360   6.671   5.272  15.902 -0.2708 -0.7688  0.0527
 7623TIP3    H244361   6.811   5.319  15.938 -0.6477 -0.3684  1.0414
 7624TIP3   OH244362   3.012   5.579   3.286 -0.3142  0.2261  0.0582
 7624TIP3    H144363   3.015   5.486   3.265 -0.6478 -0.1459  1.5252
 7624TIP3    H244364   3.101   5.611   3.268 -0.4382 -0.1477 -1.3274
 7625TIP3   OH244365   1.245   1.880  10.020  0.2435 -0.4017 -0.3583
 7625TIP3    H144366   1.235   1.800  10.073 -0.4522  0.0736  0.2586
 7625TIP3    H244367   1.234   1.951  10.083 -1.2060  0.1827 -1.2294
 7626TIP3   OH244368   3.085   1.585  15.355 -0.0326  0.0703  0.4664
 7626TIP3    H144369   3.019   1.631  15.302  1.6626  1.9931 -0.1024
 7626TIP3    H244370   3.036   1.550  15.429 -1.7139  1.4275  0.0699
 7627TIP3   OH244371   2.171   1.458   5.073 -0.0047 -0.3032  0.2456
 7627TIP3    H144372   2.248   1.500   5.034  1.9145 -1.0456  2.9227
 7627TIP3    H244373   2.097   1.505   5.035  1.8211  1.9848 -0.7877
 7628TIP3   OH244374   5.070   0.080  13.093 -0.2097  0.0968 -1.1375
 7628TIP3    H144375   5.127   0.007  13.115  0.6608  0.5949 -1.6964
 7628TIP3    H244376   5.011   0.087  13.168  1.3014  0.4015  0.0749
 7629TIP3   OH244377   5.141   5.526   5.332  0.1201 -0.0961 -0.3613
 7629TIP3    H144378   5.115   5.598   5.275  0.6163 -1.9043 -3.0757
 7629TIP3    H244379   5.237   5.528   5.331  0.1448  0.4171  1.2394
 7630TIP3   OH244380   3.432   3.369  14.395  0.2514  0.5884  0.1348
 7630TIP3    H144381   3.366   3.430  14.426  0.3488  0.3985  0.7428
 7630TIP3    H244382   3.384   3.304  14.344  0.1565  1.1962 -0.5613
 7631TIP3   OH244383   3.457   5.386   0.025 -0.0306  0.1943  0.0961
 7631TIP3    H144384   3.512   5.332  -0.031 -2.7154 -1.3573 -1.2705
 7631TIP3    H244385   3.459   5.343   0.110 -0.4822 -0.8762 -0.4163
 7632TIP3   OH244386   4.274   0.598   4.786  0.0717 -0.3375  0.2299
 7632TIP3    H144387   4.236   0.684   4.803 -0.6467  0.0346 -2.6148
 7632TIP3    H244388   4.331   0.581   4.861  0.5242  2.7759  0.7214
 7633TIP3   OH244389   2.714   3.235  13.516  0.0111  0.1501 -0.8082
 7633TIP3    H144390   2.679   3.273  13.596  0.8698  1.2481 -0.9273
 7633TIP3    H244391   2.647   3.252  13.449 -0.2541  0.1541 -0.5395
 7634TIP3   OH244392   6.497   2.594   5.692 -0.4886  0.1425 -0.5344
 7634TIP3    H144393   6.548   2.610   5.613 -0.1423 -0.8856 -0.5336
 7634TIP3    H244394   6.517   2.667   5.749 -0.1753  0.5189 -1.1174
 7635TIP3   OH244395   0.644   6.720  12.393  0.5130  0.1715  0.7637
 7635TIP3    H144396   0.668   6.801  12.347  0.1832  1.7167  3.1360
 7635TIP3    H244397   0.549   6.715  12.385  0.6401 -0.6716 -0.4018
 7636TIP3   OH244398   5.589   3.971   1.292 -0.2822 -0.0020 -0.1134
 7636TIP3    H144399   5.577   4.065   1.286  2.3410  0.3329 -2.3184
 7636TIP3    H244400   5.522   3.941   1.353 -1.3216  3.2304  0.4855
 7637TIP3   OH244401   3.987   4.387  16.340  0.2306  0.1413 -0.4581
 7637TIP3    H144402   4.010   4.295  16.325 -0.2319 -0.3872  1.6733
 7637TIP3    H244403   3.915   4.404  16.280 -1.4945 -1.7683  0.9060
 7638TIP3   OH244404   4.821   6.704  14.005 -0.0487  0.3617 -0.2804
 7638TIP3    H144405   4.916   6.702  14.013  0.2273 -0.1103 -2.8404
 7638TIP3    H244406   4.792   6.761  14.076  2.3226  2.1741 -0.6517
 7639TIP3   OH244407   6.139   3.150  12.159 -0.1722  0.1314  0.0407
 7639TIP3    H144408   6.165   3.058  12.157  0.2976  0.2736 -0.5220
 7639TIP3    H244409   6.221   3.199  12.171 -0.5306  0.4352  1.4685
 7640TIP3   OH244410   5.538   1.970   5.402  0.1004  0.1693  0.0739
 7640TIP3    H144411   5.560   2.025   5.327  0.4049 -0.5691 -0.4017
 7640TIP3    H244412   5.479   2.023   5.456 -1.3610  0.1959 -1.4576
 7641TIP3   OH244413   1.321   4.170  11.532 -0.3431 -0.4921  0.0658
 7641TIP3    H144414   1.354   4.236  11.470  2.8502  0.4076  2.4416
 7641TIP3    H244415   1.229   4.192  11.543 -0.1190  1.6475 -1.5275
 7642TIP3   OH244416   3.915   3.286   2.739  0.3717 -0.1092  0.2838
 7642TIP3    H144417   3.868   3.203   2.727  0.1967 -0.2408  1.6965
 7642TIP3    H244418   4.006   3.264   2.720  0.6873 -1.2115  2.6918
 7643TIP3   OH244419   2.766   0.328   0.074  0.5166 -0.2028 -0.4993
 7643TIP3    H144420   2.745   0.369  -0.009 -2.1940 -0.4136  0.0023
 7643TIP3    H244421   2.720   0.244   0.072 -0.9553  0.4658  1.8147
 7644TIP3   OH244422   4.900   5.749  15.371  0.1449  0.6812 -0.0979
 7644TIP3    H144423   4.843   5.810  15.324 -1.5056 -0.5500  0.2015
 7644TIP3    H244424   4.850   5.726  15.450  0.4744 -1.4324 -0.4479
 7645TIP3   OH244425   4.453   1.656  12.460  0.1653 -0.5843  0.2264
 7645TIP3    H144426   4.532   1.697  12.424  0.4480 -0.0696  1.3818
 7645TIP3    H244427   4.385   1.675  12.395  0.7371 -0.0424 -0.2326
 7646TIP3   OH244428   6.622   5.866  12.326  0.3432  0.0676  0.2281
 7646TIP3    H144429   6.607   5.772  12.319 -0.7361  0.2285  0.2824
 7646TIP3    H244430   6.696   5.873  12.387  1.1845 -0.7746 -0.6555
 7647TIP3   OH244431   2.702   4.181  10.650  0.3718 -0.1985  0.1985
 7647TIP3    H144432   2.732   4.096  10.618  1.0214 -0.5233  1.6000
 7647TIP3    H244433   2.713   4.240  10.575 -1.1575 -1.5327 -1.1788
 7648TIP3   OH244434   5.215   6.248   4.904 -0.2889 -0.4434 -0.5898
 7648TIP3    H144435   5.255   6.335   4.899 -1.3699  0.2535  1.3268
 7648TIP3    H244436   5.259   6.205   4.977 -0.4523 -1.1203 -0.8784
 7649TIP3   OH244437   4.032   2.933   3.205  0.0342  0.0484 -0.3305
 7649TIP3    H144438   3.959   2.978   3.162  0.6979  2.0405  0.4859
 7649TIP3    H244439   4.093   3.003   3.227  2.1401 -1.5161 -0.8217
 7650TIP3   OH244440   6.207   3.080   6.662 -0.4646 -0.3659  0.2394
 7650TIP3    H144441   6.118   3.058   6.635  0.3482 -0.5306 -2.6445
 7650TIP3    H244442   6.263   3.031   6.603  1.5111  2.3617 -0.3502
 7651TIP3   OH244443   4.538   3.058   2.954  0.0805 -0.2340  0.5641
 7651TIP3    H144444   4.627   3.082   2.926 -0.4761  0.1501 -0.9775
 7651TIP3    H244445   4.543   3.056   3.050  1.5258  0.6617  0.5437
 7652TIP3   OH244446   6.356   0.312  15.055  0.6223  0.6682 -0.3325
 7652TIP3    H144447   6.359   0.404  15.029 -1.2241  1.2460  1.3110
 7652TIP3    H244448   6.270   0.282  15.028 -0.0247  0.3519  1.8867
 7653TIP3   OH244449   6.432   3.354   4.487 -0.4384  1.4045  0.0219
 7653TIP3    H144450   6.344   3.387   4.468 -0.0551  2.3142 -0.2261
 7653TIP3    H244451   6.446   3.377   4.579 -1.7232 -1.6987  1.1327
 7654TIP3   OH244452   5.945   3.860  11.965 -0.4344  0.1070  0.2040
 7654TIP3    H144453   5.868   3.877  12.020 -0.2895  2.9168 -0.3056
 7654TIP3    H244454   5.920   3.892  11.879  1.1838  0.8440 -0.0276
 7655TIP3   OH244455   4.540   4.376  14.572  0.4405  0.1506  0.1705
 7655TIP3    H144456   4.575   4.378  14.661 -0.7200  1.2838  0.6203
 7655TIP3    H244457   4.503   4.289  14.563  0.7684 -0.0526  0.7129
 7656TIP3   OH244458   4.378   6.660   5.133 -0.4837 -0.3030  0.5673
 7656TIP3    H144459   4.300   6.631   5.085 -1.3838  1.1724  1.0594
 7656TIP3    H244460   4.433   6.701   5.066  0.0537 -1.6429  0.1582
 7657TIP3   OH244461   5.758   4.349  11.139  0.3468 -0.5456  0.0808
 7657TIP3    H144462   5.682   4.315  11.186 -0.9455 -0.4758 -1.8285
 7657TIP3    H244463   5.757   4.303  11.055  0.5046  1.7287 -1.2538
 7658TIP3   OH244464   4.700   3.208  14.144 -0.5605 -0.1219  0.4172
 7658TIP3    H144465   4.692   3.114  14.128 -0.2166 -0.3340  1.4389
 7658TIP3    H244466   4.778   3.217  14.199  0.1150  0.8837 -0.6593
 7659TIP3   OH244467   4.353   6.484  15.560 -0.6136 -0.4619 -0.4908
 7659TIP3    H144468   4.291   6.549  15.526  1.8497  1.3615 -1.8533
 7659TIP3    H244469   4.359   6.504  15.654 -0.7490  0.5434 -0.6870
 7660TIP3   OH244470   0.607   5.832   0.282  0.4504 -0.4220 -0.3494
 7660TIP3    H144471   0.569   5.790   0.205  0.9180 -1.9488  0.1941
 7660TIP3    H244472   0.549   5.806   0.354 -0.3829  1.5633 -0.2594
 7661TIP3   OH244473   2.313   4.569  11.705  0.4885 -0.0482  0.3616
 7661TIP3    H144474   2.315   4.490  11.650  0.5750  0.8085 -0.9151
 7661TIP3    H244475   2.225   4.569  11.743  0.3535 -0.5522  0.0667
 7662TIP3   OH244476   2.786   4.662   3.693 -0.1414  0.5708  0.1821
 7662TIP3    H144477   2.852   4.612   3.742 -0.5503  0.2030  0.3649
 7662TIP3    H244478   2.834   4.736   3.657  0.2535  0.6309  0.8135
 7663TIP3   OH244479   1.019   0.108   2.629  0.0516 -0.1808  0.3828
 7663TIP3    H144480   1.075   0.099   2.706 -0.1644 -0.6838  0.4848
 7663TIP3    H244481   0.963   0.031   2.631 -2.4303  1.5141  1.7358
 7664TIP3   OH244482   5.177   2.242   4.677  0.2138 -0.3880  0.2150
 7664TIP3    H144483   5.149   2.216   4.589 -1.6518  1.5896  0.1522
 7664TIP3    H244484   5.243   2.310   4.662  0.9386 -1.0418  0.3736
 7665TIP3   OH244485   1.269   0.312  13.376  0.2642 -0.7882  0.7835
 7665TIP3    H144486   1.211   0.241  13.401 -0.3804 -0.6580 -0.3163
 7665TIP3    H244487   1.334   0.272  13.318  0.0610 -0.5408  0.3794
 7666TIP3   OH244488   6.209   1.160   1.055 -0.2341 -0.0625 -0.0135
 7666TIP3    H144489   6.291   1.113   1.068 -0.8194 -1.3872 -0.8692
 7666TIP3    H244490   6.146   1.116   1.112 -0.4151  0.7876  0.4583
 7667TIP3   OH244491   4.778   6.022  15.929 -0.2424 -0.0906  0.0937
 7667TIP3    H144492   4.828   6.060  16.001  0.5737 -1.8564  0.5059
 7667TIP3    H244493   4.687   6.034  15.954 -0.0333  1.5157  0.2169
 7668TIP3   OH244494   5.703   2.213   2.250 -0.1866  0.1746  0.2827
 7668TIP3    H144495   5.748   2.133   2.223 -0.7881 -0.2321  0.4468
 7668TIP3    H244496   5.704   2.209   2.346 -2.0970 -0.7658  0.3265
 7669TIP3   OH244497   1.716   0.788   5.450 -0.7564 -0.1320  0.0624
 7669TIP3    H144498   1.725   0.876   5.413 -0.4547  1.0806  2.7579
 7669TIP3    H244499   1.768   0.791   5.531 -0.4433 -2.9225  0.0667
 7670TIP3   OH244500   1.953   0.123   1.677  0.3903 -0.5843 -0.2844
 7670TIP3    H144501   1.893   0.181   1.629  1.2280 -0.0867 -0.7490
 7670TIP3    H244502   2.040   0.155   1.654  0.8567 -1.7121 -0.1376
 7671TIP3   OH244503   2.236   3.276   0.950 -0.3814 -0.2731 -0.3357
 7671TIP3    H144504   2.256   3.364   0.981  0.9873 -0.8200  0.4108
 7671TIP3    H244505   2.190   3.234   1.022  0.6107 -0.7474  0.0405
 7672TIP3   OH244506   0.373   0.090   1.660  0.4222  0.2422  0.2303
 7672TIP3    H144507   0.392   0.183   1.652  0.8051  0.2396  1.0186
 7672TIP3    H244508   0.296   0.077   1.604 -0.8102  1.4125  1.5711
 7673TIP3   OH244509   1.376   4.428  14.172 -0.0095 -0.3365 -0.4184
 7673TIP3    H144510   1.289   4.463  14.151 -0.0656  0.5288  1.0582
 7673TIP3    H244511   1.436   4.499  14.153  0.1650 -0.3042  0.2199
 7674TIP3   OH244512   3.391   0.294   3.493 -0.0775  0.3140  0.3121
 7674TIP3    H144513   3.440   0.248   3.562  1.4627  2.2508  0.5912
 7674TIP3    H244514   3.441   0.278   3.413 -0.1178  0.6575  0.2187
 7675TIP3   OH244515   3.155   3.966   1.932  0.8928  0.0060  0.4659
 7675TIP3    H144516   3.172   3.973   2.026  0.2746  1.3480  0.5004
 7675TIP3    H244517   3.074   4.016   1.919  1.1193  0.0623 -0.8243
 7676TIP3   OH244518   3.634   2.897  16.664  0.2731 -0.1372 -0.3633
 7676TIP3    H144519   3.688   2.926  16.738  1.5901 -1.0119 -0.9498
 7676TIP3    H244520   3.690   2.909  16.587  0.2739 -2.5962 -0.8269
 7677TIP3   OH244521   5.547   0.327   0.865  0.3310  0.3269 -0.0236
 7677TIP3    H144522   5.628   0.354   0.908 -0.3929 -1.0871  2.4656
 7677TIP3    H244523   5.478   0.361   0.923 -0.6814 -3.2644  1.1445
 7678TIP3   OH244524   3.412   3.006   1.647 -0.5670  0.0143  0.1012
 7678TIP3    H144525   3.394   2.930   1.591 -4.4315  0.9808 -0.2635
 7678TIP3    H244526   3.427   3.078   1.586 -1.7934  0.4668  0.3075
 7679TIP3   OH244527   5.586   0.392  11.110 -0.1771 -0.1820 -0.5651
 7679TIP3    H144528   5.551   0.303  11.117  0.4349 -0.3438  0.7772
 7679TIP3    H244529   5.651   0.386  11.039  1.7118 -1.4877  1.1678
 7680TIP3   OH244530   4.386   0.183  10.753 -0.1716 -0.3165  0.6641
 7680TIP3    H144531   4.410   0.275  10.768 -1.8863  0.4467 -0.8774
 7680TIP3    H244532   4.470   0.137  10.752  1.0318  1.6816 -1.2477
 7681TIP3   OH244533   6.091   1.833   2.319 -0.2087 -0.2916  0.1390
 7681TIP3    H144534   6.129   1.839   2.232  0.7003  0.9186  0.5938
 7681TIP3    H244535   6.162   1.798   2.374 -0.1520  0.7501  0.7448
 7682TIP3   OH244536   0.347   5.018   0.441 -0.1842  0.3491  0.7134
 7682TIP3    H144537   0.275   4.961   0.470  0.1263 -1.3666 -1.6614
 7682TIP3    H244538   0.420   4.995   0.499  0.3880 -2.9045 -1.0747
 7683TIP3   OH244539   0.004   6.007   5.729 -0.6499 -0.7292  0.3105
 7683TIP3    H144540   0.044   6.042   5.650  2.1290 -0.8251  1.5667
 7683TIP3    H244541   0.027   5.914   5.728 -0.1134 -0.6221  1.4817
 7684TIP3   OH244542   2.902   5.983   4.020  0.0157 -0.7457 -0.0426
 7684TIP3    H144543   2.905   6.033   3.939  2.3083 -0.7695 -0.0359
 7684TIP3    H244544   2.820   6.009   4.061  0.6859  2.4328 -0.4423
 7685TIP3   OH244545   5.720   3.570   2.244 -0.0307 -0.4203 -0.3229
 7685TIP3    H144546   5.705   3.622   2.165  0.4398 -0.0219 -0.1538
 7685TIP3    H244547   5.805   3.599   2.277 -0.5997  0.0313  0.8080
 7686TIP3   OH244548   1.742   6.407  12.991 -0.4066  0.3256 -0.6886
 7686TIP3    H144549   1.754   6.375  13.080  0.9870  1.7838 -0.3143
 7686TIP3    H244550   1.729   6.328  12.939 -2.4676 -0.4891  0.9408
 7687TIP3   OH244551   0.648   5.348  13.789  0.2722  0.2748  0.4724
 7687TIP3    H144552   0.625   5.423  13.845 -1.2683 -0.3379  0.7221
 7687TIP3    H244553   0.575   5.287  13.800 -0.0042  0.0436 -2.0806
 7688TIP3   OH244554   3.124   1.931  12.217 -0.7054  0.1634  0.6480
 7688TIP3    H144555   3.149   1.963  12.130 -0.1936  1.1350  1.1359
 7688TIP3    H244556   3.059   1.993  12.248 -0.3550  0.2342  1.2562
 7689TIP3   OH244557   5.470   4.072  15.461 -0.2675  0.2633 -0.0161
 7689TIP3    H144558   5.432   4.007  15.402  0.0896 -0.4081  0.4746
 7689TIP3    H244559   5.404   4.140  15.468 -0.9517 -0.3859  0.0011
 7690TIP3   OH244560   1.390   6.179   1.913 -0.0472 -0.6787  0.6679
 7690TIP3    H144561   1.305   6.197   1.873 -0.0827 -1.0412  0.5733
 7690TIP3    H244562   1.428   6.265   1.928  0.0729 -0.5401 -0.3673
 7691TIP3   OH244563   2.038   5.224   4.075 -0.1968 -0.4305 -0.4231
 7691TIP3    H144564   1.972   5.210   4.008 -0.1504  1.5435 -0.9499
 7691TIP3    H244565   2.099   5.151   4.064 -0.6528 -0.6215 -1.9589
 7692TIP3   OH244566   3.086   5.277   1.346 -0.3312  0.6985  0.1720
 7692TIP3    H144567   3.162   5.333   1.331  0.9825 -1.4560 -2.0446
 7692TIP3    H244568   3.092   5.252   1.438  2.7597 -0.7830 -0.3036
 7693TIP3   OH244569   5.516   4.575  17.199 -0.0308 -0.1262  0.2969
 7693TIP3    H144570   5.576   4.609  17.132 -1.8968 -0.6758 -1.7485
 7693TIP3    H244571   5.522   4.639  17.270 -1.1037  2.9445 -2.1384
 7694TIP3   OH244572   6.564   5.907  10.601  0.1425  0.0301  0.1793
 7694TIP3    H144573   6.591   5.985  10.650 -1.1100  1.5454 -1.4283
 7694TIP3    H244574   6.492   5.937  10.546 -1.6190 -2.7193  0.8027
 7695TIP3   OH244575   5.982   0.084   3.295  0.5948 -0.0477  0.2986
 7695TIP3    H144576   6.036   0.111   3.370 -0.7504  0.4292  1.1410
 7695TIP3    H244577   6.024   0.005   3.262  0.1235 -1.4731  2.8361
 7696TIP3   OH244578   4.520   1.280   2.108  0.0841 -0.4522  0.2701
 7696TIP3    H144579   4.489   1.259   2.020 -2.7803 -0.9403  1.2698
 7696TIP3    H244580   4.562   1.200   2.139  0.1269 -0.6306 -0.2460
 7697TIP3   OH244581   2.755   0.027  15.808 -0.0497  0.0129  0.0815
 7697TIP3    H144582   2.790   0.019  15.719 -1.5795  0.7308 -0.6342
 7697TIP3    H244583   2.789   0.111  15.839  0.1444 -0.0367  0.0047
 7698TIP3   OH244584   3.350   1.090   6.644  0.0906  0.2189 -0.0747
 7698TIP3    H144585   3.342   1.002   6.607  0.2701  1.4019 -3.1946
 7698TIP3    H244586   3.434   1.089   6.690 -0.5200 -1.5594  1.1269
 7699TIP3   OH244587   6.787   3.421  17.231 -0.4075  0.0810 -0.0098
 7699TIP3    H144588   6.732   3.425  17.153  1.9747  2.0515 -1.7616
 7699TIP3    H244589   6.877   3.416  17.197  0.7512  1.2866  2.5674
 7700TIP3   OH244590   0.940   6.155  14.344 -0.1161  0.4144 -0.4215
 7700TIP3    H144591   0.916   6.170  14.435  0.8560  0.1249 -0.1103
 7700TIP3    H244592   1.023   6.200  14.332 -0.4459  0.8201 -1.2935
 7701TIP3   OH244593   3.510   5.663  14.903 -0.1086  0.1868  0.5064
 7701TIP3    H144594   3.446   5.602  14.866  0.3771  0.4901 -0.9229
 7701TIP3    H244595   3.462   5.711  14.970 -1.1029 -0.2372  0.1236
 7702TIP3   OH244596   1.173   3.511  15.835 -0.3053 -0.1543 -0.1454
 7702TIP3    H144597   1.192   3.588  15.889  3.0814  0.4755 -1.9924
 7702TIP3    H244598   1.254   3.461  15.835 -0.1925 -0.2909 -4.2715
 7703TIP3   OH244599   3.116   3.600  11.926  0.3777  0.5245 -0.6603
 7703TIP3    H144600   3.120   3.662  11.853  1.4768  0.8982 -0.2992
 7703TIP3    H244601   3.206   3.591  11.956  0.2514 -1.3120 -0.7196
 7704TIP3   OH244602   1.736   5.312   5.098 -0.2988  0.4328 -0.2220
 7704TIP3    H144603   1.719   5.353   5.183  0.8185  2.3647 -0.8667
 7704TIP3    H244604   1.667   5.345   5.041 -0.5201 -0.1416 -0.2925
 7705TIP3   OH244605   0.631   2.491  17.223 -0.5027 -0.0293  0.0718
 7705TIP3    H144606   0.625   2.477  17.317 -1.6456  1.7208  0.2909
 7705TIP3    H244607   0.725   2.490  17.204 -0.2447  0.0517  1.3016
 7706TIP3   OH244608   0.778   2.390   0.809  0.1240  0.6547 -0.6286
 7706TIP3    H144609   0.860   2.435   0.830  0.9574 -0.8230 -0.6234
 7706TIP3    H244610   0.738   2.374   0.894  0.5223  0.1232 -0.5380
 7707TIP3   OH244611   3.689   5.695   2.034 -1.0948 -0.0295 -0.1685
 7707TIP3    H144612   3.616   5.755   2.053 -1.4435  0.1329 -1.8129
 7707TIP3    H244613   3.758   5.752   2.000 -0.7915 -0.3633 -0.1070
 7708TIP3   OH244614   4.889   5.580  14.832 -0.1069  0.4236 -0.0795
 7708TIP3    H144615   4.852   5.653  14.783 -0.3463  0.9415  0.8551
 7708TIP3    H244616   4.893   5.611  14.922 -0.6946 -0.8997  0.4233
 7709TIP3   OH244617   4.552   3.557  15.641  0.6765 -0.8691  0.9716
 7709TIP3    H144618   4.640   3.565  15.605  0.8318 -1.0692  1.3006
 7709TIP3    H244619   4.550   3.470  15.682 -0.4010 -1.8035 -0.9542
 7710TIP3   OH244620   0.275   2.000   1.659 -0.2935 -0.0060 -0.7095
 7710TIP3    H144621   0.185   1.983   1.687  0.4554 -2.0367  0.7728
 7710TIP3    H244622   0.313   2.052   1.729 -0.0327 -0.0351 -0.8280
 7711TIP3   OH244623   1.253   3.412  14.899 -0.4304 -0.6639 -0.6255
 7711TIP3    H144624   1.344   3.403  14.928 -0.9091 -1.9802  0.6085
 7711TIP3    H244625   1.214   3.475  14.960 -0.2431  0.2578 -1.4435
 7712TIP3   OH244626   1.526   4.005  16.202  0.0528  0.2448  0.1324
 7712TIP3    H144627   1.583   4.043  16.270 -1.1619  2.1604  0.1723
 7712TIP3    H244628   1.520   4.073  16.136 -2.4863  0.3039  0.3369
 7713TIP3   OH244629   6.781   0.713  16.546 -0.2623 -0.6146  0.2228
 7713TIP3    H144630   6.861   0.760  16.523  0.1981 -2.0537 -1.3663
 7713TIP3    H244631   6.801   0.670  16.629 -0.2832  0.9887  1.0885
 7714TIP3   OH244632   5.524   6.519   1.890 -0.4005  0.7920 -0.3390
 7714TIP3    H144633   5.598   6.546   1.945  0.0325 -1.0773  0.0773
 7714TIP3    H244634   5.465   6.594   1.891  0.4284  1.4798  1.2240
 7715TIP3   OH244635   2.227   5.602  13.666 -0.3380  0.0386  0.1257
 7715TIP3    H144636   2.185   5.685  13.643  0.3384  0.3037 -0.2051
 7715TIP3    H244637   2.286   5.624  13.738  1.6674  0.3878 -1.5493
 7716TIP3   OH244638   5.038   0.449  16.784  0.2463 -0.7987  0.0523
 7716TIP3    H144639   5.024   0.402  16.702  1.9400 -0.2738 -0.5833
 7716TIP3    H244640   5.111   0.404  16.826 -0.0076 -0.4999  0.8423
 7717TIP3   OH244641   1.172   6.262   4.552 -0.1742  0.1622 -0.2853
 7717TIP3    H144642   1.093   6.222   4.516 -0.6218  0.4126  0.3914
 7717TIP3    H244643   1.141   6.313   4.627  0.7266 -0.4009  0.5006
 7718TIP3   OH244644   2.276   5.020   5.245  0.1823  0.0253 -0.0539
 7718TIP3    H144645   2.349   5.078   5.223  0.1056  0.1171 -0.0675
 7718TIP3    H244646   2.230   5.066   5.315  0.6281 -0.4218  0.5445
 7719TIP3   OH244647   5.053   3.109   4.376 -0.2029 -0.1308 -0.2259
 7719TIP3    H144648   5.007   3.065   4.447 -1.0842 -0.1772 -0.8137
 7719TIP3    H244649   5.129   3.149   4.418  0.0262 -1.2868  0.5077
 7720TIP3   OH244650   5.920   2.203   1.283 -0.1828  0.1757  0.2701
 7720TIP3    H144651   5.973   2.243   1.351  0.0364 -1.6217  1.2340
 7720TIP3    H244652   5.972   2.211   1.203  0.8522 -0.1843  0.8941
 7721TIP3   OH244653   3.669   3.167  14.325 -0.2117 -0.2928  0.1101
 7721TIP3    H144654   3.605   3.216  14.377  0.8889 -0.9076  2.1702
 7721TIP3    H244655   3.679   3.218  14.245 -1.2151  1.3039  0.9479
 7722TIP3   OH244656   0.398   3.069  14.809  0.2970 -0.1305  0.0762
 7722TIP3    H144657   0.314   3.114  14.819  0.3394  0.2314 -1.0249
 7722TIP3    H244658   0.410   3.062  14.714  2.0336  0.8245  0.1934
 7723TIP3   OH244659   2.491   3.731  11.119 -0.0515  0.1138  0.1130
 7723TIP3    H144660   2.427   3.661  11.132 -0.0420 -0.0065 -0.4564
 7723TIP3    H244661   2.516   3.724  11.027  1.8889 -0.8004  0.6403
 7724TIP3   OH244662   0.776   2.947   0.047 -0.1731  0.2363 -0.0050
 7724TIP3    H144663   0.844   2.887   0.078  0.5539  0.7911 -0.4800
 7724TIP3    H244664   0.719   2.894  -0.008  0.7926  0.1010 -0.8895
 7725TIP3   OH244665   6.577   2.892  15.898 -0.2203  0.1934 -0.2648
 7725TIP3    H144666   6.527   2.913  15.976  0.9696  0.9811  0.3100
 7725TIP3    H244667   6.525   2.928  15.826 -0.5137  0.9439  0.3112
 7726TIP3   OH244668   3.271   3.128  16.750  0.4162  0.1126  0.5410
 7726TIP3    H144669   3.208   3.166  16.689 -0.1689 -2.3966 -0.5406
 7726TIP3    H244670   3.348   3.107  16.696 -0.2383 -2.4546  0.5000
 7727TIP3   OH244671   2.884   4.461   6.049 -0.0073 -0.1314  0.1473
 7727TIP3    H144672   2.963   4.515   6.042  0.2819 -0.6379 -0.6075
 7727TIP3    H244673   2.909   4.389   6.106  0.1767 -0.4608 -0.3452
 7728TIP3   OH244674   6.523   1.043  13.834 -0.1499 -0.2953  0.1860
 7728TIP3    H144675   6.548   0.951  13.831  2.9174  0.4221 -0.6111
 7728TIP3    H244676   6.607   1.090  13.840 -1.5708  2.4535  0.2061
 7729TIP3   OH244677   3.874   6.750   3.999  0.4216 -0.2409  0.2633
 7729TIP3    H144678   3.868   6.766   4.093 -1.3103  0.6884  0.0498
 7729TIP3    H244679   3.928   6.821   3.966 -1.7678  1.5219  0.1884
 7730TIP3   OH244680   2.143   0.535   0.702  0.0349 -0.3238  0.0569
 7730TIP3    H144681   2.192   0.453   0.696  0.6908  0.0743 -0.1527
 7730TIP3    H244682   2.076   0.528   0.634 -0.1471 -0.8354  0.2832
 7731TIP3   OH244683   1.683   0.729   4.966 -0.0999 -0.2161 -0.2195
 7731TIP3    H144684   1.713   0.695   4.882 -1.6768 -0.2287 -0.8052
 7731TIP3    H244685   1.747   0.796   4.990  0.3614 -0.2178 -1.4202
 7732TIP3   OH244686   4.251   0.224  16.747  0.0925 -0.4865 -0.0463
 7732TIP3    H144687   4.165   0.258  16.723  0.4646  0.8528  0.4105
 7732TIP3    H244688   4.292   0.200  16.664 -0.1100  0.4008 -0.4081
 7733TIP3   OH244689   1.057   6.460  15.305  0.6390 -0.1545  0.2113
 7733TIP3    H144690   0.971   6.449  15.345  0.3527  0.1135 -0.3074
 7733TIP3    H244691   1.118   6.465  15.378 -0.1477  2.9294  0.7827
 7734TIP3   OH244692   0.398   5.010  14.067  0.4558 -0.3790  0.2839
 7734TIP3    H144693   0.419   4.966  13.984 -2.2787 -1.0150 -0.1640
 7734TIP3    H244694   0.448   4.961  14.133  1.6229 -0.7256 -0.8180
 7735TIP3   OH244695   4.260   4.233   0.947 -0.1067 -0.2654 -0.0867
 7735TIP3    H144696   4.190   4.178   0.982 -0.8157  0.3975 -0.4586
 7735TIP3    H244697   4.235   4.248   0.856  0.0643  0.7110  0.0247
 7736TIP3   OH244698   0.129   2.345   4.892  0.4143  0.3333  0.1622
 7736TIP3    H144699   0.107   2.258   4.924  0.5202 -0.3499 -1.5257
 7736TIP3    H244700   0.224   2.344   4.880  0.6428  1.2475  1.6741
 7737TIP3   OH244701   4.182   3.330  14.539 -0.0042  0.2445  0.0512
 7737TIP3    H144702   4.273   3.359  14.544 -0.0931  0.5603 -0.1588
 7737TIP3    H244703   4.131   3.410  14.532 -0.3597  0.1104  0.9307
 7738TIP3   OH244704   4.871   1.934  15.320  0.0958 -0.1798 -0.3568
 7738TIP3    H144705   4.822   1.998  15.269  0.3100 -0.4853 -0.9601
 7738TIP3    H244706   4.904   1.983  15.396 -3.7559 -0.6113  1.8729
 7739TIP3   OH244707   0.893   2.628   1.171  0.0089  0.1918 -0.6642
 7739TIP3    H144708   0.920   2.581   1.092  0.3217 -0.6623 -0.0669
 7739TIP3    H244709   0.895   2.720   1.146  0.7517 -0.0239 -1.4531
 7740TIP3   OH244710   5.643   5.352   5.768  0.4548  0.7082 -0.4619
 7740TIP3    H144711   5.630   5.296   5.844 -1.0297  2.1065  0.3812
 7740TIP3    H244712   5.704   5.420   5.798 -0.1184  1.2512 -0.4950
 7741TIP3   OH244713   6.031   4.600   6.096 -0.1944  0.2770  0.0013
 7741TIP3    H144714   6.068   4.641   6.174  0.0364  0.3781 -0.1615
 7741TIP3    H244715   5.975   4.668   6.058 -0.1368  0.3001 -0.0415
 7742TIP3   OH244716   5.981   1.528   3.034  0.4082  0.0489  0.4915
 7742TIP3    H144717   6.034   1.448   3.040 -0.5466 -0.5740  0.8297
 7742TIP3    H244718   6.006   1.579   3.111 -0.0323 -0.6040  1.0870
 7743TIP3   OH244719   2.141   3.133   3.657  0.2633  0.1512 -0.0357
 7743TIP3    H144720   2.187   3.057   3.692 -1.9850 -0.8007  1.0794
 7743TIP3    H244721   2.129   3.113   3.564  0.8148 -0.2324 -0.0296
 7744TIP3   OH244722   5.516   1.879   0.257  0.1253  0.8660 -0.1022
 7744TIP3    H144723   5.424   1.898   0.240 -0.4232 -1.5545 -0.0822
 7744TIP3    H244724   5.542   1.946   0.321 -2.7852 -0.7013  3.0632
 7745TIP3   OH244725   1.424   1.544   2.201  0.2556 -0.3759 -0.3347
 7745TIP3    H144726   1.414   1.507   2.289  1.2656  1.9790  0.8550
 7745TIP3    H244727   1.517   1.562   2.192 -0.1064  1.3724 -1.0269
 7746TIP3   OH244728   1.425   6.251   3.002 -0.0270  0.1866  0.5803
 7746TIP3    H144729   1.415   6.162   3.035  2.1333 -0.4932 -0.4336
 7746TIP3    H244730   1.485   6.293   3.065 -0.0206  0.5275  0.3493
 7747TIP3   OH244731   6.004   6.397  13.293  0.1287  0.2011 -0.2559
 7747TIP3    H144732   5.991   6.349  13.211 -1.5436  0.6161 -0.2694
 7747TIP3    H244733   6.035   6.330  13.354 -0.9393 -0.6557 -0.6101
 7748TIP3   OH244734   1.869   3.494  14.725  0.0013  0.4317 -0.2941
 7748TIP3    H144735   1.925   3.474  14.800 -1.4425  2.1342  1.3479
 7748TIP3    H244736   1.929   3.525  14.658  1.6982 -3.8038 -1.0464
 7749TIP3   OH244737   5.330   4.411   5.129 -0.3858 -0.1427  0.0268
 7749TIP3    H144738   5.398   4.424   5.195  0.0538  0.8085 -0.5980
 7749TIP3    H244739   5.272   4.486   5.138 -0.4208 -0.0933 -0.5471
 7750TIP3   OH244740   6.140   4.693  10.923 -0.1498  0.5537  0.6333
 7750TIP3    H144741   6.224   4.696  10.878 -0.3129  0.3099  0.3060
 7750TIP3    H244742   6.077   4.727  10.859 -0.7029 -1.6391 -0.0756
 7751TIP3   OH244743   3.304   5.461   0.413  0.1352 -0.0654  0.4333
 7751TIP3    H144744   3.330   5.386   0.358 -1.0079 -1.7969  2.1439
 7751TIP3    H244745   3.246   5.512   0.356  0.6052 -0.6803 -0.6464
 7752TIP3   OH244746   6.664   0.515   4.921  0.1131 -0.0467 -0.2918
 7752TIP3    H144747   6.673   0.501   4.827 -0.6005 -0.6696 -0.2791
 7752TIP3    H244748   6.753   0.509   4.955  0.4369  0.6839 -0.9832
 7753TIP3   OH244749   0.790   3.000   4.331  0.1722 -0.4566  0.2701
 7753TIP3    H144750   0.815   3.014   4.239  0.2224  1.2208  0.4928
 7753TIP3    H244751   0.703   3.040   4.338  0.0352 -0.8553  0.8762
 7754TIP3   OH244752   4.075   4.536  12.482  0.0443  0.3385 -0.0388
 7754TIP3    H144753   3.983   4.517  12.502  0.3686  0.3569  1.5488
 7754TIP3    H244754   4.084   4.629  12.500  0.5878  0.1496  0.6801
 7755TIP3   OH244755   1.598   6.440  17.207  0.2451  0.8204  0.0238
 7755TIP3    H144756   1.529   6.503  17.185  0.0813  1.0667  1.1814
 7755TIP3    H244757   1.592   6.373  17.139 -1.1072  0.8651  0.0657
 7756TIP3   OH244758   5.327   6.262   0.799  0.1731 -0.3160 -0.1341
 7756TIP3    H144759   5.378   6.319   0.856 -2.8757 -0.2246  2.8484
 7756TIP3    H244760   5.275   6.322   0.746  1.5459 -0.4111 -1.6431
 7757TIP3   OH244761   4.754   2.139  11.833  0.3876  0.5577 -0.0605
 7757TIP3    H144762   4.846   2.115  11.848  0.4673  0.1725 -1.1057
 7757TIP3    H244763   4.711   2.057  11.813 -0.3425  0.6422  1.0725
 7758TIP3   OH244764   0.316   5.121   5.115  0.6087 -0.4651  0.4025
 7758TIP3    H144765   0.324   5.203   5.068 -1.1858 -0.6952 -0.3973
 7758TIP3    H244766   0.406   5.093   5.132  1.3595 -0.1755 -2.5754
 7759TIP3   OH244767   5.266   0.677   5.197 -0.0402  0.7663  0.0920
 7759TIP3    H144768   5.184   0.655   5.242 -0.6426 -0.5266 -1.5254
 7759TIP3    H244769   5.269   0.773   5.200 -2.1341  0.9077 -0.6453
 7760TIP3   OH244770   0.718   0.674   3.598  0.4984  0.3513 -0.5167
 7760TIP3    H144771   0.702   0.722   3.516  2.2686  1.9944  0.0220
 7760TIP3    H244772   0.813   0.674   3.607  0.3307  0.8425  1.8846
 7761TIP3   OH244773   4.093   0.017   1.351 -0.0710 -0.0766  0.0238
 7761TIP3    H144774   4.000  -0.000   1.340 -0.5280  1.7628  0.6867
 7761TIP3    H244775   4.106   0.104   1.313  1.8275 -1.1711 -2.0309
 7762TIP3   OH244776   0.900   0.332  10.676  0.1735 -0.8210  0.2656
 7762TIP3    H144777   0.806   0.326  10.691  0.2640 -1.0784  0.7800
 7762TIP3    H244778   0.914   0.420  10.640 -0.4783 -1.4576 -1.6068
 7763TIP3   OH244779   3.565   4.425  11.924  0.1604 -0.1133 -0.2917
 7763TIP3    H144780   3.653   4.393  11.904 -0.3136 -0.5908 -1.7729
 7763TIP3    H244781   3.567   4.518  11.901  0.3519 -0.0534 -0.0373
 7764TIP3   OH244782   5.518   1.603  15.592 -0.4200  0.1926 -0.3981
 7764TIP3    H144783   5.436   1.569  15.627 -0.8130  1.5899  0.0734
 7764TIP3    H244784   5.496   1.689  15.557  0.4763 -0.1662 -1.9405
 7765TIP3   OH244785   1.785   2.196   4.918  0.4373 -0.1630  0.0297
 7765TIP3    H144786   1.792   2.291   4.908  0.5254 -0.1124  0.5798
 7765TIP3    H244787   1.723   2.170   4.849 -0.8613  0.5048  0.8974
 7766TIP3   OH244788   4.207   0.788   0.715  0.2546 -0.0019  0.5105
 7766TIP3    H144789   4.293   0.755   0.743  0.0121 -1.9719 -0.9052
 7766TIP3    H244790   4.219   0.811   0.623 -0.3550  1.2771  0.7250
 7767TIP3   OH244791   4.554   0.370  17.137 -0.9379 -0.4243  0.2964
 7767TIP3    H144792   4.546   0.450  17.189 -1.4373 -0.7620  0.7656
 7767TIP3    H244793   4.466   0.356  17.101 -0.8344 -0.7138  0.1504
 7768TIP3   OH244794   4.489   2.201  15.206 -0.1722 -0.4837 -0.4752
 7768TIP3    H144795   4.581   2.219  15.184 -0.8122  1.7906 -1.5420
 7768TIP3    H244796   4.489   2.195  15.302  1.0726 -0.4505 -0.4535
 7769TIP3   OH244797   4.291   1.774   3.269 -0.3454  0.0653 -0.2110
 7769TIP3    H144798   4.255   1.785   3.181  0.6525 -2.9107 -1.1443
 7769TIP3    H244799   4.225   1.812   3.327 -2.5346 -0.5959 -2.0829
 7770TIP3   OH244800   6.736   3.075   1.437  0.1426 -0.0756 -0.3657
 7770TIP3    H144801   6.752   2.984   1.410  0.1332 -0.6235  1.3886
 7770TIP3    H244802   6.641   3.086   1.428  0.1343 -0.2543 -0.5107
 7771TIP3   OH244803   0.876   2.226  14.658  0.1275  0.4785  0.4615
 7771TIP3    H144804   0.810   2.287  14.626 -1.0524 -0.0830  1.7030
 7771TIP3    H244805   0.960   2.267  14.638 -0.6091  1.5067 -0.6006
 7772TIP3   OH244806   0.774   3.162  13.403 -0.4285 -0.1237 -0.0064
 7772TIP3    H144807   0.767   3.239  13.459  1.2240 -0.2906  0.4687
 7772TIP3    H244808   0.683   3.136  13.387 -1.0411  2.0601 -0.3971
 7773TIP3   OH244809   4.874   2.424   4.526 -0.2430 -0.2946 -0.1740
 7773TIP3    H144810   4.969   2.435   4.527 -0.2330 -0.2156 -1.0579
 7773TIP3    H244811   4.852   2.413   4.433 -1.1183 -0.1336  0.0044
 7774TIP3   OH244812   2.380   2.221  11.487  0.2820 -0.2795 -0.4632
 7774TIP3    H144813   2.368   2.294  11.426  0.5721  1.3462  1.3369
 7774TIP3    H244814   2.434   2.257  11.557 -0.2187 -2.0043  0.8694
 7775TIP3   OH244815   0.510   0.364   1.678  0.2338 -0.3884  0.6436
 7775TIP3    H144816   0.451   0.365   1.753 -0.3821 -0.1745  0.1634
 7775TIP3    H244817   0.598   0.370   1.716 -0.0611 -0.5314  1.3533
 7776TIP3   OH244818   5.587   4.631  11.513  0.1191 -0.4686 -0.8501
 7776TIP3    H144819   5.634   4.613  11.431  0.9251 -0.5837 -0.3804
 7776TIP3    H244820   5.650   4.679  11.567  0.1419 -1.6526  0.2512
 7777TIP3   OH244821   0.310   5.284   5.824  0.1491 -0.2453  0.1740
 7777TIP3    H144822   0.360   5.364   5.809 -1.1521  0.4756 -0.5087
 7777TIP3    H244823   0.244   5.309   5.889 -0.5661 -0.6249 -0.3940
 7778TIP3   OH244824   1.339   6.561  14.124 -0.4048  0.6558  0.0428
 7778TIP3    H144825   1.383   6.548  14.208 -0.9337  0.8716  0.3574
 7778TIP3    H244826   1.367   6.648  14.096 -0.3613  0.6530  0.0776
 7779TIP3   OH244827   5.477   2.716  16.271 -0.5458  0.3450  0.4950
 7779TIP3    H144828   5.521   2.788  16.318  0.6716 -0.0713  0.0258
 7779TIP3    H244829   5.504   2.637  16.317  1.5692 -0.1858 -1.4905
 7780TIP3   OH244830   4.778   1.316  13.769 -0.5685  0.0422 -0.4674
 7780TIP3    H144831   4.808   1.246  13.826 -2.6700  0.2842  1.0318
 7780TIP3    H244832   4.799   1.286  13.680  1.0251 -1.2014  0.2877
 7781TIP3   OH244833   3.585   3.812   5.292 -0.0406  0.1989 -0.6471
 7781TIP3    H144834   3.634   3.831   5.372  1.7608 -0.3760 -1.5554
 7781TIP3    H244835   3.533   3.734   5.313  2.0539 -1.2729 -0.6217
 7782TIP3   OH244836   5.957   0.900  14.834  0.8112 -0.2212 -0.2389
 7782TIP3    H144837   6.018   0.970  14.809  2.7806 -1.7774 -0.0960
 7782TIP3    H244838   6.004   0.851  14.902 -1.2472 -0.6423  0.9547
 7783TIP3   OH244839   0.343   4.311  14.806 -0.1997 -0.1791 -0.1512
 7783TIP3    H144840   0.256   4.335  14.773 -0.5259 -0.2762  0.6032
 7783TIP3    H244841   0.354   4.365  14.884  0.1840 -0.5662  0.0639
 7784TIP3   OH244842   2.509   0.962   0.562  0.4180  0.4902 -0.1830
 7784TIP3    H144843   2.519   1.046   0.608  1.1920 -0.0227  0.6297
 7784TIP3    H244844   2.515   0.897   0.632  1.1501 -0.2930 -0.9607
 7785TIP3   OH244845   1.240   5.297   3.460 -0.6130  0.2801  0.2337
 7785TIP3    H144846   1.313   5.269   3.515  0.0016  0.0840 -0.6622
 7785TIP3    H244847   1.233   5.391   3.476  0.0018  0.3463  0.1380
 7786TIP3   OH244848   6.770   5.327   1.195  0.5637  0.0908 -0.6519
 7786TIP3    H144849   6.706   5.286   1.253  0.7515  1.7150  0.7771
 7786TIP3    H244850   6.778   5.266   1.122 -0.5214 -1.4923  0.4795
 7787TIP3   OH244851   2.046   1.775   2.644  0.0002  0.3906  0.1732
 7787TIP3    H144852   1.959   1.794   2.611 -0.0383 -0.1278 -0.0410
 7787TIP3    H244853   2.065   1.846   2.705 -0.7272  0.3017  0.5131
 7788TIP3   OH244854   3.319   1.483  12.875  0.0729 -0.0422  0.5432
 7788TIP3    H144855   3.371   1.486  12.795 -0.7911 -0.2423 -0.0354
 7788TIP3    H244856   3.295   1.391  12.886 -0.4124  0.0888  0.6306
 7789TIP3   OH244857   6.803   1.785   6.550 -0.3335 -0.6160 -0.2918
 7789TIP3    H144858   6.729   1.832   6.512  1.3772  1.3585 -1.4368
 7789TIP3    H244859   6.820   1.713   6.489 -0.7206 -0.5083 -0.5280
 7790TIP3   OH244860   0.732   2.973   5.796 -0.2380 -0.0333  0.8960
 7790TIP3    H144861   0.650   3.011   5.765 -0.0042 -0.1163  0.1448
 7790TIP3    H244862   0.712   2.881   5.813 -0.2519 -0.1148  0.4693
 7791TIP3   OH244863   2.933   1.975   0.310  0.6686  0.8091  0.6783
 7791TIP3    H144864   2.927   2.065   0.276 -0.4743  0.7640  0.7173
 7791TIP3    H244865   2.937   1.920   0.232 -2.9956  0.6335  0.4588
 7792TIP3   OH244866   6.759   3.801   2.503  0.6499  0.0510 -0.5463
 7792TIP3    H144867   6.765   3.874   2.442  0.9764  0.4660 -0.0212
 7792TIP3    H244868   6.801   3.832   2.583 -1.3499  0.1674  0.5329
 7793TIP3   OH244869   2.946   0.235  14.086  0.8470 -0.2228  0.2619
 7793TIP3    H144870   2.858   0.207  14.063  1.4958  0.3929 -3.5032
 7793TIP3    H244871   2.936   0.325  14.116  0.2031 -0.0327 -0.4948
 7794TIP3   OH244872   5.514   4.193  14.919 -0.0415  0.0069  0.0626
 7794TIP3    H144873   5.526   4.288  14.922  1.1686 -0.0637 -1.3478
 7794TIP3    H244874   5.546   4.163  15.004 -0.7535  0.8781  0.6580
 7795TIP3   OH244875   2.094   4.049   2.545 -0.1596  0.3823 -0.4986
 7795TIP3    H144876   2.046   4.042   2.628  2.9084  0.6903  1.4579
 7795TIP3    H244877   2.050   3.987   2.487 -2.6725  0.4145  1.1971
 7796TIP3   OH244878   6.381   5.792  17.107 -0.1082 -0.2256 -0.2811
 7796TIP3    H144879   6.291   5.818  17.088 -0.1566 -1.4801 -2.0292
 7796TIP3    H244880   6.380   5.765  17.199 -1.8250 -1.3939 -0.6126
 7797TIP3   OH244881   6.758   1.287   5.678  0.0080 -0.1217  0.1192
 7797TIP3    H144882   6.795   1.207   5.716 -0.6319 -1.6618 -2.3044
 7797TIP3    H244883   6.833   1.330   5.637  0.0552 -0.4359 -0.1316
 7798TIP3   OH244884   0.409   6.651   4.416 -0.1038 -0.4788  0.3508
 7798TIP3    H144885   0.331   6.692   4.455 -0.9371 -2.4397  0.8870
 7798TIP3    H244886   0.430   6.706   4.341 -0.5959  1.4084  1.5230
 7799TIP3   OH244887   0.977   3.258   0.366  0.3540  0.3081 -0.7255
 7799TIP3    H144888   0.996   3.251   0.272 -1.5485  3.2263 -1.4480
 7799TIP3    H244889   0.911   3.327   0.372  1.1252  0.9254  2.8639
 7800TIP3   OH244890   6.666   6.405   3.273  0.2961  0.1946 -0.1747
 7800TIP3    H144891   6.747   6.453   3.290 -0.1566  1.2279 -0.8161
 7800TIP3    H244892   6.602   6.473   3.255 -0.3225 -0.6666 -1.3543
 7801TIP3   OH244893   3.357   2.479   5.147 -0.2076  0.0997 -0.3255
 7801TIP3    H144894   3.402   2.486   5.062  0.7122 -1.7329 -0.0249
 7801TIP3    H244895   3.403   2.541   5.203 -0.9524  1.4862 -1.1746
 7802TIP3   OH244896   2.898   3.228   1.875 -0.1066  0.8522  0.0609
 7802TIP3    H144897   2.946   3.309   1.859  0.2230  0.7735  0.6430
 7802TIP3    H244898   2.927   3.199   1.961  0.5318 -0.4162 -0.5534
 7803TIP3   OH244899   5.059   0.304   4.758  0.7072 -0.1003 -0.3515
 7803TIP3    H144900   5.147   0.314   4.720  0.9623  0.2632  0.3196
 7803TIP3    H244901   5.041   0.210   4.750  0.9028 -0.0828 -1.0448
 7804TIP3   OH244902   0.815   5.236  12.562 -0.1964 -1.1460  0.1914
 7804TIP3    H144903   0.881   5.215  12.495  0.6810  0.2163  0.5870
 7804TIP3    H244904   0.764   5.307  12.525 -1.6773 -2.3576 -0.2160
 7805TIP3   OH244905   3.054   5.336  15.458  0.4904  0.3407  0.8611
 7805TIP3    H144906   2.969   5.378  15.445  0.8007  1.1685  1.4264
 7805TIP3    H244907   3.117   5.400  15.427  0.9843  0.3373  1.8361
 7806TIP3   OH244908   1.039   5.673   6.256  0.1226  0.4415 -0.1051
 7806TIP3    H144909   1.014   5.738   6.322  1.1889 -0.3166  1.1039
 7806TIP3    H244910   1.071   5.599   6.308 -0.1202 -0.6434 -1.4730
 7807TIP3   OH244911   0.839   6.782   0.034 -0.6532  0.0920  0.3012
 7807TIP3    H144912   0.743   6.788   0.032 -0.8740 -1.5753  2.2545
 7807TIP3    H244913   0.869   6.872   0.026 -2.3639  0.6249 -0.6021
 7808TIP3   OH244914   1.404   5.611  13.511  0.0199  0.6792  0.1539
 7808TIP3    H144915   1.369   5.551  13.445  1.1273  0.9688 -0.7250
 7808TIP3    H244916   1.482   5.567  13.545 -0.6330  0.4583  1.4180
 7809TIP3   OH244917   3.757   4.786  14.936  0.0594 -0.0276 -0.1854
 7809TIP3    H144918   3.810   4.829  15.003 -0.1336  1.6968 -1.1046
 7809TIP3    H244919   3.804   4.800  14.855  0.0766 -1.7464 -0.5106
 7810TIP3   OH244920   0.307   0.750   2.646 -0.0926 -0.2534  1.0282
 7810TIP3    H144921   0.226   0.715   2.608 -0.7139  1.5871  0.5537
 7810TIP3    H244922   0.361   0.672   2.662 -2.1246 -1.6037  1.8355
 7811TIP3   OH244923   3.374   0.968   2.782  0.1085 -0.2073  0.0266
 7811TIP3    H144924   3.434   1.041   2.798 -0.2793  0.3975 -1.1410
 7811TIP3    H244925   3.371   0.921   2.865 -0.7448  1.9232  1.2992
 7812TIP3   OH244926   1.034   4.174   1.740 -0.2726 -0.2121  0.1231
 7812TIP3    H144927   1.071   4.108   1.799  0.2604  1.0997  1.3005
 7812TIP3    H244928   1.108   4.232   1.720 -1.1985  1.2757  0.8782
 7813TIP3   OH244929   2.244   0.636  16.828  0.1869 -0.3629  0.6950
 7813TIP3    H144930   2.295   0.717  16.834  0.1173 -0.3294  0.8358
 7813TIP3    H244931   2.310   0.567  16.822  0.3105 -0.1232 -2.3479
 7814TIP3   OH244932   2.900   0.558  14.264 -0.0554  0.1801 -0.5597
 7814TIP3    H144933   2.864   0.623  14.325  2.2354  0.8006  0.2359
 7814TIP3    H244934   2.909   0.478  14.316 -0.8173 -0.1552 -0.9278
 7815TIP3   OH244935   4.597   5.564  14.913 -0.7002 -0.0175 -0.0612
 7815TIP3    H144936   4.520   5.580  14.967 -0.5812  0.0903  0.0798
 7815TIP3    H244937   4.662   5.529  14.974 -0.2657  0.9663  0.0546
 7816TIP3   OH244938   4.798   0.298  12.334  0.0854  0.0723 -0.1173
 7816TIP3    H144939   4.713   0.278  12.294  0.4175  1.3717 -1.5393
 7816TIP3    H244940   4.804   0.393  12.332  1.7813 -0.0226 -0.4541
 7817TIP3   OH244941   0.111   6.505   5.317 -0.5027 -0.2535 -0.5731
 7817TIP3    H144942   0.035   6.455   5.346 -1.9633  1.0120 -2.0239
 7817TIP3    H244943   0.146   6.454   5.244 -0.4590 -0.4281 -0.4292
 7818TIP3   OH244944   6.495   3.894   4.543  0.3389  0.0603  0.0952
 7818TIP3    H144945   6.492   3.987   4.562  0.0745 -0.0807  0.7861
 7818TIP3    H244946   6.579   3.865   4.580 -0.3259 -0.2783  1.4288
 7819TIP3   OH244947   2.531   4.199  15.362 -0.0531  0.1632  0.2919
 7819TIP3    H144948   2.457   4.251  15.395  1.2742  0.9767  2.1694
 7819TIP3    H244949   2.547   4.134  15.430  2.6091  1.7178  1.3075
 7820TIP3   OH244950   1.667   5.070  14.920  0.2279 -0.2450 -0.4052
 7820TIP3    H144951   1.615   5.081  14.999  2.1208  0.5427  0.8110
 7820TIP3    H244952   1.623   5.123  14.854 -0.3582  0.5845  0.6372
 7821TIP3   OH244953   4.823   1.685  16.114 -0.0956  0.3387  0.8552
 7821TIP3    H144954   4.912   1.659  16.090  0.4116  2.0284  0.8089
 7821TIP3    H244955   4.811   1.647  16.202  0.1465 -1.0335  0.3194
 7822TIP3   OH244956   2.007   5.384  15.934  0.2802  0.4954  0.2871
 7822TIP3    H144957   1.956   5.401  15.855 -0.1313  0.8306  0.6209
 7822TIP3    H244958   2.006   5.288  15.943 -0.6504  0.5212  0.5257
 7823TIP3   OH244959   5.572   4.355   2.287 -0.4185 -0.0556  0.4040
 7823TIP3    H144960   5.576   4.386   2.377 -0.4206 -4.1445  2.0131
 7823TIP3    H244961   5.492   4.303   2.282  0.0251 -0.6423 -1.7205
 7824TIP3   OH244962   3.964   2.498  15.319 -0.3475 -0.0582 -0.0120
 7824TIP3    H144963   3.923   2.423  15.277  0.9266 -0.9920  0.3704
 7824TIP3    H244964   3.948   2.571  15.258  1.5367 -1.3851 -2.2411
 7825TIP3   OH244965   5.670   2.656  16.056  0.0380  0.2936  0.6947
 7825TIP3    H144966   5.694   2.745  16.031 -0.3344  0.0436 -0.6160
 7825TIP3    H244967   5.595   2.667  16.115 -0.2252  0.8341  0.2649
 7826TIP3   OH244968   6.409   1.044   5.487 -0.0355  0.0381  0.2881
 7826TIP3    H144969   6.405   0.980   5.415 -0.7623  0.9389 -0.5043
 7826TIP3    H244970   6.474   1.108   5.459 -0.5146  0.5391  0.2927
 7827TIP3   OH244971   2.771   1.734   0.705 -0.3932  0.9745  0.2764
 7827TIP3    H144972   2.763   1.678   0.628 -0.5413 -0.2034  1.1213
 7827TIP3    H244973   2.693   1.713   0.757  0.8271  0.0823  1.7996
 7828TIP3   OH244974   0.353   4.272   5.100 -0.1846 -0.3990  0.2191
 7828TIP3    H144975   0.442   4.304   5.082 -0.4553  0.1193 -0.2395
 7828TIP3    H244976   0.341   4.287   5.194  0.3399 -0.8044  0.3576
 7829TIP3   OH244977   5.170   4.145  14.011  0.8753  0.0488  0.0426
 7829TIP3    H144978   5.168   4.093  13.931  0.8014  0.1010  0.0103
 7829TIP3    H244979   5.254   4.189  14.010  0.0973  1.5843 -0.9862
 7830TIP3   OH244980   5.779   3.051  12.155  0.3015 -0.2607 -0.1007
 7830TIP3    H144981   5.821   3.021  12.236  1.5917  0.0831 -0.6140
 7830TIP3    H244982   5.695   3.005  12.153  1.3315 -2.2824  0.1517
 7831TIP3   OH244983   1.655   6.743  13.862 -0.7736  0.4745  0.4329
 7831TIP3    H144984   1.602   6.721  13.938 -0.0911  0.8064  1.0215
 7831TIP3    H244985   1.612   6.699  13.788 -1.0626 -0.4175  1.1165
 7832TIP3   OH244986   5.329   0.705   0.264  0.9872  0.5473 -0.0780
 7832TIP3    H144987   5.342   0.760   0.187  0.2898 -0.2780 -0.8156
 7832TIP3    H244988   5.312   0.766   0.335  1.6282  1.3212 -0.5810
 7833TIP3   OH244989   2.397   1.299   3.990  0.5582  0.4057 -0.8514
 7833TIP3    H144990   2.473   1.242   4.000 -0.0737 -0.8497 -2.6046
 7833TIP3    H244991   2.429   1.373   3.939  0.8643  0.4618 -0.5811
 7834TIP3   OH244992   3.844   4.629  11.180  0.1876 -0.1090  0.1656
 7834TIP3    H144993   3.888   4.550  11.148  1.1792  0.5715 -0.2188
 7834TIP3    H244994   3.855   4.626  11.275 -1.2612 -1.2687  0.3321
 7835TIP3   OH244995   4.860   5.628  16.638  0.1904  0.1084  0.0729
 7835TIP3    H144996   4.891   5.631  16.728  1.6895  0.7088 -0.4174
 7835TIP3    H244997   4.931   5.586  16.590 -0.4938 -0.0092 -0.8551
 7836TIP3   OH244998   6.642   5.752  10.869  0.3436  0.5687 -0.6405
 7836TIP3    H144999   6.573   5.806  10.907  1.1581 -0.0549  1.8801
 7836TIP3    H245000   6.712   5.815  10.849  0.5205  0.7257  0.4215
 7837TIP3   OH245001   4.619   0.938   3.428 -0.0352 -0.6457  0.1577
 7837TIP3    H145002   4.653   0.889   3.503  1.2624  0.4066  0.3109
 7837TIP3    H245003   4.659   0.895   3.352 -0.6930 -1.2012  0.1195
 7838TIP3   OH245004   4.231   6.206   0.848  0.1339  0.1045 -0.1132
 7838TIP3    H145005   4.213   6.275   0.911 -2.5681 -0.3329 -0.3155
 7838TIP3    H245006   4.319   6.227   0.815 -0.1042  2.7395  0.6732
 7839TIP3   OH245007   1.710   2.205  16.579  0.0897  0.0976  0.0772
 7839TIP3    H145008   1.717   2.285  16.631 -0.4080  0.3495 -0.2300
 7839TIP3    H245009   1.725   2.134  16.641 -0.6650  0.3868  0.5992
 7840TIP3   OH245010   0.964   0.414   5.048 -0.0203  0.4040  0.4740
 7840TIP3    H145011   0.952   0.409   4.953  2.2469 -2.6792  0.1781
 7840TIP3    H245012   1.059   0.423   5.059  0.0008 -1.5348  2.3969
 7841TIP3   OH245013   0.678   0.754   0.527  0.1405 -0.0075 -0.5374
 7841TIP3    H145014   0.746   0.801   0.479  1.4934 -0.7169  0.5941
 7841TIP3    H245015   0.636   0.699   0.462 -0.2752  1.4329 -1.5218
 7842TIP3   OH245016   3.665   5.365   3.657  0.0404  0.6250  0.1151
 7842TIP3    H145017   3.584   5.316   3.642 -0.3035  0.7889  1.3404
 7842TIP3    H245018   3.713   5.313   3.721  0.0846  1.4264  0.7388
 7843TIP3   OH245019   0.420   5.395  12.999 -0.0168  0.1474  0.0338
 7843TIP3    H145020   0.358   5.461  12.969  0.5506  0.9826  0.6377
 7843TIP3    H245021   0.444   5.423  13.087  0.9764 -0.3217 -0.0712
 7844TIP3   OH245022   0.354   1.253   2.342  0.1639 -0.1809 -0.3982
 7844TIP3    H145023   0.391   1.340   2.355 -1.4473  0.4034  0.6796
 7844TIP3    H245024   0.422   1.204   2.297  1.2787  1.5040 -0.6438
 7845TIP3   OH245025   4.877   0.020   5.313  0.1033  0.4174  0.0816
 7845TIP3    H145026   4.893  -0.064   5.356  0.6798  1.5599  2.2569
 7845TIP3    H245027   4.782   0.024   5.305 -0.1235  0.5311  2.1948
 7846TIP3   OH245028   2.635   5.636   3.788 -0.0631 -0.0327  0.1830
 7846TIP3    H145029   2.630   5.547   3.821 -0.4371  0.2273  0.8448
 7846TIP3    H245030   2.723   5.665   3.811 -0.5512  0.3854  1.6080
 7847TIP3   OH245031   2.989   0.774   5.976  0.5518  0.1784 -0.0657
 7847TIP3    H145032   2.979   0.844   6.040  2.5786  1.4174 -0.9887
 7847TIP3    H245033   3.069   0.728   6.002  0.4057 -0.4448 -0.6716
 7848TIP3   OH245034   3.023   2.288  16.205  0.1461 -0.2470 -0.4887
 7848TIP3    H145035   3.080   2.311  16.131  2.0686 -1.6005  0.4910
 7848TIP3    H245036   3.031   2.193  16.212 -0.1724 -0.1755  1.3196
 7849TIP3   OH245037   0.545   3.135   4.684 -0.3392 -0.5508 -0.2205
 7849TIP3    H145038   0.490   3.060   4.704 -0.0579 -0.5129  0.7601
 7849TIP3    H245039   0.622   3.125   4.740 -0.3298  0.4909 -0.0085
 7850TIP3   OH245040   0.665   0.247  13.822  0.5365 -0.0261 -0.1294
 7850TIP3    H145041   0.622   0.282  13.744 -2.9694  0.1135  1.6719
 7850TIP3    H245042   0.756   0.232  13.795  0.2794  2.9454 -3.2576
 7851TIP3   OH245043   4.199   4.984   2.214 -0.0448 -0.5222 -0.2046
 7851TIP3    H145044   4.136   5.047   2.251  0.7958  0.9035 -1.1143
 7851TIP3    H245045   4.180   4.982   2.120  2.4487  1.4760 -0.8719
 7852TIP3   OH245046   5.593   2.165  14.702 -0.4127 -0.2506  0.0861
 7852TIP3    H145047   5.523   2.099  14.705 -2.3654  1.5756 -1.6216
 7852TIP3    H245048   5.589   2.208  14.787 -0.9890 -0.5298  0.2071
 7853TIP3   OH245049   1.653   2.539  12.771 -0.2099 -0.0042 -0.5318
 7853TIP3    H145050   1.600   2.615  12.796 -0.0677 -1.0526  3.7548
 7853TIP3    H245051   1.695   2.565  12.689 -2.0816  3.5048 -0.5837
 7854TIP3   OH245052   1.040   4.661   4.221  0.0560  0.0652  0.3672
 7854TIP3    H145053   0.977   4.732   4.231 -2.7284 -1.8552 -1.7814
 7854TIP3    H245054   1.020   4.601   4.292 -1.8099 -1.2662 -1.1467
 7855TIP3   OH245055   2.543   4.404   1.036  0.0542  0.6463 -0.5240
 7855TIP3    H145056   2.546   4.331   1.097 -1.8653  1.2998  0.4511
 7855TIP3    H245057   2.611   4.464   1.067  1.0814 -0.3270 -0.8381
 7856TIP3   OH245058   0.418   1.055  14.305  0.2678 -0.4630  0.0657
 7856TIP3    H145059   0.509   1.030  14.319  0.2810 -0.4740 -0.0342
 7856TIP3    H245060   0.377   1.051  14.391  0.1704 -1.2070 -0.0099
 7857TIP3   OH245061   5.635   2.964   5.008  0.4167 -0.6428 -0.0471
 7857TIP3    H145062   5.594   2.880   4.988 -0.4473 -0.1265 -0.5563
 7857TIP3    H245063   5.679   2.990   4.927 -1.3651  0.4971 -0.7277
 7858TIP3   OH245064   1.281   3.578   3.793  0.2432 -0.3185  0.5162
 7858TIP3    H145065   1.329   3.536   3.865 -1.1205 -0.5452  1.3417
 7858TIP3    H245066   1.349   3.612   3.735  1.3942 -0.2233  1.8596
 7859TIP3   OH245067   5.380   1.710  13.327  0.3685 -0.6049  0.2217
 7859TIP3    H145068   5.325   1.747  13.258  0.6178 -1.6091 -0.5381
 7859TIP3    H245069   5.323   1.706  13.404  0.0337  0.3622  0.0427
 7860TIP3   OH245070   3.016   4.901   5.580  0.5621  0.0874 -0.0087
 7860TIP3    H145071   3.092   4.869   5.531 -0.4585 -3.0484  0.2301
 7860TIP3    H245072   2.949   4.915   5.513  0.6809  0.6961 -0.0007
 7861TIP3   OH245073   6.467   4.574  17.114 -0.3482  0.0444  0.1195
 7861TIP3    H145074   6.436   4.652  17.158  0.6245  1.0441 -0.8847
 7861TIP3    H245075   6.422   4.575  17.029 -0.3607 -0.5199  0.1128
 7862TIP3   OH245076   1.929   1.046  15.480  0.4799 -0.6835 -0.0139
 7862TIP3    H145077   2.010   1.022  15.434  0.5166 -0.3921 -0.1010
 7862TIP3    H245078   1.934   0.999  15.563  1.1770  0.0623  0.3768
 7863TIP3   OH245079   4.727   3.487  12.599 -0.1378 -0.2271  0.1738
 7863TIP3    H145080   4.730   3.581  12.577 -0.2927 -0.4712 -0.9875
 7863TIP3    H245081   4.816   3.456  12.582 -0.1296 -0.3234  0.3965
 7864TIP3   OH245082   1.675   3.367  12.355 -0.0820  0.5820 -0.5554
 7864TIP3    H145083   1.674   3.282  12.398 -1.1321  0.4030 -0.9029
 7864TIP3    H245084   1.767   3.380  12.330  0.2535 -0.0164  0.3193
 7865TIP3   OH245085   5.041   4.034  12.475  0.0244  1.2748  0.1630
 7865TIP3    H145086   5.127   3.991  12.478 -0.7996 -0.4747  0.0270
 7865TIP3    H245087   5.038   4.087  12.555  0.3188 -0.5446  1.4504
 7866TIP3   OH245088   2.070   2.101  13.519  0.0361 -0.2725 -0.4099
 7866TIP3    H145089   2.064   2.051  13.601 -1.6050 -0.4576 -0.6220
 7866TIP3    H245090   2.073   2.034  13.450 -1.1704 -0.1016 -0.6374
 7867TIP3   OH245091   4.034   1.107   0.653  0.3287  0.7755  0.1384
 7867TIP3    H145092   4.116   1.153   0.637  1.4921 -1.2457 -0.0754
 7867TIP3    H245093   4.055   1.014   0.641 -1.9804  0.1727  0.1309
 7868TIP3   OH245094   4.677   3.668  15.058  0.1329  0.1968  0.0679
 7868TIP3    H145095   4.672   3.716  15.141  2.0009  0.9357 -0.1810
 7868TIP3    H245096   4.614   3.711  15.001 -3.0893 -1.9284  1.7634
 7869TIP3   OH245097   3.351   1.991  13.725  0.6269 -0.3089  0.0359
 7869TIP3    H145098   3.419   1.936  13.763  1.4958  0.3889 -0.4654
 7869TIP3    H245099   3.273   1.935  13.723  1.0852 -1.0096  0.9335
 7870TIP3   OH245100   4.761   0.768  16.404 -0.1851 -0.1602 -0.0219
 7870TIP3    H145101   4.733   0.699  16.345 -1.6002 -0.0460  0.4666
 7870TIP3    H245102   4.790   0.839  16.347  0.0771 -0.6785 -0.5373
 7871TIP3   OH245103   2.482   6.306   2.259  0.2747 -0.9328  0.5226
 7871TIP3    H145104   2.517   6.266   2.179  1.9118 -1.3165  1.3900
 7871TIP3    H245105   2.558   6.317   2.316 -0.5888  0.8630  1.4103
 7872TIP3   OH245106   5.660   6.204   2.989  0.1617  0.0110  0.3458
 7872TIP3    H145107   5.611   6.140   3.039  1.3534 -0.6570  0.7101
 7872TIP3    H245108   5.729   6.153   2.945  0.4071  0.8705 -0.3159
 7873TIP3   OH245109   4.384   0.450  16.517  0.1608  0.0003  0.0989
 7873TIP3    H145110   4.420   0.487  16.436  1.5170 -1.1084  0.1661
 7873TIP3    H245111   4.428   0.499  16.587 -1.3778  1.3048  0.2112
 7874TIP3   OH245112   3.488   0.183   0.399 -0.2645  0.0914  0.4053
 7874TIP3    H145113   3.483   0.257   0.337 -2.7606  0.0282  0.4372
 7874TIP3    H245114   3.521   0.222   0.480  0.4025  0.7458 -0.1681
 7875TIP3   OH245115   3.084   2.786  10.806 -1.0791  0.2348  0.3712
 7875TIP3    H145116   3.152   2.739  10.854 -0.2014  2.0679  1.0190
 7875TIP3    H245117   3.045   2.720  10.748  1.9217 -0.7146 -0.7577
 7876TIP3   OH245118   5.961   0.966  12.724  0.0151 -0.2358 -0.3339
 7876TIP3    H145119   5.977   0.918  12.805 -2.2135  0.9820  0.8914
 7876TIP3    H245120   5.878   0.931  12.691  1.0520 -0.9837 -2.3638
 7877TIP3   OH245121   4.404   2.668  12.488  0.2638  0.1167  0.2018
 7877TIP3    H145122   4.474   2.725  12.522 -0.7198  0.9872  0.8093
 7877TIP3    H245123   4.390   2.698  12.398 -0.5426  1.1490  0.6535
 7878TIP3   OH245124   6.523   5.020   2.535  0.4160  0.3106  0.2714
 7878TIP3    H145125   6.607   5.047   2.572 -0.0415  1.1233  0.7484
 7878TIP3    H245126   6.475   4.982   2.609 -0.8027  2.6417  0.7658
 7879TIP3   OH245127   5.156   3.193  14.153 -0.0090 -0.1919  0.0713
 7879TIP3    H145128   5.131   3.277  14.113  0.2197  0.0599  0.4531
 7879TIP3    H245129   5.198   3.217  14.236 -0.0578 -0.6911  0.2443
 7880TIP3   OH245130   3.675   4.102   5.109  0.6043 -0.4359 -0.5745
 7880TIP3    H145131   3.606   4.043   5.080  0.5288  0.4309 -2.2498
 7880TIP3    H245132   3.737   4.045   5.155 -0.9328 -1.3074  0.5347
 7881TIP3   OH245133   0.344   1.971   4.485  0.2492  0.3903 -0.2229
 7881TIP3    H145134   0.289   1.966   4.406 -0.8489  2.0321  0.3665
 7881TIP3    H245135   0.409   1.901   4.474  1.0060  1.3847 -3.2554
 7882TIP3   OH245136   0.465   4.332   0.598  0.0952  0.2623  0.1788
 7882TIP3    H145137   0.462   4.373   0.685 -0.4456 -0.3771  0.4751
 7882TIP3    H245138   0.421   4.248   0.610  0.5809 -0.1099 -0.5745
 7883TIP3   OH245139   6.128   0.610  14.691 -0.5563 -0.0566  0.1645
 7883TIP3    H145140   6.157   0.522  14.668  0.6032  0.6468 -1.2045
 7883TIP3    H245141   6.049   0.596  14.744  0.2645 -1.9299  0.9829
 7884TIP3   OH245142   1.192   5.530   2.178 -0.1090  0.2486  0.1538
 7884TIP3    H145143   1.160   5.619   2.196 -0.1443  0.2276  0.1964
 7884TIP3    H245144   1.202   5.526   2.083  1.1251  0.7285  0.2351
 7885TIP3   OH245145   2.785   2.676   5.365  0.1469  0.8389 -0.6130
 7885TIP3    H145146   2.865   2.707   5.322 -0.1928  1.4366 -0.8218
 7885TIP3    H245147   2.809   2.667   5.457  0.0332  2.5789 -0.3797
 7886TIP3   OH245148   6.242   1.864   5.858  0.2925 -0.0271  0.0897
 7886TIP3    H145149   6.158   1.864   5.904  0.4421 -1.8196  0.4435
 7886TIP3    H245150   6.304   1.898   5.923 -0.0941  1.1220 -0.1100
 7887TIP3   OH245151   5.902   5.159  17.240 -0.3199  0.5443  0.2391
 7887TIP3    H145152   5.808   5.168  17.225 -0.3552  1.8457  1.0769
 7887TIP3    H245153   5.924   5.231  17.299  0.4247 -1.9928  3.3703
 7888TIP3   OH245154   5.048   1.771  14.011 -0.2404  0.0685  0.0242
 7888TIP3    H145155   4.970   1.825  14.021 -0.9068 -1.1056  1.6569
 7888TIP3    H245156   5.015   1.682  14.004  0.9170 -0.3360 -0.6215
 7889TIP3   OH245157   4.253   1.474   2.524  0.1230  0.3587  0.6661
 7889TIP3    H145158   4.346   1.484   2.546  0.4998 -1.1517 -0.1237
 7889TIP3    H245159   4.210   1.459   2.608  1.0519 -1.9669  0.7802
 7890TIP3   OH245160   6.240   2.298   2.123 -0.3777 -0.4530  0.2618
 7890TIP3    H145161   6.308   2.231   2.115 -1.8447 -1.8666 -1.0627
 7890TIP3    H245162   6.270   2.370   2.068  1.1665 -0.0256  1.6099
 7891TIP3   OH245163   1.451   0.603  13.903 -0.4314 -0.1109  0.3466
 7891TIP3    H145164   1.538   0.638  13.921 -0.8157  0.1744  1.7947
 7891TIP3    H245165   1.464   0.539  13.833  0.9321 -0.1029  0.5738
 7892TIP3   OH245166   2.776   4.454  10.754  0.4423  0.3417  0.6323
 7892TIP3    H145167   2.849   4.392  10.757  0.2183 -0.0998 -1.5421
 7892TIP3    H245168   2.735   4.439  10.669 -1.2661  1.6420  1.1745
 7893TIP3   OH245169   0.144   4.458   6.461 -0.0437  1.1628 -0.3048
 7893TIP3    H145170   0.183   4.530   6.412  1.2886  0.3864 -0.4337
 7893TIP3    H245171   0.057   4.447   6.422  0.5028  1.3794 -1.6500
 7894TIP3   OH245172   4.967   3.185  15.614  0.2437 -0.5802 -0.0582
 7894TIP3    H145173   5.055   3.160  15.587  0.1399 -1.9513  0.7509
 7894TIP3    H245174   4.914   3.174  15.535  0.5439 -1.1879 -0.1836
 7895TIP3   OH245175   1.366   3.389   5.940 -0.0099  0.4118 -0.2670
 7895TIP3    H145176   1.357   3.298   5.913 -0.7969 -0.1396  1.6932
 7895TIP3    H245177   1.312   3.438   5.877 -2.3769 -0.8753  0.6305
 7896TIP3   OH245178   3.266   5.473  15.668 -0.0331 -0.3885  0.4796
 7896TIP3    H145179   3.266   5.425  15.585  0.2585 -0.0938  0.3124
 7896TIP3    H245180   3.341   5.438  15.715  0.9088  0.7701 -0.1372
 7897TIP3   OH245181   0.449   2.568   4.896 -0.6057 -0.1210 -0.3202
 7897TIP3    H145182   0.359   2.561   4.928  0.0498 -1.9204  1.3440
 7897TIP3    H245183   0.483   2.648   4.936 -1.3425  0.3830 -0.6818
 7898TIP3   OH245184   2.880   4.323  13.270  0.3026 -0.7022  0.3384
 7898TIP3    H145185   2.822   4.257  13.310 -0.7910 -0.3225 -0.5613
 7898TIP3    H245186   2.841   4.340  13.184  0.2403  1.5117  0.7427
 7899TIP3   OH245187   3.706   2.342  12.757  0.8707 -0.6014 -0.1274
 7899TIP3    H145188   3.794   2.377  12.751  1.2858 -1.5558  0.2168
 7899TIP3    H245189   3.667   2.360  12.672 -0.2230  3.8886  1.0345
 7900TIP3   OH245190   4.294   5.578   0.348 -0.0586  0.0785 -0.6340
 7900TIP3    H145191   4.362   5.641   0.324  0.1566  0.1778  0.2083
 7900TIP3    H245192   4.318   5.550   0.436  1.1636 -2.8643 -1.7480
 7901TIP3   OH245193   0.095   3.789  11.928  0.3168 -0.2180 -0.3528
 7901TIP3    H145194   0.086   3.798  12.023  1.8799 -1.4285 -0.0571
 7901TIP3    H245195   0.098   3.880  11.897  0.5670  0.2071  0.8285
 7902TIP3   OH245196   0.857   4.164   5.432  0.0784  0.3912 -0.7025
 7902TIP3    H145197   0.875   4.224   5.504  2.3282 -1.1392  0.1353
 7902TIP3    H245198   0.935   4.169   5.377 -0.0379 -1.1064 -1.0425
 7903TIP3   OH245199   1.811   3.732  12.434  0.1787 -0.0002 -0.0031
 7903TIP3    H145200   1.850   3.666  12.378  0.2458  0.7638 -0.8800
 7903TIP3    H245201   1.725   3.750  12.395 -0.2079 -0.2015  0.7349
 7904TIP3   OH245202   3.606   3.268   2.807  0.3961  0.1407 -0.1428
 7904TIP3    H145203   3.567   3.289   2.722  1.1005  1.0984 -0.2498
 7904TIP3    H245204   3.641   3.179   2.797 -1.9623 -0.8849  0.0559
 7905TIP3   OH245205   2.307   5.799  15.332  0.4714  0.0442 -0.6818
 7905TIP3    H145206   2.212   5.808  15.330  0.3432 -1.0977 -0.2608
 7905TIP3    H245207   2.323   5.708  15.307  1.4497  0.1832 -0.5983
 7906TIP3   OH245208   5.593   3.877   3.240 -0.0553  0.4268 -0.4813
 7906TIP3    H145209   5.546   3.919   3.312  0.7848  0.8020 -0.1310
 7906TIP3    H245210   5.552   3.791   3.231 -1.6182  1.2017 -1.0184
 7907TIP3   OH245211   3.954   0.109  12.460 -0.5194 -0.3686 -0.0514
 7907TIP3    H145212   3.994   0.151  12.536 -2.7018  0.8627  0.4832
 7907TIP3    H245213   3.948   0.179  12.395  3.0575 -1.8138 -2.2248
 7908TIP3   OH245214   3.089   2.633  11.284 -0.2759  0.0853 -0.0185
 7908TIP3    H145215   3.182   2.611  11.288 -0.6990 -1.7927  0.7438
 7908TIP3    H245216   3.061   2.602  11.198 -0.6988 -1.7784  0.7423
 7909TIP3   OH245217   2.188   4.859  13.234  0.1594  0.0172 -0.3643
 7909TIP3    H145218   2.145   4.944  13.246 -0.4192 -0.0758 -1.6030
 7909TIP3    H245219   2.279   4.875  13.257 -0.3652  0.4121  1.5738
 7910TIP3   OH245220   0.732   1.938   1.515 -0.2931 -0.1125 -0.1857
 7910TIP3    H145221   0.653   1.982   1.544  1.8858  2.5634  2.2506
 7910TIP3    H245222   0.732   1.854   1.562 -1.6512 -0.1903 -0.2926
 7911TIP3   OH245223   0.623   0.115  15.100 -0.0444 -0.5534 -0.5484
 7911TIP3    H145224   0.659   0.193  15.142  1.0188 -0.0315 -2.3077
 7911TIP3    H245225   0.577   0.149  15.024 -0.1608 -1.5936 -0.9530
 7912TIP3   OH245226   2.161   3.079  11.620 -0.1091 -0.2035 -0.2782
 7912TIP3    H145227   2.105   3.035  11.556  1.2982 -2.4237 -0.1167
 7912TIP3    H245228   2.116   3.066  11.703 -0.8689  0.7756 -0.5238
 7913TIP3   OH245229   5.704   1.109   2.321 -0.3590 -0.1258 -0.1023
 7913TIP3    H145230   5.622   1.096   2.273 -0.1745  1.2864 -0.8409
 7913TIP3    H245231   5.771   1.108   2.253  0.0254  0.7565  0.2587
 7914TIP3   OH245232   1.298   4.090   0.413 -0.4310  0.0925 -0.3669
 7914TIP3    H145233   1.333   4.075   0.501 -0.4936 -0.6075 -0.4533
 7914TIP3    H245234   1.308   4.184   0.399  0.5542  0.0483 -0.0250
 7915TIP3   OH245235   2.455   3.099  16.517 -0.0074 -0.2177  0.0935
 7915TIP3    H145236   2.386   3.062  16.572  0.3485  1.0146  1.4112
 7915TIP3    H245237   2.493   3.023  16.473 -0.3935 -1.2273  1.4401
 7916TIP3   OH245238   0.713   3.220  16.465  0.3518  0.1252  0.0624
 7916TIP3    H145239   0.763   3.302  16.469  0.5742  0.0996 -1.6083
 7916TIP3    H245240   0.778   3.154  16.442  0.2299 -0.6116  1.6800
 7917TIP3   OH245241   1.905   4.814  12.582  0.2946 -0.5241  0.0645
 7917TIP3    H145242   1.949   4.896  12.604  0.5707 -0.4723 -0.6395
 7917TIP3    H245243   1.920   4.758  12.658 -0.7188  0.3902  0.9710
 7918TIP3   OH245244   6.674   0.980  11.224 -0.0204  0.6599 -0.2038
 7918TIP3    H145245   6.591   0.998  11.180 -0.9716  2.3129  2.0504
 7918TIP3    H245246   6.651   0.923  11.297  1.2976 -0.9821 -1.0074
 7919TIP3   OH245247   1.929   5.624  14.145  0.0168 -0.5123  0.2828
 7919TIP3    H145248   1.856   5.655  14.092 -0.4212  0.2884  1.3271
 7919TIP3    H245249   1.891   5.609  14.232  0.5400 -2.5593  0.2251
 7920TIP3   OH245250   5.798   3.915  11.726  0.8425 -0.1421  0.2086
 7920TIP3    H145251   5.791   3.882  11.637 -0.9149 -1.2716  0.7025
 7920TIP3    H245252   5.720   3.970  11.738  0.5107 -0.8014  1.3114
 7921TIP3   OH245253   4.407   4.312   1.605  0.7762  0.0653  0.0619
 7921TIP3    H145254   4.343   4.382   1.596 -0.9543 -1.2831  1.1919
 7921TIP3    H245255   4.439   4.297   1.516 -1.8872 -0.4384 -0.8937
 7922TIP3   OH245256   2.121   0.406   5.092 -0.5801 -0.5226  0.3185
 7922TIP3    H145257   2.062   0.468   5.049 -0.5638 -1.6699 -1.4593
 7922TIP3    H245258   2.209   0.436   5.067 -0.5890 -1.9977 -1.8057
 7923TIP3   OH245259   4.291   0.144   3.402 -0.5545  0.2557  0.1292
 7923TIP3    H145260   4.196   0.155   3.405 -0.6296 -0.4949  0.6900
 7923TIP3    H245261   4.304   0.060   3.357 -0.1711  0.1080  0.5118
 7924TIP3   OH245262   5.968   3.299   3.394 -0.2293  0.1347  0.6577
 7924TIP3    H145263   5.964   3.245   3.474 -0.7710 -1.4552 -0.3866
 7924TIP3    H245264   6.054   3.280   3.357  1.3574  3.2235  2.3326
 7925TIP3   OH245265   6.501   2.950   1.712 -0.3621  0.2537 -0.0669
 7925TIP3    H145266   6.571   3.005   1.678  0.1105 -1.0932 -1.3622
 7925TIP3    H245267   6.421   2.997   1.688  0.0430  1.0232  0.0373
 7926TIP3   OH245268   0.035   0.195   1.209 -0.6361 -0.1296  0.0771
 7926TIP3    H145269   0.109   0.255   1.222 -3.2829  3.1096  1.7489
 7926TIP3    H245270   0.032   0.144   1.290  0.8150 -1.6445 -0.7821
 7927TIP3   OH245271   4.664   4.557  13.959  0.0013 -0.3253 -0.7896
 7927TIP3    H145272   4.630   4.469  13.944 -1.1131 -0.0166 -0.2417
 7927TIP3    H245273   4.721   4.548  14.035 -1.7331 -0.2629  0.6037
 7928TIP3   OH245274   3.866   4.940  11.754 -0.3606 -0.3248  0.4972
 7928TIP3    H145275   3.937   4.879  11.731  0.5408  0.8015  0.2023
 7928TIP3    H245276   3.790   4.906  11.707  0.1199 -1.2313  0.3514
 7929TIP3   OH245277   2.505   1.051  15.306  0.4503  0.0148 -0.0879
 7929TIP3    H145278   2.427   1.107  15.306  0.4212  0.1427  3.1318
 7929TIP3    H245279   2.557   1.083  15.232 -1.8004  0.9782 -1.3443
 7930TIP3   OH245280   6.689   2.595  12.684  0.3818 -0.1748 -1.1449
 7930TIP3    H145281   6.713   2.530  12.751  0.1283  0.4115 -0.4755
 7930TIP3    H245282   6.709   2.679  12.724  2.5957  0.1549 -2.7315
 7931TIP3   OH245283   3.518   2.736   0.906  0.1024  0.8098  0.3467
 7931TIP3    H145284   3.591   2.791   0.878  0.3338  0.2878 -0.0865
 7931TIP3    H245285   3.493   2.686   0.828  0.4633 -0.3225  0.9277
 7932TIP3   OH245286   0.197   1.039  12.160 -0.1674  0.1579 -0.0136
 7932TIP3    H145287   0.275   1.095  12.156  0.0055 -0.0535  0.3553
 7932TIP3    H245288   0.191   1.012  12.252 -0.1847 -0.5185 -0.2087
 7933TIP3   OH245289   3.955   2.437  14.323  0.1323  0.3094  0.3423
 7933TIP3    H145290   3.998   2.370  14.270  2.1835  1.3763  0.5223
 7933TIP3    H245291   3.952   2.514  14.265 -0.1232  0.7007  0.8692
 7934TIP3   OH245292   2.065   4.323   5.401  0.2066  0.1382 -0.5602
 7934TIP3    H145293   2.020   4.261   5.457  0.8266 -0.2374 -0.4638
 7934TIP3    H245294   2.156   4.320   5.430  0.2142  1.2166 -0.4499
 7935TIP3   OH245295   6.668   2.737  14.950  0.5652  0.0028  0.4043
 7935TIP3    H145296   6.680   2.827  14.982  0.9451  0.9214 -2.0804
 7935TIP3    H245297   6.750   2.717  14.905  0.3242 -1.4555  0.5704
 7936TIP3   OH245298   3.586   3.669  11.528 -0.2279  0.0021  0.3544
 7936TIP3    H145299   3.506   3.665  11.581 -0.1589  0.7990  0.5324
 7936TIP3    H245300   3.626   3.753  11.552 -0.0088  0.2057 -0.6970
 7937TIP3   OH245301   0.398   3.315  14.346  0.3689  0.2112 -0.4392
 7937TIP3    H145302   0.467   3.302  14.411 -1.1586 -1.6169  0.9462
 7937TIP3    H245303   0.348   3.390  14.379 -0.2532 -0.5563  0.4246
 7938TIP3   OH245304   6.580   3.467  15.966  0.3224 -0.2746  0.5581
 7938TIP3    H145305   6.545   3.549  15.929  1.4113 -0.4448 -0.9531
 7938TIP3    H245306   6.511   3.403  15.952  1.2447 -0.7378 -2.8862
 7939TIP3   OH245307   3.069   6.091  13.739 -0.1682 -0.2454 -0.4129
 7939TIP3    H145308   3.124   6.084  13.817  0.7559 -1.2078 -1.1172
 7939TIP3    H245309   2.982   6.065  13.769 -0.2176  1.0955  0.6787
 7940TIP3   OH245310   3.574   0.676  13.472  0.7105  0.2565  0.1177
 7940TIP3    H145311   3.616   0.756  13.441 -0.9097  0.5759 -1.4235
 7940TIP3    H245312   3.619   0.606  13.426 -0.5342  0.6161 -1.7653
 7941TIP3   OH245313   2.281   4.231   0.147  0.4307 -0.3672 -0.2794
 7941TIP3    H145314   2.377   4.231   0.151  0.4022 -0.7084  1.8845
 7941TIP3    H245315   2.257   4.139   0.134  0.4197 -0.5304  0.7436
 7942TIP3   OH245316   6.549   4.367   1.943  0.8911  0.1129  0.3368
 7942TIP3    H145317   6.540   4.452   1.986 -1.2537  0.0561  0.0827
 7942TIP3    H245318   6.460   4.337   1.928  1.5861 -1.8035 -0.3851
 7943TIP3   OH245319   5.606   2.849  12.040 -0.1585 -0.0892 -0.3434
 7943TIP3    H145320   5.637   2.908  11.972  1.2392 -0.4127 -0.0093
 7943TIP3    H245321   5.511   2.848  12.029  0.0638 -0.6534 -2.7400
 7944TIP3   OH245322   1.256   5.572   4.041 -0.0729  0.2542  0.2254
 7944TIP3    H145323   1.210   5.635   4.096 -0.4972  1.4711 -1.4348
 7944TIP3    H245324   1.313   5.524   4.101 -1.6032  0.4798  1.9250
 7945TIP3   OH245325   1.335   2.357   6.111  0.2491  0.2554  0.1333
 7945TIP3    H145326   1.430   2.374   6.107  0.1685  0.7712  0.3267
 7945TIP3    H245327   1.307   2.359   6.019  0.4537 -0.0622  0.0636
 7946TIP3   OH245328   1.896   1.797   6.278 -0.0670  0.4156  0.1485
 7946TIP3    H145329   1.841   1.732   6.233  0.5387  0.5214 -0.7860
 7946TIP3    H245330   1.835   1.850   6.329 -0.5740 -0.8858  0.9375
 7947TIP3   OH245331   3.091   4.646   5.910  0.1007 -0.1884 -0.6040
 7947TIP3    H145332   3.083   4.741   5.901  2.2360 -0.1251 -2.4828
 7947TIP3    H245333   3.076   4.612   5.822 -2.9856 -1.8970  0.4221
 7948TIP3   OH245334   0.745   4.447  14.855  0.9691  0.3143 -0.0258
 7948TIP3    H145335   0.817   4.473  14.913  1.1190 -0.4950  0.1662
 7948TIP3    H245336   0.772   4.362  14.821  0.9547  0.8421 -1.4289
 7949TIP3   OH245337   5.737   1.745   5.657 -0.0114  0.5268 -0.0689
 7949TIP3    H145338   5.736   1.837   5.687  1.3841  0.4314  0.3627
 7949TIP3    H245339   5.821   1.736   5.611  0.8029 -1.0152  1.5908
 7950TIP3   OH245340   2.687   1.491   6.475  0.1320 -0.3480  0.0816
 7950TIP3    H145341   2.743   1.518   6.403 -0.6722  2.6067  0.4384
 7950TIP3    H245342   2.749   1.465   6.544  0.9503 -0.8756 -0.8210
 7951TIP3   OH245343   5.969   1.425   5.370  0.0209 -0.9687 -0.4005
 7951TIP3    H145344   5.912   1.402   5.444  0.5902  2.5669  1.3488
 7951TIP3    H245345   6.047   1.371   5.382 -0.3648 -1.2638  0.9312
 7952TIP3   OH245346   6.425   1.421   3.359  0.3813 -0.0828  0.4386
 7952TIP3    H145347   6.404   1.375   3.278  0.5327 -0.9662  0.8902
 7952TIP3    H245348   6.495   1.482   3.336 -0.5453  0.6930 -0.4040
 7953TIP3   OH245349   0.627   1.663   4.857 -0.2263 -0.5506 -0.1443
 7953TIP3    H145350   0.706   1.636   4.902  1.3075  1.8522 -1.1946
 7953TIP3    H245351   0.610   1.752   4.889 -1.4011 -0.3052 -1.3315
 7954TIP3   OH245352   1.787   5.886   5.697  0.5297  0.1331 -0.3225
 7954TIP3    H145353   1.794   5.798   5.736  1.5453 -0.0927 -0.9816
 7954TIP3    H245354   1.797   5.945   5.772 -1.3460 -0.2855  0.3115
 7955TIP3   OH245355   6.796   1.105   6.016  0.4757  0.0012  0.2339
 7955TIP3    H145356   6.838   1.021   6.034  1.4657  0.0978 -1.4194
 7955TIP3    H245357   6.864   1.157   5.973 -1.0503  0.4908 -1.7534
 7956TIP3   OH245358   5.526   2.362   0.238 -0.6347 -0.2655  0.2654
 7956TIP3    H145359   5.544   2.455   0.251  1.7111 -0.4823 -0.8491
 7956TIP3    H245360   5.463   2.358   0.167  0.4544  0.4864 -0.7838
 7957TIP3   OH245361   3.552   1.286   0.950  0.2593 -0.4546  0.2637
 7957TIP3    H145362   3.503   1.305   0.870  2.5142  2.6591 -0.5671
 7957TIP3    H245363   3.495   1.317   1.021  0.1275  1.2487 -0.5316
 7958TIP3   OH245364   2.531   5.874   3.259 -0.3158 -0.6519 -0.0495
 7958TIP3    H145365   2.510   5.829   3.177 -1.6671  1.3918 -0.9042
 7958TIP3    H245366   2.623   5.898   3.250 -0.6907  0.4140 -1.4641
 7959TIP3   OH245367   2.154   3.649  15.970 -0.4123  0.0700  0.7129
 7959TIP3    H145368   2.142   3.585  15.900 -0.0267 -0.7418  1.3674
 7959TIP3    H245369   2.169   3.732  15.924 -2.0853 -0.0513 -0.1450
 7960TIP3   OH245370   0.308   2.174  16.054  0.2269  0.2331  0.5330
 7960TIP3    H145371   0.237   2.132  16.005  0.2457  0.4031  0.3576
 7960TIP3    H245372   0.354   2.227  15.988  0.5957  0.0211  0.6195
 7961TIP3   OH245373   6.701   4.568   0.696 -0.1390  0.0360 -0.1668
 7961TIP3    H145374   6.725   4.529   0.780  1.6402 -0.5297 -0.8851
 7961TIP3    H245375   6.649   4.500   0.652  0.0265 -0.1872 -0.0217
 7962TIP3   OH245376   3.350   1.895   3.749 -0.1563 -0.3255  0.3264
 7962TIP3    H145377   3.393   1.814   3.774  0.4381 -0.4215 -0.9166
 7962TIP3    H245378   3.258   1.872   3.738 -0.1958 -0.5575  1.1052
 7963TIP3   OH245379   5.620   1.077   0.771 -0.3858  0.1057 -0.0273
 7963TIP3    H145380   5.584   0.996   0.733  0.8457 -0.3808 -0.1797
 7963TIP3    H245381   5.596   1.145   0.707  0.7361 -0.5417 -1.1665
 7964TIP3   OH245382   1.147   4.443   5.285 -0.0885 -0.7275 -0.3031
 7964TIP3    H145383   1.227   4.456   5.336 -0.8182  1.8435  0.3156
 7964TIP3    H245384   1.178   4.434   5.195  0.8843  2.1292 -0.3427
 7965TIP3   OH245385   3.760   1.280  15.699  0.2665 -0.2692 -0.2140
 7965TIP3    H145386   3.852   1.280  15.671  0.8537  0.6488  1.5886
 7965TIP3    H245387   3.714   1.235  15.628  1.8512  0.6677 -1.9365
 7966TIP3   OH245388   5.948   2.703   2.216  0.2057  0.1332 -0.3789
 7966TIP3    H145389   5.987   2.623   2.182 -0.0304 -0.1771  0.0629
 7966TIP3    H245390   5.855   2.681   2.227  0.0535  0.6101 -0.6764
 7967TIP3   OH245391   3.761   4.417  13.005  0.1961 -0.2393  0.6717
 7967TIP3    H145392   3.761   4.324  13.029 -0.6228  0.0312  1.8246
 7967TIP3    H245393   3.852   4.436  12.984  0.5892 -1.0386  1.5407
 7968TIP3   OH245394   5.083   4.840  12.894  0.0112 -0.0762  0.2019
 7968TIP3    H145395   5.148   4.834  12.824  0.4341  1.7550  0.3771
 7968TIP3    H245396   5.067   4.934  12.903  0.8561 -0.1218  3.3455
 7969TIP3   OH245397   1.586   1.993  14.264  0.0837  0.2948  0.2486
 7969TIP3    H145398   1.551   1.944  14.189  0.5818 -0.1799  0.3190
 7969TIP3    H245399   1.512   2.001  14.324 -0.3986  0.9412 -0.4252
 7970TIP3   OH245400   1.563   5.046  16.699 -0.8023 -0.3894  0.1197
 7970TIP3    H145401   1.617   5.019  16.773 -1.5867  0.1347  0.8939
 7970TIP3    H245402   1.570   4.974  16.636  1.6221  0.0835 -0.2665
 7971TIP3   OH245403   6.311   2.467  16.486 -0.5795 -0.4719 -0.4747
 7971TIP3    H145404   6.394   2.471  16.439 -0.6828  1.4664 -0.5734
 7971TIP3    H245405   6.259   2.404  16.437  0.6484 -1.3626 -0.6780
 7972TIP3   OH245406   4.667   4.724   3.124  0.0623 -0.2144  0.2967
 7972TIP3    H145407   4.756   4.699   3.148 -0.7346 -3.4838  0.3834
 7972TIP3    H245408   4.642   4.660   3.057 -1.4809  2.0429 -1.4145
 7973TIP3   OH245409   5.341   6.170   0.344 -0.0866  0.7565  0.2918
 7973TIP3    H145410   5.278   6.120   0.395  0.8324  1.0959  1.8180
 7973TIP3    H245411   5.297   6.254   0.327  0.2998  1.4343  2.3200
 7974TIP3   OH245412   4.370   0.080  12.470  0.0056  0.7883  1.2931
 7974TIP3    H145413   4.462   0.056  12.458  0.2867  1.3933  2.1310
 7974TIP3    H245414   4.340   0.023  12.541 -0.8055 -0.6884 -0.1575
 7975TIP3   OH245415   5.722   4.809  11.694 -0.1430 -0.1958 -0.2242
 7975TIP3    H145416   5.674   4.881  11.653  0.2304 -2.3097 -5.0360
 7975TIP3    H245417   5.814   4.832  11.684  0.0542  0.7086  2.7314
 7976TIP3   OH245418   4.127   2.003  12.173  0.0688 -0.8985  0.6602
 7976TIP3    H145419   4.048   1.970  12.131 -0.3325 -0.1635  0.8087
 7976TIP3    H245420   4.133   2.094  12.143  0.6486 -0.8348  0.9562
 7977TIP3   OH245421   0.406   6.670  14.042  0.0796  0.0091  0.1462
 7977TIP3    H145422   0.422   6.670  14.136  1.8502  0.9285 -0.0991
 7977TIP3    H245423   0.391   6.579  14.019 -3.0636  0.0276  1.6647
 7978TIP3   OH245424   0.265   1.612   2.582  0.0682 -0.4476  0.0618
 7978TIP3    H145425   0.356   1.642   2.571  1.2367 -2.8680  2.1874
 7978TIP3    H245426   0.262   1.527   2.538 -1.0380 -0.6509  0.5057
 7979TIP3   OH245427   1.507   0.614  11.878  0.0443 -0.9834 -0.7799
 7979TIP3    H145428   1.432   0.626  11.820 -0.2106 -1.8381 -0.6379
 7979TIP3    H245429   1.520   0.519  11.882  0.8179 -0.8722 -0.4038
 7980TIP3   OH245430   5.084   6.736  11.724 -0.0515 -0.0478  0.5448
 7980TIP3    H145431   5.108   6.807  11.783  0.0308  0.1582  0.2633
 7980TIP3    H245432   5.164   6.684  11.714 -0.0011  0.0526  0.4266
 7981TIP3   OH245433   0.927   4.595   1.146 -0.0107 -0.3781  0.6142
 7981TIP3    H145434   0.891   4.518   1.103 -0.8224  1.2224 -1.7652
 7981TIP3    H245435   0.988   4.560   1.212 -1.4558 -3.0191  0.6513
 7982TIP3   OH245436   0.696   4.072  16.133  0.4097  0.1794 -0.2974
 7982TIP3    H145437   0.646   4.062  16.214 -0.2760  3.3596 -0.2005
 7982TIP3    H245438   0.766   4.133  16.156  2.3507 -1.5011 -1.3282
 7983TIP3   OH245439   0.261   1.408   2.854 -0.3701 -0.3966  0.1595
 7983TIP3    H145440   0.241   1.500   2.839 -1.3283 -0.7925 -1.1916
 7983TIP3    H245441   0.264   1.369   2.767  3.7000 -0.9840  0.3732
 7984TIP3   OH245442   6.017   5.635  10.893  0.0987 -0.0465  0.2228
 7984TIP3    H145443   6.061   5.686  10.961 -1.5977 -0.9674  2.1345
 7984TIP3    H245444   6.087   5.586  10.851  1.4531  1.9971 -0.0662
 7985TIP3   OH245445   2.285   6.632   5.720 -0.3799 -0.1979  0.1427
 7985TIP3    H145446   2.270   6.541   5.693  1.0566 -0.6063  0.5874
 7985TIP3    H245447   2.201   6.675   5.710 -2.1500 -2.4711  3.3521
 7986TIP3   OH245448   5.579   4.269  11.967  0.4431  0.0604 -0.0717
 7986TIP3    H145449   5.576   4.221  11.884  3.1113  0.1453 -0.2983
 7986TIP3    H245450   5.631   4.346  11.948  3.3333 -1.1538  2.1869
 7987TIP3   OH245451   5.994   2.944   5.716  0.1926  0.1913 -0.0715
 7987TIP3    H145452   5.926   3.011   5.722  0.0616  0.0938 -0.4574
 7987TIP3    H245453   5.974   2.883   5.788  0.6592  0.8755  0.6526
 7988TIP3   OH245454   2.143   2.094   1.811  0.0827 -0.0947  0.6008
 7988TIP3    H145455   2.226   2.119   1.852 -0.1191  1.2051  0.2889
 7988TIP3    H245456   2.091   2.055   1.881 -0.8717  3.4875  2.1129
 7989TIP3   OH245457   4.489   4.058   0.190  0.0102 -0.8882  0.3262
 7989TIP3    H145458   4.462   4.011   0.269 -0.6246 -0.3974  0.4114
 7989TIP3    H245459   4.416   4.048   0.130 -0.7419  1.1099  0.8386
 7990TIP3   OH245460   4.008   5.489   2.166  0.0807  0.0172 -0.0665
 7990TIP3    H145461   3.983   5.416   2.109  2.5680 -2.5090  1.7898
 7990TIP3    H245462   4.103   5.496   2.154  0.4556  0.3250  2.6298
 7991TIP3   OH245463   5.911   1.719  11.795 -0.2511 -0.1770  0.3241
 7991TIP3    H145464   5.877   1.784  11.856  0.5363  1.5072 -0.9552
 7991TIP3    H245465   5.873   1.743  11.710  0.6239 -0.9367 -0.3004
 7992TIP3   OH245466   4.178   0.621   1.884  0.4378 -0.1296  0.0651
 7992TIP3    H145467   4.142   0.625   1.795 -1.1947 -0.1451  0.7062
 7992TIP3    H245468   4.141   0.540   1.920 -0.2048  0.6957  1.2946
 7993TIP3   OH245469   1.338   3.873  15.275 -0.3995  0.3373 -0.1353
 7993TIP3    H145470   1.424   3.907  15.250 -0.7538  0.6611 -0.9410
 7993TIP3    H245471   1.282   3.950  15.278 -1.0633 -0.0774 -1.3326
 7994TIP3   OH245472   4.028   0.680   0.418 -0.3640 -0.3674  0.1889
 7994TIP3    H145473   4.104   0.624   0.404  0.5110  0.6891  0.5377
 7994TIP3    H245474   3.953   0.621   0.416  0.2379 -1.1422 -2.5010
 7995TIP3   OH245475   5.413   0.472  15.870 -0.5466 -0.0301  0.4747
 7995TIP3    H145476   5.355   0.535  15.827 -0.2364  1.7159  2.4359
 7995TIP3    H245477   5.355   0.403  15.902 -1.2812  0.6315  0.5999
 7996TIP3   OH245478   3.565   6.527  12.440  0.3513 -0.2586 -0.3092
 7996TIP3    H145479   3.617   6.576  12.504 -0.6446 -0.6439  0.8172
 7996TIP3    H245480   3.536   6.593  12.377 -1.0964  0.6981  1.2684
 7997TIP3   OH245481   1.639   3.263  15.794  0.3701 -0.4039  0.0650
 7997TIP3    H145482   1.584   3.328  15.751  2.0102  0.9211 -0.1510
 7997TIP3    H245483   1.631   3.184  15.740  2.3563  1.1786 -2.7982
 7998TIP3   OH245484   2.265   5.244  14.002 -0.6124 -0.0158 -0.1304
 7998TIP3    H145485   2.269   5.149  13.993 -1.9509  0.0106 -1.3251
 7998TIP3    H245486   2.255   5.277  13.913  1.3814  1.3770  0.0887
 7999TIP3   OH245487   5.000   4.725   5.138  0.1757  0.0668  0.4133
 7999TIP3    H145488   4.920   4.759   5.178 -0.0106  0.5958 -0.3785
 7999TIP3    H245489   4.969   4.672   5.065  0.5570  1.2964 -0.6753
 8000TIP3   OH245490   1.701   3.598   3.996 -0.5383  0.2755  0.2883
 8000TIP3    H145491   1.618   3.591   4.043 -0.2227 -1.2368  0.6631
 8000TIP3    H245492   1.685   3.553   3.913 -0.0669 -0.0869  0.3938
 8001TIP3   OH245493   5.530   1.900   2.288 -0.0067  0.3552 -0.1972
 8001TIP3    H145494   5.457   1.889   2.348  0.5491  0.6171  0.5441
 8001TIP3    H245495   5.603   1.927   2.344  1.4198 -2.5076 -0.5050
 8002TIP3   OH245496   2.816   5.836   0.151 -0.7490 -0.1515  0.3933
 8002TIP3    H145497   2.749   5.828   0.083 -0.9093 -0.5724  0.5907
 8002TIP3    H245498   2.780   5.786   0.224 -0.1975 -0.4141  0.4855
 8003TIP3   OH245499   5.468   6.007   5.413 -0.0186  0.3292 -0.0638
 8003TIP3    H145500   5.533   5.939   5.432 -0.7855 -0.2214  0.6792
 8003TIP3    H245501   5.508   6.061   5.346  0.1213 -1.5834 -1.6036
 8004TIP3   OH245502   0.247   0.181  16.295 -0.1388 -0.5459 -0.3867
 8004TIP3    H145503   0.322   0.208  16.241 -0.2896  0.2075 -0.2354
 8004TIP3    H245504   0.217   0.100  16.256  0.9950 -1.0677 -0.2298
 8005TIP3   OH245505   4.682   4.825  16.838 -0.6982  0.2464  0.0094
 8005TIP3    H145506   4.627   4.776  16.776 -1.4479 -0.2090  1.0089
 8005TIP3    H245507   4.748   4.763  16.866 -0.7250  0.2701  0.1243
 8006TIP3   OH245508   1.249   6.282   5.773  0.0959  0.4599  0.3780
 8006TIP3    H145509   1.202   6.229   5.709  0.8879  0.2707 -0.0526
 8006TIP3    H245510   1.196   6.361   5.782 -0.0663  0.4562 -0.4562
 8007TIP3   OH245511   0.558   5.415   4.540  0.5082 -0.0247 -0.8246
 8007TIP3    H145512   0.476   5.453   4.572  0.0417 -0.9239 -0.9232
 8007TIP3    H245513   0.538   5.323   4.524  0.9032  0.2197 -3.0788
 8008TIP3   OH245514   1.135   1.876  13.316  0.2268 -0.0579 -0.1114
 8008TIP3    H145515   1.107   1.906  13.230  0.1971  1.1436  0.2962
 8008TIP3    H245516   1.070   1.810  13.340 -0.7751  0.8393 -0.2868
 8009TIP3   OH245517   6.744   2.883   2.657 -0.1606  0.2264  0.4079
 8009TIP3    H145518   6.724   2.954   2.595  0.1997  1.2173  1.3806
 8009TIP3    H245519   6.832   2.855   2.633  0.9307  2.1816  1.8340
 8010TIP3   OH245520   5.692   5.899  17.114  0.1535 -0.2158 -0.3638
 8010TIP3    H145521   5.772   5.851  17.094  1.6516  2.0275 -0.1328
 8010TIP3    H245522   5.630   5.832  17.143  1.6243 -2.1350 -1.4188
 8011TIP3   OH245523   6.426   1.062   2.507  0.6273  0.0121  0.6186
 8011TIP3    H145524   6.414   1.134   2.445  2.9053 -1.9497 -2.3701
 8011TIP3    H245525   6.338   1.043   2.539 -1.0047  0.2554 -3.1686
 8012TIP3   OH245526   5.399   6.400  14.151  0.0522 -0.1133  0.0189
 8012TIP3    H145527   5.353   6.340  14.092 -2.3737  0.1444  1.5080
 8012TIP3    H245528   5.402   6.353  14.235  0.2896  0.9043  0.5993
 8013TIP3   OH245529   0.391   3.048  16.794  0.1212  0.2909  0.6312
 8013TIP3    H145530   0.383   2.958  16.762 -0.8996  1.0896 -1.6144
 8013TIP3    H245531   0.302   3.072  16.820  0.1024  1.0449 -0.0810
 8014TIP3   OH245532   2.479   0.617  11.951  0.2450  0.0737 -0.2002
 8014TIP3    H145533   2.434   0.533  11.939  1.2894 -0.5830  0.2649
 8014TIP3    H245534   2.430   0.661  12.020 -0.5034 -0.0041 -0.6723
 8015TIP3   OH245535   3.362   2.880  14.261  0.1544  0.0324  0.4944
 8015TIP3    H145536   3.390   2.850  14.347  1.2655 -1.1190 -0.2275
 8015TIP3    H245537   3.270   2.904  14.272  0.0372 -0.9248  1.7931
 8016TIP3   OH245538   3.274   1.164   5.207  0.2581  0.0239 -0.1743
 8016TIP3    H145539   3.358   1.181   5.166 -0.1949  0.5502 -0.8943
 8016TIP3    H245540   3.220   1.127   5.138 -0.7273  1.5648 -0.2564
 8017TIP3   OH245541   3.473   6.782   4.339 -0.4987  0.6145 -0.1362
 8017TIP3    H145542   3.435   6.708   4.386 -1.1932 -0.6733 -2.5509
 8017TIP3    H245543   3.404   6.848   4.338 -0.2706  0.8982  1.0724
 8018TIP3   OH245544   1.818   3.713   1.787 -0.1520  0.0687 -0.2758
 8018TIP3    H145545   1.804   3.619   1.792  0.6285 -0.1865 -2.0827
 8018TIP3    H245546   1.729   3.750   1.790 -0.8658 -1.0217 -3.4965
 8019TIP3   OH245547   3.216   3.695   5.737 -0.0910  0.5247 -0.1951
 8019TIP3    H145548   3.178   3.684   5.824 -2.3141  0.6125 -1.0932
 8019TIP3    H245549   3.277   3.768   5.747  0.9365 -0.5044  1.6152
 8020TIP3   OH245550   3.107   3.694   3.580  0.2831  0.5103 -0.0635
 8020TIP3    H145551   3.200   3.715   3.594  0.5019  0.1244 -0.8329
 8020TIP3    H245552   3.083   3.744   3.502 -0.7233  2.1553  1.2424
 8021TIP3   OH245553   0.378   5.006   2.184  0.3619  0.0121 -0.3389
 8021TIP3    H145554   0.311   5.024   2.118  0.7709 -0.1900 -0.8198
 8021TIP3    H245555   0.436   5.081   2.180  0.5516 -0.1374 -0.4217
 8022TIP3   OH245556   4.967   5.455   4.572  0.6564  0.4724  0.5177
 8022TIP3    H145557   4.886   5.454   4.522  0.7707 -0.6889  0.3146
 8022TIP3    H245558   5.034   5.480   4.508  0.5571  0.7737  0.5289
 8023TIP3   OH245559   1.453   5.853   4.192  0.5399  0.4466  0.7224
 8023TIP3    H145560   1.383   5.871   4.129  1.5981  0.9030 -0.3834
 8023TIP3    H245561   1.435   5.912   4.265 -1.9906 -1.6848  1.9521
 8024TIP3   OH245562   3.057   2.299   0.247  0.2047 -0.3330 -0.7434
 8024TIP3    H145563   3.053   2.390   0.219 -0.6784 -0.3842 -0.8186
 8024TIP3    H245564   3.105   2.302   0.330  0.2494  0.1926 -0.7835
 8025TIP3   OH245565   2.319   2.397   0.367  0.1538 -0.3156 -0.3160
 8025TIP3    H145566   2.321   2.315   0.318 -0.2917  0.0901 -1.0450
 8025TIP3    H245567   2.392   2.391   0.428 -0.0732 -1.3893 -0.1329
 8026TIP3   OH245568   5.834   3.084  16.826 -0.1873 -0.0441  0.7220
 8026TIP3    H145569   5.791   3.169  16.818 -1.2091 -0.6478 -0.5738
 8026TIP3    H245570   5.766   3.026  16.859  0.2718 -0.5375  0.8088
 8027TIP3   OH245571   1.203   5.686  17.144  0.5252  0.2930  0.4276
 8027TIP3    H145572   1.228   5.769  17.185  1.4867  0.3483 -0.2536
 8027TIP3    H245573   1.111   5.674  17.169  1.0032  0.4459  2.3852
 8028TIP3   OH245574   4.909   1.116  12.831  0.3197  0.2137  0.3077
 8028TIP3    H145575   5.004   1.130  12.836  0.7663 -1.6236 -1.5754
 8028TIP3    H245576   4.892   1.101  12.738 -1.7117 -0.2756  0.7137
 8029TIP3   OH245577   6.711   1.337   0.171  0.2085 -0.3415 -0.3653
 8029TIP3    H145578   6.703   1.242   0.169  0.1048 -0.3710  0.7707
 8029TIP3    H245579   6.700   1.360   0.263  2.6259  0.5773 -0.2402
 8030TIP3   OH245580   0.309   0.393   3.164  0.4370 -0.0764  0.3226
 8030TIP3    H145581   0.248   0.465   3.151  1.0316  0.1432 -1.5058
 8030TIP3    H245582   0.392   0.435   3.187  0.6594 -0.1943 -0.2522
 8031TIP3   OH245583   3.772   2.116  13.961  0.3039  0.2587 -0.3157
 8031TIP3    H145584   3.806   2.205  13.954  2.4047 -0.4748 -0.4492
 8031TIP3    H245585   3.835   2.072  14.019 -0.0041 -1.4192 -1.1941
 8032TIP3   OH245586   2.407   3.135   2.105  0.5180  0.3391  0.7565
 8032TIP3    H145587   2.447   3.217   2.134 -0.8652  0.7169  1.7336
 8032TIP3    H245588   2.444   3.118   2.019  3.1087  0.3935  1.7872
 8033TIP3   OH245589   3.417   2.404  10.877  0.5193 -0.5286 -0.0499
 8033TIP3    H145590   3.406   2.319  10.836  0.2307 -0.0895 -0.9087
 8033TIP3    H245591   3.509   2.408  10.902  0.2543 -1.6067  1.1889
 8034TIP3   OH245592   4.980   2.914   3.569  0.0709 -0.0267  0.3655
 8034TIP3    H145593   4.959   2.918   3.476 -1.8700 -2.1074  0.6091
 8034TIP3    H245594   5.026   2.996   3.587  1.2714  0.0828 -2.5625
 8035TIP3   OH245595   0.790   6.415  13.530  0.0241 -0.5269 -0.0020
 8035TIP3    H145596   0.783   6.459  13.615  0.3120  0.6714 -0.5764
 8035TIP3    H245597   0.811   6.324  13.551  0.4800 -0.1578  1.2026
 8036TIP3   OH245598   1.491   2.367   5.484  0.6316 -0.5025 -0.4896
 8036TIP3    H145599   1.498   2.362   5.389  0.7036 -1.2244 -0.4526
 8036TIP3    H245600   1.575   2.403   5.513  1.4667 -2.2761 -0.5612
 8037TIP3   OH245601   2.067   4.013   3.568 -0.6072 -0.1398  0.2060
 8037TIP3    H145602   2.114   3.980   3.491  2.6793 -1.3030  2.4807
 8037TIP3    H245603   2.068   3.939   3.629 -1.8977  1.1672  1.8783
 8038TIP3   OH245604   3.195   2.383  13.235  0.3805  0.0759 -0.7062
 8038TIP3    H145605   3.212   2.445  13.165  0.5907 -1.3513 -1.9849
 8038TIP3    H245606   3.185   2.299  13.190  2.6204 -1.2702  1.0998
 8039TIP3   OH245607   2.415   1.531   3.522  0.1588  0.0204  0.0467
 8039TIP3    H145608   2.402   1.626   3.514  0.3717  0.3482  2.7859
 8039TIP3    H245609   2.502   1.516   3.484  0.5762  1.0891  0.5455
 8040TIP3   OH245610   2.632   5.276   3.840 -0.4461  0.0977 -0.4571
 8040TIP3    H145611   2.618   5.240   3.752 -0.6449 -2.0886  0.4050
 8040TIP3    H245612   2.545   5.275   3.880 -0.2904  0.7235 -0.0944
 8041TIP3   OH245613   2.879   3.939   0.305 -0.1706  0.2957 -0.1644
 8041TIP3    H145614   2.951   3.985   0.262 -0.6064 -0.0358 -1.2740
 8041TIP3    H245615   2.841   3.884   0.236 -0.6840 -0.4976  0.7247
 8042TIP3   OH245616   5.112   2.386   3.558 -0.6503  0.1074 -0.7398
 8042TIP3    H145617   5.018   2.377   3.576 -1.0019  3.0688 -0.6152
 8042TIP3    H245618   5.119   2.382   3.462 -0.5976 -2.0100 -0.6844
 8043TIP3   OH245619   2.463   3.472   1.397  0.6022  0.4832 -0.1703
 8043TIP3    H145620   2.407   3.416   1.343  0.9520 -0.0585  0.0197
 8043TIP3    H245621   2.423   3.558   1.392 -0.6189 -0.0201  0.4550
 8044TIP3   OH245622   6.055   4.032   4.749  0.3174 -0.0125  0.5242
 8044TIP3    H145623   6.042   4.109   4.694  2.0773 -0.4893 -0.6504
 8044TIP3    H245624   6.137   4.049   4.796 -0.1517 -0.4673  1.5611
 8045TIP3   OH245625   2.342   1.707   0.712 -0.2471 -0.2433 -0.0515
 8045TIP3    H145626   2.339   1.802   0.723  2.2485 -0.1275  0.2611
 8045TIP3    H245627   2.372   1.694   0.622  0.9035 -0.6535  0.3674
 8046TIP3   OH245628   5.624   3.629  12.856 -0.1600 -0.2636 -0.1966
 8046TIP3    H145629   5.606   3.723  12.849  3.1222  0.5577  0.2723
 8046TIP3    H245630   5.555   3.587  12.805  0.4347  2.7075 -3.9358
 8047TIP3   OH245631   3.465   3.480  13.188 -0.1837  0.6104 -0.1656
 8047TIP3    H145632   3.401   3.506  13.122  1.0000  0.6017 -1.3546
 8047TIP3    H245633   3.480   3.387  13.173 -1.0425  0.2407  1.1370
 8048TIP3   OH245634   3.067   0.732  15.517  0.1320 -0.0360  0.2958
 8048TIP3    H145635   3.050   0.677  15.440 -0.5973  1.2646 -0.5032
 8048TIP3    H245636   3.046   0.676  15.591  1.0162 -1.3834 -0.4181
 8049TIP3   OH245637   5.116   3.036   0.610  0.0699  0.5650  0.6116
 8049TIP3    H145638   5.065   2.957   0.628 -0.6582  0.7585 -0.5125
 8049TIP3    H245639   5.113   3.046   0.515  0.8277  1.5014  0.6703
 8050TIP3   OH245640   6.609   4.537  11.801 -0.2409  0.1432 -0.3053
 8050TIP3    H145641   6.518   4.538  11.771  0.1483 -0.1164 -1.5386
 8050TIP3    H245642   6.605   4.496  11.888 -1.0911 -1.4260 -1.0487
 8051TIP3   OH245643   0.841   6.731   2.726 -0.0817  0.6894 -0.1720
 8051TIP3    H145644   0.811   6.753   2.814  0.2301 -0.2840  0.1946
 8051TIP3    H245645   0.908   6.663   2.740  0.4505  0.9982 -1.1172
 8052TIP3   OH245646   6.482   6.395   4.827 -0.0408  0.1251 -0.7846
 8052TIP3    H145647   6.458   6.465   4.888  0.0620 -0.0475 -0.5401
 8052TIP3    H245648   6.442   6.420   4.744 -0.2997  0.2975 -0.6109
 8053TIP3   OH245649   4.789   5.156   0.265  0.6969  0.4519 -0.1478
 8053TIP3    H145650   4.882   5.136   0.276  1.0015  1.6447 -0.3965
 8053TIP3    H245651   4.787   5.250   0.243 -0.6337  0.7471  1.0765
 8054TIP3   OH245652   6.272   1.928   1.099  0.2870  0.4404  0.0601
 8054TIP3    H145653   6.322   1.903   1.176  0.7775  2.1581  0.3534
 8054TIP3    H245654   6.338   1.950   1.033 -0.0581  2.1127  0.2359
 8055TIP3   OH245655   0.307   4.989  14.869  0.2652 -0.2687  0.2652
 8055TIP3    H145656   0.287   4.980  14.962  0.0974 -0.7057  0.1890
 8055TIP3    H245657   0.310   4.899  14.836  1.0798 -0.1568  0.0048
 8056TIP3   OH245658   4.345   2.243   1.648  0.3720  0.2039  0.2812
 8056TIP3    H145659   4.436   2.263   1.672  0.4319 -0.9962  1.1407
 8056TIP3    H245660   4.304   2.219   1.731 -0.5283 -0.0345 -0.2288
 8057TIP3   OH245661   5.272   0.752   0.803  0.7104  0.0769 -0.0832
 8057TIP3    H145662   5.254   0.845   0.787  1.9867  0.6118  1.3464
 8057TIP3    H245663   5.186   0.714   0.822  0.3610  1.3465  1.0078
 8058TIP3   OH245664   6.687   2.378   0.541  0.5589 -0.0564 -0.4679
 8058TIP3    H145665   6.782   2.366   0.535  0.5971 -1.8531  2.1945
 8058TIP3    H245666   6.677   2.457   0.594  0.6066 -0.5986  0.3615
 8059TIP3   OH245667   4.153   3.570   2.817  0.5288  0.0246 -0.0675
 8059TIP3    H145668   4.113   3.599   2.899  0.3938  2.1365 -0.8429
 8059TIP3    H245669   4.138   3.642   2.755  0.4136 -1.5861 -2.0392
 8060TIP3   OH245670   3.982   0.796   3.640 -0.0221 -0.8417  0.0156
 8060TIP3    H145671   4.017   0.884   3.626 -1.0974 -0.0989  1.6105
 8060TIP3    H245672   4.054   0.737   3.619  1.1500  0.4742  0.2291
 8061TIP3   OH245673   0.507   3.066  13.349  0.3026 -0.3948 -0.0929
 8061TIP3    H145674   0.478   3.129  13.282  0.3459 -1.9282 -1.6177
 8061TIP3    H245675   0.441   2.996  13.345  1.2730 -1.3417  0.2274
 8062TIP3   OH245676   3.610   1.754   2.983 -0.7290 -0.5706  0.1526
 8062TIP3    H145677   3.540   1.805   3.021  0.3349  0.8881  0.2518
 8062TIP3    H245678   3.690   1.799   3.011  0.3362 -2.9878  1.2464
 8063TIP3   OH245679   3.154   4.229  15.763 -0.6277 -0.2873 -0.2004
 8063TIP3    H145680   3.186   4.181  15.839 -1.2755 -0.0053  0.2634
 8063TIP3    H245681   3.204   4.310  15.762 -0.7601 -0.2026  0.0476
 8064TIP3   OH245682   3.532   2.261  11.845 -0.0647 -0.6733  0.0796
 8064TIP3    H145683   3.546   2.349  11.809 -1.2497 -0.3475  0.3540
 8064TIP3    H245684   3.565   2.267  11.935 -0.3123 -0.4408  0.1595
 8065TIP3   OH245685   0.394   0.761  14.861  0.2531 -0.0814 -0.1287
 8065TIP3    H145686   0.342   0.682  14.867  0.8391 -0.3927  1.6274
 8065TIP3    H245687   0.360   0.817  14.931  2.0128 -0.1706  0.8636
 8066TIP3   OH245688   4.121   1.880   3.451 -0.3044 -0.6320  0.5840
 8066TIP3    H145689   4.027   1.879   3.436 -0.1511 -3.2739 -0.6771
 8066TIP3    H245690   4.131   1.885   3.546 -1.5783  2.5687  0.6650
 8067TIP3   OH245691   6.453   3.645  14.553  0.1709 -0.2390 -0.1737
 8067TIP3    H145692   6.454   3.735  14.519  0.3317 -0.1413  0.0870
 8067TIP3    H245693   6.361   3.619  14.548 -0.3268  0.8222  2.0063
 8068TIP3   OH245694   6.787   2.430  16.911  0.0365 -0.4527 -0.1534
 8068TIP3    H145695   6.849   2.496  16.941 -0.2543  0.0059 -0.5391
 8068TIP3    H245696   6.703   2.475  16.910 -0.5889 -1.4954  1.8363
 8069TIP3   OH245697   3.134   3.955   4.070 -0.1850 -0.2346 -0.0337
 8069TIP3    H145698   3.200   3.887   4.058 -0.3910 -0.6217  0.9117
 8069TIP3    H245699   3.162   4.027   4.014  0.5581 -0.7301 -0.3052
 8070TIP3   OH245700   5.168   5.550  11.668 -0.7031  0.1822  0.2338
 8070TIP3    H145701   5.091   5.606  11.656  0.6032  1.6393 -1.8685
 8070TIP3    H245702   5.243   5.608  11.654  0.7543 -1.6774 -0.0659
 8071TIP3   OH245703   5.738   1.759  12.062 -0.2307 -0.4887  0.3324
 8071TIP3    H145704   5.710   1.711  12.140 -1.4355 -1.0114 -0.3888
 8071TIP3    H245705   5.657   1.795  12.025  0.4047  0.3794 -0.2757
 8072TIP3   OH245706   2.387   2.934   4.392 -0.1262 -0.2216 -0.3211
 8072TIP3    H145707   2.461   2.873   4.393  0.0539 -0.0218  1.2454
 8072TIP3    H245708   2.388   2.974   4.479 -0.4639  1.7719 -1.1964
 8073TIP3   OH245709   5.626   3.289   2.181  0.3194 -0.0871 -0.6098
 8073TIP3    H145710   5.662   3.298   2.093 -0.6159 -0.1256 -1.0052
 8073TIP3    H245711   5.673   3.354   2.233  0.9837 -0.1684 -1.0919
 8074TIP3   OH245712   3.585   4.893   0.020  0.2379  0.1496  0.6047
 8074TIP3    H145713   3.655   4.890   0.084  0.9517  0.9416 -0.1168
 8074TIP3    H245714   3.564   4.801   0.004  2.0789 -0.1830 -0.1814
 8075TIP3   OH245715   5.267   4.440   3.970  0.5232  0.4835 -0.5240
 8075TIP3    H145716   5.210   4.502   4.015  0.1909  0.3797 -0.7967
 8075TIP3    H245717   5.207   4.383   3.922  0.6258 -1.5928  1.6151
 8076TIP3   OH245718   5.134   3.985  16.996  0.2604 -0.1372  0.0448
 8076TIP3    H145719   5.168   4.062  17.041  0.5466 -0.3688  0.2246
 8076TIP3    H245720   5.138   4.009  16.903 -0.1828  0.2777  0.1270
 8077TIP3   OH245721   2.366   0.622  11.498  0.4303  0.0098  0.2265
 8077TIP3    H145722   2.344   0.674  11.575 -0.7649  1.9149 -1.2821
 8077TIP3    H245723   2.459   0.638  11.483  0.1023  1.8471 -0.1939
 8078TIP3   OH245724   5.360   4.362   1.785 -0.0051 -0.1701 -0.7763
 8078TIP3    H145725   5.281   4.329   1.829  0.8299 -0.5410  0.4902
 8078TIP3    H245726   5.340   4.454   1.767  0.2771  0.5726  2.1231
 8079TIP3   OH245727   6.298   0.482   4.109 -0.7437 -0.1848  0.0775
 8079TIP3    H145728   6.287   0.435   4.026  0.8583 -2.8993  1.2354
 8079TIP3    H245729   6.381   0.528   4.100 -0.7871 -0.1218  0.0041
 8080TIP3   OH245730   4.940   1.098   5.414  0.1989 -0.0679 -0.0293
 8080TIP3    H145731   4.982   1.093   5.500  1.0659  2.3297 -0.2282
 8080TIP3    H245732   5.012   1.084   5.352 -0.4051 -1.6914 -0.4081
 8081TIP3   OH245733   4.376   1.874  12.053 -0.2490 -0.3238  0.1633
 8081TIP3    H145734   4.307   1.888  12.118 -0.6230 -0.5916 -0.1675
 8081TIP3    H245735   4.337   1.813  11.990  0.5802 -1.1238  0.4103
 8082TIP3   OH245736   4.872   5.002  15.581  0.7440  0.3592 -0.7416
 8082TIP3    H145737   4.807   4.959  15.635  0.9549  0.3822 -0.4699
 8082TIP3    H245738   4.865   4.958  15.496  0.4502  0.2903 -0.6828
 8083TIP3   OH245739   1.482   1.279  16.183 -0.4065 -0.1264 -0.9688
 8083TIP3    H145740   1.528   1.213  16.234  1.3565  1.6098 -0.1515
 8083TIP3    H245741   1.392   1.247  16.177  0.1759 -2.1469  0.0962
 8084TIP3   OH245742   6.056   0.674  12.559 -0.2494  0.3636 -0.5591
 8084TIP3    H145743   5.990   0.661  12.627  0.1741 -3.4418 -0.6723
 8084TIP3    H245744   6.139   0.673  12.606 -0.0287 -0.9559 -0.9247
 8085TIP3   OH245745   2.281   4.972   1.294 -0.0306  0.2179  0.0182
 8085TIP3    H145746   2.337   4.965   1.371  2.9147  0.5680 -1.9619
 8085TIP3    H245747   2.314   4.905   1.234 -0.7757  1.4270 -1.8236
 8086TIP3   OH245748   0.662   1.481  13.821 -0.1308 -0.5287  0.4578
 8086TIP3    H145749   0.589   1.510  13.765  0.2712 -1.3415 -0.5221
 8086TIP3    H245750   0.704   1.562  13.848 -1.4626 -0.0286  1.1632
 8087TIP3   OH245751   1.445   4.909   4.817  0.0664 -0.2964  0.1574
 8087TIP3    H145752   1.495   4.977   4.862 -0.3131  0.5804 -0.7089
 8087TIP3    H245753   1.507   4.837   4.804  1.4994  1.1891 -1.9017
 8088TIP3   OH245754   3.484   6.035  12.642 -0.0217  0.6158 -0.0983
 8088TIP3    H145755   3.427   5.990  12.705  0.6902  0.5096  0.4862
 8088TIP3    H245756   3.525   5.965  12.591  0.7745  0.6055  0.5377
 8089TIP3   OH245757   3.615   2.490  13.619 -0.8295  0.4034 -0.1277
 8089TIP3    H145758   3.524   2.462  13.605 -0.6898  0.5536 -1.4714
 8089TIP3    H245759   3.664   2.448  13.549 -0.0589  1.2844 -0.1363
 8090TIP3   OH245760   0.784   0.156   0.563 -0.3082  0.5387  0.0465
 8090TIP3    H145761   0.872   0.135   0.532  0.1441 -0.5952  1.9404
 8090TIP3    H245762   0.727   0.129   0.492  0.7710 -0.3909 -0.5000
 8091TIP3   OH245763   6.328   0.991   6.391  0.0567  0.0868  0.1282
 8091TIP3    H145764   6.270   0.983   6.466  0.3300 -0.2931  0.3036
 8091TIP3    H245765   6.276   1.039   6.326 -1.2702 -2.0568 -0.5152
 8092TIP3   OH245766   4.329   5.712   4.500 -0.5267 -0.2649 -0.1147
 8092TIP3    H145767   4.321   5.803   4.530 -1.4930 -0.3767  0.0072
 8092TIP3    H245768   4.402   5.676   4.551 -1.3713 -0.1073  1.2689
 8093TIP3   OH245769   4.789   2.671   0.004  0.8692 -0.2638  0.2088
 8093TIP3    H145770   4.774   2.600   0.066  0.3612  0.0313  0.4294
 8093TIP3    H245771   4.851   2.636  -0.059  0.7336 -0.8497  0.4027
 8094TIP3   OH245772   1.931   2.632   5.907 -0.1765  0.1030 -0.1751
 8094TIP3    H145773   1.867   2.600   5.970 -0.5185 -0.4017 -0.7602
 8094TIP3    H245774   2.011   2.582   5.926  0.0776  0.7850  0.6032
 8095TIP3   OH245775   2.507   2.769   4.787 -0.7826  0.0655 -0.1750
 8095TIP3    H145776   2.598   2.739   4.776 -0.6619  0.7984 -1.3969
 8095TIP3    H245777   2.482   2.740   4.875 -0.2074 -2.3687 -0.7315
 8096TIP3   OH245778   1.670   1.929  14.587 -0.0142  0.5481 -0.3532
 8096TIP3    H145779   1.693   1.886  14.670 -0.3540 -1.4559 -1.2208
 8096TIP3    H245780   1.717   2.012  14.590 -0.3524  0.7350  2.0137
 8097TIP3   OH245781   2.967   3.258  13.371 -0.1361 -0.2916 -0.0083
 8097TIP3    H145782   2.900   3.254  13.440 -0.8820  1.9539 -0.5290
 8097TIP3    H245783   3.046   3.224  13.413 -0.3362  1.7859  2.3060
 8098TIP3   OH245784   5.927   3.147   3.616  0.1070  0.2263 -0.5987
 8098TIP3    H145785   6.016   3.150   3.651  0.7538 -0.5282 -2.0847
 8098TIP3    H245786   5.873   3.125   3.691  1.5121 -2.0223 -0.1480
 8099TIP3   OH245787   5.761   5.461   4.400 -0.0676  0.5490  0.5700
 8099TIP3    H145788   5.819   5.387   4.420 -0.7424 -1.2439 -3.1577
 8099TIP3    H245789   5.802   5.536   4.443  1.5603 -1.6331  3.2066
 8100TIP3   OH245790   1.005   1.654  16.952  0.5424  0.5497  0.2015
 8100TIP3    H145791   0.932   1.704  16.917  0.9097  0.6568 -0.4115
 8100TIP3    H245792   1.076   1.717  16.961  1.1924  0.0362 -1.1360
 8101TIP3   OH245793   4.737   6.325   3.807 -0.3689 -0.0528  0.6458
 8101TIP3    H145794   4.725   6.364   3.894 -0.3047 -0.8679  1.0217
 8101TIP3    H245795   4.831   6.332   3.791 -0.4507  0.5926  0.3984
 8102TIP3   OH245796   4.539   3.821   4.005 -0.6535 -0.4345 -0.3276
 8102TIP3    H145797   4.477   3.800   4.075  0.1807 -2.1196 -0.0364
 8102TIP3    H245798   4.574   3.736   3.977  1.0668  0.3957 -0.8803
 8103TIP3   OH245799   2.125   2.168  14.154  0.7796 -0.3631  0.4088
 8103TIP3    H145800   2.140   2.239  14.215 -0.2204 -0.8455  1.2363
 8103TIP3    H245801   2.034   2.141  14.169 -0.2378  0.8670 -2.7095
 8104TIP3   OH245802   6.422   0.566   1.660  0.2525  0.2918  0.1159
 8104TIP3    H145803   6.461   0.553   1.573 -1.2752  1.0755 -0.7195
 8104TIP3    H245804   6.417   0.661   1.670  0.6386  0.2100  1.1904
 8105TIP3   OH245805   2.842   3.155  16.495 -0.1388 -0.3067  0.9225
 8105TIP3    H145806   2.791   3.191  16.423  0.8687 -0.9132 -0.1371
 8105TIP3    H245807   2.873   3.070  16.462  1.6697  0.1072  1.4510
 8106TIP3   OH245808   6.620   0.993   6.530  0.0240 -0.3687  0.0930
 8106TIP3    H145809   6.565   1.046   6.472  2.7124 -0.4254 -2.7367
 8106TIP3    H245810   6.669   1.057   6.583  0.7171 -0.1266 -0.8268
 8107TIP3   OH245811   4.392   1.231   2.989  0.0824 -0.5581  0.7307
 8107TIP3    H145812   4.376   1.170   2.917  1.8564 -0.3366  0.0827
 8107TIP3    H245813   4.380   1.318   2.950  2.3779 -0.3856  0.2480
 8108TIP3   OH245814   0.681   4.536  16.368 -0.0008 -0.2762  0.3351
 8108TIP3    H145815   0.627   4.486  16.306 -1.0000  0.6735  0.4134
 8108TIP3    H245816   0.732   4.469  16.413 -0.9471 -1.1993  0.0916
 8109TIP3   OH245817   4.885   2.985  12.768  0.1610  0.5253  0.1426
 8109TIP3    H145818   4.908   2.922  12.836 -0.7662 -0.9187 -0.8135
 8109TIP3    H245819   4.861   3.064  12.815  1.0626  0.0730  1.4048
 8110TIP3   OH245820   6.626   2.986  12.794 -0.2852 -0.2811  0.0123
 8110TIP3    H145821   6.603   3.031  12.875 -0.2869 -1.4321  0.6665
 8110TIP3    H245822   6.690   2.921  12.820 -0.0377 -0.4459 -0.9722
 8111TIP3   OH245823   1.968   1.557  14.957  0.2744 -0.2209  0.1795
 8111TIP3    H145824   2.052   1.588  14.922  0.9012 -0.8828  1.0353
 8111TIP3    H245825   1.951   1.616  15.031  0.4207 -0.6117  0.5278
 8112TIP3   OH245826   0.688   4.440  10.892 -0.6060  1.0644  0.0389
 8112TIP3    H145827   0.593   4.436  10.901 -0.4275  1.4101  4.1097
 8112TIP3    H245828   0.712   4.524  10.932  1.4998  0.0178  1.1304
 8113TIP3   OH245829   1.894   0.036  10.345 -0.7271  0.4684 -0.1276
 8113TIP3    H145830   1.837   0.105  10.311  0.2574  0.9332 -0.8718
 8113TIP3    H245831   1.960   0.082  10.397 -0.8915 -0.0489  0.5589
 8114TIP3   OH245832   5.369   2.444   3.097  0.2033 -0.4867  0.1676
 8114TIP3    H145833   5.286   2.474   3.059 -0.5978 -0.4608  1.8206
 8114TIP3    H245834   5.395   2.369   3.044  0.6546  1.1895 -2.1654
 8115TIP3   OH245835   5.113   4.718  17.094  0.6125 -1.0137 -0.2903
 8115TIP3    H145836   5.089   4.810  17.103  2.5700 -0.5848  1.7991
 8115TIP3    H245837   5.134   4.707  17.002  0.1093  0.5849 -0.6210
 8116TIP3   OH245838   0.201   5.928  13.149  0.2584 -0.3426 -0.4802
 8116TIP3    H145839   0.121   5.941  13.202 -1.2079 -0.4696 -2.5572
 8116TIP3    H245840   0.234   6.016  13.134 -0.2873 -0.1744 -0.7403
 8117TIP3   OH245841   5.118   4.879  15.329  0.9243 -0.0108  0.4117
 8117TIP3    H145842   5.177   4.832  15.270 -0.4137 -0.9393 -0.2264
 8117TIP3    H245843   5.148   4.970  15.324  1.8030 -0.3249 -0.5079
 8118TIP3   OH245844   2.640   3.868  10.818  0.1158  0.3191  0.4950
 8118TIP3    H145845   2.553   3.828  10.811 -0.1588  1.1104 -1.2157
 8118TIP3    H245846   2.689   3.808  10.874 -2.6773  1.9631  5.2695
 8119TIP3   OH245847   2.547   5.288   1.871 -0.6086  0.4943  0.2472
 8119TIP3    H145848   2.471   5.276   1.815 -1.5331  0.4995  1.4704
 8119TIP3    H245849   2.545   5.215   1.932  1.2368 -0.3575 -0.6076
 8120TIP3   OH245850   6.199   1.944  16.983 -0.5652  0.0956  0.3688
 8120TIP3    H145851   6.213   1.896  16.901  1.3215  0.4182  0.4510
 8120TIP3    H245852   6.118   1.993  16.968 -0.4353 -0.0996 -1.1892
 8121TIP3   OH245853   6.353   6.696  16.712 -0.6303  0.8394 -0.2527
 8121TIP3    H145854   6.381   6.722  16.799  2.3191  0.2714 -0.9152
 8121TIP3    H245855   6.390   6.608  16.700 -3.2652 -0.2359 -1.1264
 8122TIP3   OH245856   1.574   0.116  10.040  0.3257 -0.1308  0.7096
 8122TIP3    H145857   1.599   0.142  10.128  2.2794 -1.9896  0.7741
 8122TIP3    H245858   1.607   0.027  10.030 -1.7767 -0.8114 -1.1519
 8123TIP3   OH245859   4.606   3.113   0.070  0.4023  0.2077  0.1372
 8123TIP3    H145860   4.528   3.106   0.126  0.7571 -0.3829  0.5758
 8123TIP3    H245861   4.629   3.205   0.072 -0.9904  0.6150 -0.9789
 8124TIP3   OH245862   3.282   3.568  15.759 -0.4409  0.7634 -0.0705
 8124TIP3    H145863   3.265   3.511  15.684  0.9327  2.2640 -1.6268
 8124TIP3    H245864   3.359   3.529  15.802  0.1690  1.1094 -0.8177
 8125TIP3   OH245865   3.035   6.440   5.537 -0.1273  0.1671 -0.4764
 8125TIP3    H145866   3.120   6.398   5.552 -1.0306 -1.1442  1.4714
 8125TIP3    H245867   3.036   6.516   5.594  0.0524  0.6611 -1.1262
 8126TIP3   OH245868   2.116   0.427  12.593  0.4462 -0.3615 -0.4716
 8126TIP3    H145869   2.092   0.334  12.597 -3.3191  0.4657  0.7581
 8126TIP3    H245870   2.157   0.445  12.677  0.2686 -0.6998 -0.3108
 8127TIP3   OH245871   5.473   2.127   4.883  0.6556  0.1711 -0.3937
 8127TIP3    H145872   5.556   2.155   4.922 -0.2680  0.9842  1.0617
 8127TIP3    H245873   5.453   2.193   4.817  0.4188  0.8263  0.3232
 8128TIP3   OH245874   4.897   3.858   1.691 -0.1003  0.1249  0.2965
 8128TIP3    H145875   4.963   3.849   1.623 -0.9416 -1.5878 -0.3321
 8128TIP3    H245876   4.814   3.839   1.648 -1.0484  2.1578  1.0906
 8129TIP3   OH245877   4.302   1.064   2.787 -0.0442  0.0809 -0.3464
 8129TIP3    H145878   4.218   1.019   2.804 -0.8684  1.5493 -0.3784
 8129TIP3    H245879   4.317   1.051   2.694 -0.3255 -0.0334 -0.3773
 8130TIP3   OH245880   1.268   4.888   3.216  0.2632 -0.0716 -0.3367
 8130TIP3    H145881   1.248   4.981   3.232 -2.6201 -0.8270  1.0884
 8130TIP3    H245882   1.331   4.865   3.284  1.7127  0.9775 -1.2485
 8131TIP3   OH245883   5.170   3.615  13.667  0.4253 -0.0759  0.0347
 8131TIP3    H145884   5.163   3.654  13.754  0.7377  0.5194 -0.1992
 8131TIP3    H245885   5.263   3.618  13.646  0.1793  1.4634 -1.0533
 8132TIP3   OH245886   2.893   1.009  17.017 -0.4263 -0.3192  0.6156
 8132TIP3    H145887   2.828   0.965  17.071 -0.4207  1.2849  2.0223
 8132TIP3    H245888   2.971   1.012  17.073 -0.5757  1.8314  0.7812
 8133TIP3   OH245889   1.208   3.602   3.436 -0.1112  0.0859 -0.3610
 8133TIP3    H145890   1.250   3.542   3.374  2.3643 -0.3861  1.6089
 8133TIP3    H245891   1.158   3.545   3.494 -0.3181  0.2619 -0.3657
 8134TIP3   OH245892   5.854   5.606   5.277  0.3336 -0.6045  0.4580
 8134TIP3    H145893   5.852   5.514   5.252 -2.1887 -0.3945 -0.3951
 8134TIP3    H245894   5.872   5.653   5.195 -1.3803 -0.2425  0.2484
 8135TIP3   OH245895   3.907   4.880   2.343  0.1992  0.3350 -0.7325
 8135TIP3    H145896   3.978   4.816   2.346  0.0431  0.1652 -0.5531
 8135TIP3    H245897   3.864   4.871   2.428  0.2380  0.7527 -0.6649
 8136TIP3   OH245898   5.458   3.519   6.637 -0.4812  0.5923  0.3586
 8136TIP3    H145899   5.416   3.600   6.666  0.1599  0.4239  1.8448
 8136TIP3    H245900   5.449   3.460   6.711  0.3815 -0.1959 -0.1482
 8137TIP3   OH245901   1.790   6.081  15.454 -0.1981  0.1847 -0.1972
 8137TIP3    H145902   1.706   6.110  15.418 -1.5722 -1.0598  1.8233
 8137TIP3    H245903   1.798   5.990  15.426  0.2885  0.1908 -0.0816
 8138TIP3   OH245904   2.624   1.889  14.986  0.5040 -0.1636  0.0051
 8138TIP3    H145905   2.697   1.831  14.965  1.5348  1.1527 -0.2423
 8138TIP3    H245906   2.561   1.834  15.032  1.0826 -1.6338 -0.8923
 8139TIP3   OH245907   3.097   6.589  11.628  0.0960 -0.2573 -0.5266
 8139TIP3    H145908   3.182   6.550  11.607  0.6397  0.8874 -0.5364
 8139TIP3    H245909   3.109   6.682  11.611 -0.6028  0.1981  1.2572
 8140TIP3   OH245910   6.612   5.253   3.124  0.9680  0.2180  0.4505
 8140TIP3    H145911   6.602   5.221   3.034 -1.6452  2.1400 -0.0744
 8140TIP3    H245912   6.666   5.332   3.116 -1.0776  1.6630  0.1395
 8141TIP3   OH245913   6.030   0.186   1.777 -0.1606 -0.4650 -0.5763
 8141TIP3    H145914   6.099   0.154   1.835 -0.5191 -1.3056 -0.5886
 8141TIP3    H245915   6.076   0.214   1.697  0.3891  1.2112  0.2939
 8142TIP3   OH245916   3.385   3.822   3.942 -0.6090  0.3294  0.4682
 8142TIP3    H145917   3.426   3.789   4.023 -0.2434  0.6767  0.4299
 8142TIP3    H245918   3.442   3.894   3.915 -0.3637 -0.2028 -0.4560
 8143TIP3   OH245919   2.289   1.683   3.801 -0.0452  0.1947 -0.0765
 8143TIP3    H145920   2.276   1.733   3.882  1.1580  0.1999  0.1278
 8143TIP3    H245921   2.297   1.749   3.732  0.7828  0.2656  0.0814
 8144TIP3   OH245922   0.858   1.341   4.723 -0.2811  0.5560  0.4737
 8144TIP3    H145923   0.857   1.431   4.691 -1.0076  0.5598  0.4886
 8144TIP3    H245924   0.939   1.334   4.773 -0.8532  1.6154  1.6133
 8145TIP3   OH245925   2.728   3.943  16.983 -0.1939 -0.1050  0.0485
 8145TIP3    H145926   2.767   4.023  17.017  1.1351 -0.4417 -0.5697
 8145TIP3    H245927   2.777   3.926  16.902 -0.3561 -1.5938  0.2370
 8146TIP3   OH245928   4.338   2.999  11.469 -0.5507 -0.0787  0.0891
 8146TIP3    H145929   4.425   2.980  11.505 -0.2091 -0.6509 -0.9899
 8146TIP3    H245930   4.354   3.014  11.376 -1.1244  3.3279  0.4153
 8147TIP3   OH245931   5.685   4.743  10.153 -0.5508  0.1786 -0.1568
 8147TIP3    H145932   5.735   4.694  10.087  0.2213  2.4945 -1.3798
 8147TIP3    H245933   5.748   4.763  10.222  0.4519  3.2823 -1.7963
 8148TIP3   OH245934   3.238   0.307  14.881  0.0881 -0.0155 -0.0433
 8148TIP3    H145935   3.193   0.334  14.802  1.1138  3.2131  0.3271
 8148TIP3    H245936   3.325   0.348  14.874  0.2980  0.1584  2.5783
 8149TIP3   OH245937   2.592   2.657  16.217  0.0525  0.4651  0.7146
 8149TIP3    H145938   2.637   2.576  16.241 -0.3243 -0.1873 -0.6524
 8149TIP3    H245939   2.502   2.643  16.245 -0.0690  0.2970  0.2484
 8150TIP3   OH245940   4.394   6.346   1.945 -0.6722  0.2814 -0.0846
 8150TIP3    H145941   4.428   6.402   2.014 -1.1668  0.0054  0.3892
 8150TIP3    H245942   4.462   6.280   1.932 -1.3738 -0.8404  1.5247
 8151TIP3   OH245943   4.293   6.292   4.535 -0.5513 -0.6388  0.5410
 8151TIP3    H145944   4.319   6.381   4.511 -4.0045  0.2644 -0.4759
 8151TIP3    H245945   4.343   6.235   4.476  1.2031  0.6314  0.7416
 8152TIP3   OH245946   6.175   2.529  14.708 -0.1467  0.7246 -0.5857
 8152TIP3    H145947   6.089   2.565  14.729  0.6427  1.4360  1.8103
 8152TIP3    H245948   6.158   2.461  14.643 -2.7643 -0.3522  1.0795
 8153TIP3   OH245949   5.374   5.105   0.613  0.0065  0.1502  0.5435
 8153TIP3    H145950   5.364   5.170   0.544  0.4388 -1.1453 -0.7814
 8153TIP3    H245951   5.468   5.103   0.632  0.1467 -0.8030 -0.1714
 8154TIP3   OH245952   0.667   1.760   3.685  0.0411 -0.2767 -0.0165
 8154TIP3    H145953   0.715   1.689   3.643  0.4015  0.3292 -0.6439
 8154TIP3    H245954   0.637   1.723   3.768  1.4703 -0.7117  0.3331
 8155TIP3   OH245955   0.509   2.072   2.157  0.1926  0.5511  0.3142
 8155TIP3    H145956   0.518   2.056   2.251  1.0516  0.2381  0.1903
 8155TIP3    H245957   0.415   2.072   2.142  0.0322  0.9486  1.2323
 8156TIP3   OH245958   3.706   4.968  10.827  0.5600  0.3275 -0.7118
 8156TIP3    H145959   3.735   4.900  10.887  0.8341  1.2464  0.2182
 8156TIP3    H245960   3.610   4.962  10.828  0.6025 -0.8140 -1.5681
 8157TIP3   OH245961   6.795   5.962   3.759 -0.2472  0.3993 -0.2645
 8157TIP3    H145962   6.813   6.011   3.840  0.7864 -0.5376  0.1008
 8157TIP3    H245963   6.769   5.875   3.790 -0.0911  0.1118 -0.9336
 8158TIP3   OH245964   4.113   5.123  10.160  0.1890  0.0777 -0.0860
 8158TIP3    H145965   4.065   5.108  10.079  2.5192  0.2097 -1.5810
 8158TIP3    H245966   4.125   5.218  10.164  1.8927 -0.0821 -0.7430
 8159TIP3   OH245967   2.258   3.779   3.654 -0.2270  0.4426  0.0688
 8159TIP3    H145968   2.338   3.827   3.674 -0.8051  1.4942 -0.0683
 8159TIP3    H245969   2.209   3.778   3.737 -1.1916  2.0215 -0.4438
 8160TIP3   OH245970   0.914   5.458   1.275 -1.2994 -0.2810 -0.0873
 8160TIP3    H145971   0.964   5.457   1.357 -0.2438 -0.4418 -0.7206
 8160TIP3    H245972   0.979   5.438   1.207 -1.7780  1.6500 -1.1827
 8161TIP3   OH245973   6.622   0.909  10.707  0.2783  0.2294 -0.2629
 8161TIP3    H145974   6.605   0.836  10.766  2.2029 -0.6564 -0.7333
 8161TIP3    H245975   6.585   0.883  10.623  2.1742 -0.9076 -0.8126
 8162TIP3   OH245976   1.453   4.263  12.975  1.1030  0.4240  0.4664
 8162TIP3    H145977   1.381   4.253  12.912  0.8877 -1.2851  0.9562
 8162TIP3    H245978   1.412   4.298  13.054  1.0426  0.6753  0.3259
 8163TIP3   OH245979   0.867   5.412   4.084 -0.0384  0.0917  0.0262
 8163TIP3    H145980   0.953   5.371   4.082 -0.3126 -0.6500  1.6734
 8163TIP3    H245981   0.815   5.363   4.022  0.0096 -1.2509  1.0025
 8164TIP3   OH245982   0.099   2.847  16.279 -0.2565  0.2619 -0.1606
 8164TIP3    H145983   0.091   2.904  16.355  0.0650  0.3543 -0.1944
 8164TIP3    H245984   0.066   2.900  16.206 -0.4516  0.2156 -0.1083
 8165TIP3   OH245985   5.981   1.740   5.134 -0.0734  0.2848  0.4028
 8165TIP3    H145986   5.906   1.785   5.094  0.6412  0.1467 -1.1658
 8165TIP3    H245987   5.998   1.666   5.077  1.3765  0.4100  0.6324
 8166TIP3   OH245988   1.987   2.151   4.143  0.0448  0.6280  0.3351
 8166TIP3    H145989   1.988   2.243   4.171 -1.9427  0.1830  2.1626
 8166TIP3    H245990   1.911   2.145   4.085  0.2943  0.1701  0.0495
 8167TIP3   OH245991   4.886   3.975   4.116 -0.1921  0.2573  0.0263
 8167TIP3    H145992   4.799   3.958   4.153  1.0852 -0.9904  2.7310
 8167TIP3    H245993   4.923   4.042   4.173  0.9268  0.1792 -0.5883
 8168TIP3   OH245994   4.164   2.851  14.102 -0.6002  0.1029 -0.2064
 8168TIP3    H145995   4.131   2.932  14.141  0.6639  0.6321 -0.1996
 8168TIP3    H245996   4.160   2.866  14.008 -2.6741 -0.7861 -0.3187
 8169TIP3   OH245997   3.954   3.700  11.801  0.0247 -0.3318  0.3975
 8169TIP3    H145998   4.013   3.628  11.824  1.0766  0.1826 -0.5822
 8169TIP3    H245999   3.893   3.661  11.737  1.0137 -0.2108 -0.6457
 8170TIP3   OH246000   0.203   0.733  11.826 -0.4678  0.2289 -0.0184
 8170TIP3    H146001   0.187   0.642  11.849  1.5579  0.0893  1.0915
 8170TIP3    H246002   0.279   0.758  11.878 -0.8368  2.5084 -0.4467
 8171TIP3   OH246003   2.457   0.324  13.583 -0.2712 -0.0991 -0.0598
 8171TIP3    H146004   2.476   0.246  13.531 -1.4067 -0.0569 -0.5615
 8171TIP3    H246005   2.540   0.373  13.584  0.2472 -0.9441 -0.3471
 8172TIP3   OH246006   3.779   6.783   4.288 -0.1802 -0.2258  0.1360
 8172TIP3    H146007   3.793   6.697   4.329  1.1498  0.2324  0.7071
 8172TIP3    H246008   3.685   6.798   4.297 -0.4003 -1.5242  0.2265
 8173TIP3   OH246009   5.259   4.483   3.456  0.3756  0.4464 -0.2505
 8173TIP3    H146010   5.232   4.508   3.368 -1.7199 -0.3823  0.1178
 8173TIP3    H246011   5.273   4.567   3.501  1.0098  0.8745 -1.2036
 8174TIP3   OH246012   1.629   6.804   5.906 -0.0873 -0.5489 -0.5476
 8174TIP3    H146013   1.603   6.872   5.968 -0.8330 -0.9169 -0.4511
 8174TIP3    H246014   1.573   6.819   5.830 -2.5720 -2.9568  0.6477
 8175TIP3   OH246015   1.789   1.283  11.185  0.2956 -0.1488  0.2597
 8175TIP3    H146016   1.811   1.218  11.252 -0.9811 -2.1120 -1.1131
 8175TIP3    H246017   1.696   1.303  11.201  0.0481 -0.4551 -0.7456
 8176TIP3   OH246018   2.052   1.170  13.321 -0.5531 -0.4228 -0.5105
 8176TIP3    H146019   1.973   1.166  13.374 -0.3501  1.1152 -0.0301
 8176TIP3    H246020   2.110   1.230  13.368  0.8089 -1.2938 -0.9840
 8177TIP3   OH246021   3.256   0.719  15.188 -0.1993  0.4258 -0.7921
 8177TIP3    H146022   3.173   0.762  15.208 -1.0865 -1.9323  1.1594
 8177TIP3    H246023   3.240   0.669  15.108 -0.0083  1.5037 -1.5205
 8178TIP3   OH246024   0.702   6.706  14.146  0.2453 -0.1625 -0.0508
 8178TIP3    H146025   0.749   6.785  14.116  0.8812 -0.9676 -1.2836
 8178TIP3    H246026   0.647   6.682  14.072  1.5507 -1.9906 -0.5106
 8179TIP3   OH246027   0.976   0.515  10.868 -0.1248 -0.2692 -0.0477
 8179TIP3    H146028   0.949   0.425  10.849 -0.7561 -0.0494 -0.2277
 8179TIP3    H246029   0.988   0.555  10.781  1.4740 -0.5566  0.0227
 8180TIP3   OH246030   6.194   4.484  15.158  0.5044 -0.4545  0.0237
 8180TIP3    H146031   6.184   4.579  15.148 -0.5670 -0.2789  2.2068
 8180TIP3    H246032   6.161   4.448  15.076 -1.6083  0.9846  0.1551
 8181TIP3   OH246033   3.734   4.987  11.421  0.2527  0.0939 -0.0189
 8181TIP3    H146034   3.716   5.079  11.442 -1.4168 -0.0591 -0.6314
 8181TIP3    H246035   3.808   4.990  11.360  0.7995  0.9520  0.6564
 8182TIP3   OH246036   3.072   0.098   5.826  0.0179  0.1556  0.8563
 8182TIP3    H146037   3.136   0.141   5.769 -1.1078 -0.8637 -1.2939
 8182TIP3    H246038   3.103   0.008   5.834 -1.0954 -0.3583 -0.2375
 8183TIP3   OH246039   3.645   1.216   2.103 -0.5039 -0.4101 -0.4174
 8183TIP3    H146040   3.641   1.201   2.197 -1.0866 -1.0348 -0.5350
 8183TIP3    H246041   3.608   1.136   2.064 -1.8444  0.5111 -1.1223
 8184TIP3   OH246042   1.826   3.381   1.217  0.1936 -0.1431  0.0360
 8184TIP3    H146043   1.749   3.431   1.245  0.2252  0.5215 -0.9838
 8184TIP3    H246044   1.837   3.314   1.284 -0.4756  0.5785  0.9054
 8185TIP3   OH246045   0.722   1.467   3.853  0.5408  0.2550 -0.0455
 8185TIP3    H146046   0.698   1.439   3.941  1.5097  2.3613  0.9462
 8185TIP3    H246047   0.793   1.529   3.865 -0.8923  2.4886 -2.0986
 8186TIP3   OH246048   4.101   6.781   1.643  0.0158  0.2564  0.2409
 8186TIP3    H146049   4.075   6.692   1.667  0.0872  0.8340  2.6942
 8186TIP3    H246050   4.125   6.774   1.550 -1.5993 -1.8913 -0.1084
 8187TIP3   OH246051   6.439   4.552  14.619  0.2886 -0.3769 -0.1595
 8187TIP3    H146052   6.442   4.623  14.554 -0.8785  0.6855  0.8959
 8187TIP3    H246053   6.507   4.492  14.591  1.5114  1.2867 -0.9549
 8188TIP3   OH246054   0.060   3.437   1.721  0.3434  0.2404 -0.3856
 8188TIP3    H146055   0.092   3.492   1.792  0.6752 -0.0098 -0.3419
 8188TIP3    H246056   0.033   3.499   1.653 -1.0510  0.5311  0.3944
 8189TIP3   OH246057   5.743   6.078   3.966  0.1118 -0.1903 -0.5030
 8189TIP3    H146058   5.707   6.145   4.023 -1.2729 -2.3591  1.3393
 8189TIP3    H246059   5.674   6.059   3.903 -0.1471 -0.9807  0.0031
 8190TIP3   OH246060   2.605   1.539   4.255  0.4153 -0.3377 -0.0925
 8190TIP3    H146061   2.682   1.541   4.312 -0.3077 -1.0195  0.9538
 8190TIP3    H246062   2.629   1.479   4.184  0.9259 -0.3861  0.1173
 8191TIP3   OH246063   3.090   1.525  14.683 -0.3882 -0.0677  0.3204
 8191TIP3    H146064   3.024   1.463  14.714  0.5843 -0.6116  1.3393
 8191TIP3    H246065   3.147   1.540  14.758  1.2933 -0.4454 -0.8237
 8192TIP3   OH246066   0.536   0.617   5.744 -0.1591  0.4215  0.2997
 8192TIP3    H146067   0.616   0.579   5.780  0.9990 -0.0534 -2.5313
 8192TIP3    H246068   0.471   0.606   5.814  1.7391 -0.9236  1.9754
 8193TIP3   OH246069   5.845   4.721  14.764  0.1036  0.6571  0.5140
 8193TIP3    H146070   5.783   4.744  14.695 -0.0931 -1.4687 -0.0949
 8193TIP3    H246071   5.923   4.691  14.717  0.5006  0.5537  1.2330
 8194TIP3   OH246072   1.240   4.109   2.194  0.0750 -0.1132 -0.1466
 8194TIP3    H146073   1.251   4.049   2.120 -0.9243  0.4454 -0.7702
 8194TIP3    H246074   1.151   4.143   2.184 -0.9281 -1.6519  2.5243
 8195TIP3   OH246075   4.816   6.037  17.051 -1.1607  0.2402  0.0622
 8195TIP3    H146076   4.772   6.121  17.046 -1.1563  0.1637 -1.8185
 8195TIP3    H246077   4.802   5.996  16.966  3.6588  0.8230 -1.3494
 8196TIP3   OH246078   0.728   1.999  11.663 -0.0336  0.6754 -0.1010
 8196TIP3    H146079   0.810   2.047  11.675 -0.6141  2.0439 -1.3089
 8196TIP3    H246080   0.660   2.065  11.676 -0.9147 -0.2144 -0.1158
 8197TIP3   OH246081   5.084   6.820  12.786  0.6044  0.1189 -0.1665
 8197TIP3    H146082   5.000   6.866  12.781  1.3333  1.4849 -0.4424
 8197TIP3    H246083   5.105   6.819  12.879  0.4929  0.1887 -0.1400
 8198TIP3   OH246084   3.116   4.431  14.653  0.6017  0.1330  0.4622
 8198TIP3    H146085   3.182   4.427  14.584 -0.6674 -0.2119 -0.7682
 8198TIP3    H246086   3.084   4.521  14.650 -1.8703 -0.7044 -1.8108
 8199TIP3   OH246087   2.409   1.267   6.031  0.2702  0.3660 -0.4515
 8199TIP3    H146088   2.484   1.326   6.039  0.3439  0.2839 -0.5247
 8199TIP3    H246089   2.354   1.307   5.963 -2.1462  2.9779  2.7098
 8200TIP3   OH246090   0.983   2.857  12.644 -0.3884 -0.1395  0.1150
 8200TIP3    H146091   0.945   2.923  12.585  1.1600  0.7591  0.0521
 8200TIP3    H246092   1.060   2.825  12.597 -0.0307 -0.5723  0.9799
 8201TIP3   OH246093   6.406   2.339   5.705  0.0752 -0.1300 -0.4150
 8201TIP3    H146094   6.453   2.421   5.716 -1.9644  1.0627 -0.0533
 8201TIP3    H246095   6.418   2.316   5.613 -0.0901  1.0725 -0.7457
 8202TIP3   OH246096   2.097   6.627  15.386 -0.2357  0.5660 -0.4610
 8202TIP3    H146097   2.046   6.615  15.466  1.0315  0.1802  0.3186
 8202TIP3    H246098   2.058   6.704  15.344 -1.1742  0.5270  0.3123
 8203TIP3   OH246099   6.414   0.357   6.437 -0.1242  0.0110 -0.7243
 8203TIP3    H146100   6.364   0.436   6.420  0.1079  0.0012 -1.5059
 8203TIP3    H246101   6.412   0.308   6.354  0.7096 -0.2431 -0.6103
 8204TIP3   OH246102   4.526   5.658   5.777 -0.6601 -0.1068  0.0408
 8204TIP3    H146103   4.479   5.590   5.826  2.2813  0.0150  3.5033
 8204TIP3    H246104   4.617   5.630   5.781  0.4432  3.1151  0.0641
 8205TIP3   OH246105   5.676   4.144  12.677  0.1860  0.1481  0.2289
 8205TIP3    H146106   5.626   4.176  12.752 -0.2757 -1.1058  0.4911
 8205TIP3    H246107   5.611   4.137  12.607  0.7151  1.7925 -0.4688
 8206TIP3   OH246108   3.277   0.172  10.586  0.1222 -0.2662  0.4639
 8206TIP3    H146109   3.286   0.221  10.668  0.8543  1.0715 -0.3794
 8206TIP3    H246110   3.344   0.208  10.528 -0.4618 -1.0853 -0.7841
 8207TIP3   OH246111   4.829   3.782   6.695  0.0439  0.1065 -0.4569
 8207TIP3    H146112   4.816   3.867   6.654 -0.4965 -0.7248 -2.1027
 8207TIP3    H246113   4.767   3.724   6.651 -0.1697 -0.9826  1.1843
 8208TIP3   OH246114   4.971   6.475  10.970 -0.0209  0.2801 -0.3263
 8208TIP3    H146115   5.021   6.554  10.948 -0.1310  0.8294  1.2692
 8208TIP3    H246116   5.019   6.404  10.927 -0.2970  1.2480 -2.3654
 8209TIP3   OH246117   6.748   5.440  12.427  0.4293  0.2793 -0.1065
 8209TIP3    H146118   6.685   5.376  12.395 -0.0892  1.3622 -1.3158
 8209TIP3    H246119   6.827   5.425  12.374 -0.4886  2.1930 -2.1527
 8210TIP3   OH246120   5.660   2.625  15.323  0.2786 -0.6072  0.6444
 8210TIP3    H146121   5.632   2.599  15.410  2.3524 -1.0740  1.2231
 8210TIP3    H246122   5.730   2.689  15.337  0.2657 -0.2534 -0.6897
 8211TIP3   OH246123   4.253   0.712   3.609 -0.2407 -0.4258  0.2165
 8211TIP3    H146124   4.320   0.669   3.556 -0.5000 -0.9300  0.3028
 8211TIP3    H246125   4.303   0.773   3.665  0.3657 -2.1618  1.6532
 8212TIP3   OH246126   6.133   5.033  13.904 -0.3253 -0.3687  0.0061
 8212TIP3    H146127   6.195   5.038  13.977 -0.3856  2.2153 -0.0414
 8212TIP3    H246128   6.168   4.965  13.847  0.7266 -1.1503  1.5134
 8213TIP3   OH246129   2.791   4.721   5.739  0.2808 -0.6104 -0.1713
 8213TIP3    H146130   2.767   4.800   5.689  0.9592 -0.5890 -0.4657
 8213TIP3    H246131   2.870   4.745   5.786  1.4601 -1.6235 -1.5674
 8214TIP3   OH246132   5.577   6.684  14.297 -0.1123  0.0916  0.6993
 8214TIP3    H146133   5.503   6.689  14.236  0.6997 -1.6897 -0.5437
 8214TIP3    H246134   5.545   6.631  14.369 -0.0210 -0.8689  0.0556
 8215TIP3   OH246135   3.287   1.876  16.317  0.1889 -0.9905  0.6127
 8215TIP3    H146136   3.249   1.803  16.268 -0.6631 -0.3910  0.3681
 8215TIP3    H246137   3.217   1.906  16.375  0.6416 -0.5845  0.9552
 8216TIP3   OH246138   4.176   6.004  15.371  0.1350 -0.0906  0.4510
 8216TIP3    H146139   4.255   6.028  15.421  1.3454 -2.0802 -0.3822
 8216TIP3    H246140   4.111   6.069  15.397  1.9248  1.4148  1.4741
 8217TIP3   OH246141   0.495   3.605  12.122  0.3980 -0.4230 -0.7367
 8217TIP3    H146142   0.477   3.600  12.028  1.0051 -2.7427 -0.7890
 8217TIP3    H246143   0.582   3.645  12.128 -0.5560  1.8543 -0.9758
 8218TIP3   OH246144   4.677   4.819  16.216  0.5748 -0.5142  0.1919
 8218TIP3    H146145   4.624   4.859  16.285 -1.2245  1.3926 -2.1181
 8218TIP3    H246146   4.762   4.805  16.257 -0.0025  1.7640  2.4349
 8219TIP3   OH246147   0.158   5.070  11.922  0.2780 -0.1632 -0.1454
 8219TIP3    H146148   0.198   4.983  11.922 -1.8529 -1.2039  0.7359
 8219TIP3    H246149   0.072   5.057  11.884 -0.9404  1.1357  1.9883
 8220TIP3   OH246150   0.939   1.766   0.205  0.4035 -0.2002 -0.0269
 8220TIP3    H146151   1.030   1.768   0.175  0.7555 -0.3808  0.9709
 8220TIP3    H246152   0.889   1.739   0.129  1.1582  0.1490 -0.6604
 8221TIP3   OH246153   5.897   1.878  14.111 -0.3137 -0.2014  0.5938
 8221TIP3    H146154   5.962   1.815  14.141  1.8660  0.9529 -1.3643
 8221TIP3    H246155   5.918   1.959  14.158  0.5973  0.5385 -1.0089
 8222TIP3   OH246156   1.120   2.471  16.174  0.0696  0.7953 -0.4560
 8222TIP3    H146157   1.157   2.463  16.086  2.2406 -0.6618  0.5173
 8222TIP3    H246158   1.067   2.392  16.185 -0.8045  1.3390 -0.7040
 8223TIP3   OH246159   6.540   3.197   3.935  0.3089 -0.3421 -0.4618
 8223TIP3    H146160   6.604   3.156   3.877 -0.8660 -1.4387 -1.0096
 8223TIP3    H246161   6.566   3.289   3.937  1.5416 -0.6515 -1.1513
 8224TIP3   OH246162   3.711   0.434   3.851 -0.1031  0.1132  0.3964
 8224TIP3    H146163   3.754   0.480   3.923 -0.1296  0.0694  0.4403
 8224TIP3    H246164   3.769   0.360   3.831 -1.5783 -1.6984  2.4333
 8225TIP3   OH246165   2.837   2.017   2.690 -0.8967  0.0959  0.5088
 8225TIP3    H146166   2.852   1.939   2.744 -3.3056 -0.1604  0.9110
 8225TIP3    H246167   2.749   2.045   2.713 -0.5245  2.2653 -0.5202
 8226TIP3   OH246168   0.498   0.496  17.084  0.6980 -0.3754 -0.1267
 8226TIP3    H146169   0.416   0.538  17.058  0.5969 -0.5557 -0.0990
 8226TIP3    H246170   0.530   0.549  17.157  0.5447 -0.3797 -0.0583
 8227TIP3   OH246171   2.764   5.756   5.056 -0.2341 -0.0141  0.4213
 8227TIP3    H146172   2.795   5.840   5.088 -0.7302  0.2024  0.3263
 8227TIP3    H246173   2.815   5.741   4.975  0.3860 -0.1571  0.8298
 8228TIP3   OH246174   5.602   0.184  11.883 -0.2939 -0.5907  0.2542
 8228TIP3    H146175   5.655   0.237  11.824 -0.9184 -2.4159 -2.1038
 8228TIP3    H246176   5.664   0.120  11.920 -0.2513 -0.6415  0.0950
 8229TIP3   OH246177   4.181   0.953  15.789 -0.2420  0.2066  0.1788
 8229TIP3    H146178   4.091   0.921  15.784 -0.3518  0.2879  1.2819
 8229TIP3    H246179   4.187   0.995  15.875  1.7577 -2.7793  1.6930
 8230TIP3   OH246180   3.505   1.478   3.501  0.2107 -0.0127 -0.4092
 8230TIP3    H146181   3.429   1.508   3.550 -0.5721  0.2928 -1.7456
 8230TIP3    H246182   3.468   1.440   3.421  1.3852 -1.2413 -0.4058
 8231TIP3   OH246183   2.051   6.258   4.383 -0.2337  0.6010  0.1907
 8231TIP3    H146184   2.006   6.236   4.464  0.6653 -0.1044  0.5227
 8231TIP3    H246185   2.131   6.204   4.385 -0.9171 -0.6117 -1.8693
 8232TIP3   OH246186   5.737   1.839  12.894 -0.2706 -0.8336  0.2356
 8232TIP3    H146187   5.760   1.785  12.969  0.4071 -1.0972 -0.1507
 8232TIP3    H246188   5.710   1.776  12.826 -0.5650 -0.6175  0.1467
 8233TIP3   OH246189   2.421   6.467   5.034  0.0397 -0.2517  0.4191
 8233TIP3    H146190   2.378   6.536   4.983 -1.6149 -0.5636  1.2954
 8233TIP3    H246191   2.422   6.391   4.976 -1.2708 -0.4276  0.5865
 8234TIP3   OH246192   4.942   4.550  12.244 -0.2260  0.7260 -0.0778
 8234TIP3    H146193   4.939   4.631  12.193  0.1523  1.1313  0.5315
 8234TIP3    H246194   4.946   4.579  12.335 -1.3127  0.0001  0.2098
 8235TIP3   OH246195   2.258   4.072   4.528 -0.4646 -0.3228 -0.6180
 8235TIP3    H146196   2.266   3.979   4.550 -1.2211 -0.3711 -0.5258
 8235TIP3    H246197   2.268   4.076   4.433  1.3438 -0.2833 -0.4615
 8236TIP3   OH246198   5.561   6.090  14.997 -0.0196  0.6908 -0.7794
 8236TIP3    H146199   5.597   6.056  15.079 -0.7529  1.7266  0.0025
 8236TIP3    H246200   5.602   6.176  14.987 -3.6809  2.9173  1.2877
 8237TIP3   OH246201   0.773   2.650   3.790 -0.9601  0.0967 -0.0363
 8237TIP3    H146202   0.810   2.617   3.871 -2.0775 -2.3092 -0.4289
 8237TIP3    H246203   0.822   2.606   3.720 -2.4549 -0.7786 -0.5832
 8238TIP3   OH246204   3.822   1.188  15.014 -0.4660 -0.3267 -0.0271
 8238TIP3    H146205   3.851   1.228  14.932  1.6811  0.9111  1.2543
 8238TIP3    H246206   3.777   1.259  15.060  0.5405 -0.2660  0.8975
 8239TIP3   OH246207   1.077   2.667   1.391  0.0705  0.5922  0.0087
 8239TIP3    H146208   1.053   2.751   1.430 -0.2849  0.0390  1.0334
 8239TIP3    H246209   1.008   2.649   1.328  1.0674  1.8781 -1.5380
 8240TIP3   OH246210   5.227   3.030   1.319 -0.7289 -0.2427 -0.4257
 8240TIP3    H146211   5.306   3.016   1.267 -0.9820  0.3818 -0.9921
 8240TIP3    H246212   5.161   2.974   1.278 -1.1171  0.7742 -1.2427
 8241TIP3   OH246213   5.619   0.209   5.425  0.2529 -0.3269  0.0119
 8241TIP3    H146214   5.536   0.197   5.471  0.8937 -2.4293  0.7463
 8241TIP3    H246215   5.676   0.142   5.462  1.9734  0.4108 -1.2014
 8242TIP3   OH246216   0.114   4.148   2.846 -0.1915  0.2758 -0.0418
 8242TIP3    H146217   0.175   4.127   2.917 -0.3422  1.1852  0.3729
 8242TIP3    H246218   0.077   4.233   2.871  1.1862  1.5734 -2.1563
 8243TIP3   OH246219   2.724   3.757  13.621 -0.1368  0.1365  0.1366
 8243TIP3    H146220   2.677   3.724  13.698  2.1092 -1.1485  1.0550
 8243TIP3    H246221   2.715   3.852  13.627 -2.0697 -0.0374  0.5925
 8244TIP3   OH246222   4.869   3.544   3.142  0.5844  0.3509  0.0926
 8244TIP3    H146223   4.886   3.512   3.230  0.0295  1.7342  0.7365
 8244TIP3    H246224   4.778   3.574   3.144 -0.9167 -3.3485 -2.1593
 8245TIP3   OH246225   2.771   2.495  11.926 -0.6529  0.1197  0.2725
 8245TIP3    H146226   2.842   2.474  11.987 -0.2213  1.3648  0.2334
 8245TIP3    H246227   2.791   2.444  11.848  0.2391  0.4735  0.2483
 8246TIP3   OH246228   6.554   3.185   2.713 -0.1820  0.0514 -0.0466
 8246TIP3    H146229   6.576   3.273   2.742  0.0401 -0.0588  0.1237
 8246TIP3    H246230   6.475   3.196   2.660  0.0666  0.4047 -0.3541
 8247TIP3   OH246231   3.526   3.053   3.090 -0.2443 -0.5174  0.6164
 8247TIP3    H146232   3.432   3.053   3.074  0.0211  0.4022 -1.3146
 8247TIP3    H246233   3.550   3.146   3.092  0.8874 -0.7379 -0.9813
 8248TIP3   OH246234   1.562   6.426   0.748  0.7226 -0.9250 -0.3594
 8248TIP3    H146235   1.606   6.510   0.764  1.4842 -1.4978  0.6523
 8248TIP3    H246236   1.487   6.427   0.806  1.5232 -1.5196  0.7199
 8249TIP3   OH246237   3.928   6.578   0.237 -0.7224  0.8024 -0.7648
 8249TIP3    H146238   3.967   6.520   0.171 -0.3303  1.1312 -0.8228
 8249TIP3    H246239   3.961   6.665   0.216 -0.2088  0.8440  0.1456
 8250TIP3   OH246240   2.939   4.796   3.164 -0.5242 -0.0115  0.1491
 8250TIP3    H146241   2.991   4.744   3.103 -0.2815  0.9575 -0.5001
 8250TIP3    H246242   2.910   4.734   3.231  2.8084 -0.3731  1.4870
 8251TIP3   OH246243   5.864   4.244  12.939  0.1935  0.0513 -0.7235
 8251TIP3    H146244   5.922   4.199  12.878 -1.5596 -1.3304 -1.4355
 8251TIP3    H246245   5.834   4.176  13.000  1.3140  1.2521  1.2831
 8252TIP3   OH246246   2.324   2.643   3.988  0.1783  0.2311  0.0791
 8252TIP3    H146247   2.399   2.703   3.987  1.7023 -1.6128 -1.2120
 8252TIP3    H246248   2.342   2.580   3.919 -1.3696 -1.7289  1.3475
 8253TIP3   OH246249   5.354   0.236  16.407 -0.1857 -0.3695  0.2262
 8253TIP3    H146250   5.296   0.263  16.336 -0.3291  0.2445  0.5740
 8253TIP3    H246251   5.347   0.306  16.471  0.8969 -0.3208  0.3020
 8254TIP3   OH246252   4.848   6.365  11.933  0.2323  0.0354 -0.1486
 8254TIP3    H146253   4.824   6.401  11.847  2.3464  0.5964 -0.5590
 8254TIP3    H246254   4.844   6.270  11.920 -1.1436  0.0952 -0.3347
 8255TIP3   OH246255   0.755   0.224  10.923 -0.0128 -0.7440  0.6990
 8255TIP3    H146256   0.719   0.252  10.838  1.4630  0.0034  0.2791
 8255TIP3    H246257   0.744   0.129  10.924  1.3036 -0.9640 -1.0379
 8256TIP3   OH246258   1.005   1.471   0.269 -0.3714  0.0987  0.3671
 8256TIP3    H146259   0.972   1.540   0.211 -0.4309 -0.9150 -0.8378
 8256TIP3    H246260   1.030   1.400   0.211 -0.4262 -0.9657  1.5983
 8257TIP3   OH246261   4.943   6.290   5.725  0.3825 -0.2213  0.2152
 8257TIP3    H146262   4.979   6.236   5.795 -1.6178 -1.5234  0.3192
 8257TIP3    H246263   4.857   6.318   5.758  0.2061  0.7228 -0.9571
 8258TIP3   OH246264   4.532   3.474   2.230 -0.9623  0.1140  0.2825
 8258TIP3    H146265   4.600   3.517   2.283  0.8780 -0.6422 -1.3210
 8258TIP3    H246266   4.574   3.394   2.198 -2.5049 -0.2098 -1.0750
 8259TIP3   OH246267   1.168   2.784   6.485  0.2489 -0.0378 -0.0263
 8259TIP3    H146268   1.172   2.805   6.578 -0.6597 -0.6077  0.1529
 8259TIP3    H246269   1.217   2.855   6.442 -1.9313  1.9876  0.6203
 8260TIP3   OH246270   5.516   2.633   5.946 -0.1806  0.2812 -0.1019
 8260TIP3    H146271   5.546   2.680   6.024 -1.2830  0.1310  0.4393
 8260TIP3    H246272   5.588   2.575   5.923  0.4766  0.9136  0.3130
 8261TIP3   OH246273   5.902   4.850  11.027  0.5393 -0.3151 -0.3953
 8261TIP3    H146274   5.898   4.945  11.037  2.1766 -0.4489  2.9530
 8261TIP3    H246275   5.987   4.834  10.984  1.2692 -0.2852  0.9865
 8262TIP3   OH246276   3.334   2.787  14.540 -0.2215 -0.1762 -0.2731
 8262TIP3    H146277   3.258   2.731  14.523 -0.1310  0.1131 -1.7559
 8262TIP3    H246278   3.304   2.847  14.609 -0.2237 -2.1766  1.5531
 8263TIP3   OH246279   3.424   0.264  16.656  0.3269 -0.2840 -0.2658
 8263TIP3    H146280   3.476   0.184  16.659 -0.9527 -1.2778 -2.0519
 8263TIP3    H246281   3.355   0.250  16.720  0.0342 -0.6996 -0.6603
 8264TIP3   OH246282   0.062   4.109  13.322 -0.7200  0.4255 -0.1289
 8264TIP3    H146283   0.008   4.055  13.379 -1.2923  0.1716 -0.8969
 8264TIP3    H246284   0.143   4.123  13.372 -1.0079 -0.1997  0.5319
 8265TIP3   OH246285   0.097   6.540  13.931  0.4446 -0.1219  0.0658
 8265TIP3    H146286   0.039   6.465  13.927  0.3602 -0.0273 -0.7394
 8265TIP3    H246287   0.040   6.615  13.911  0.8630 -0.0459 -0.8752
 8266TIP3   OH246288   2.359   0.710   4.840  0.5219  0.7444  0.3984
 8266TIP3    H146289   2.385   0.791   4.886 -0.0700  1.6979 -0.8844
 8266TIP3    H246290   2.432   0.691   4.782  0.9565 -0.0597  1.1748
 8267TIP3   OH246291   4.488   5.492  16.470  0.0508  0.2792 -0.7325
 8267TIP3    H146292   4.483   5.403  16.504 -0.5082  0.3831 -0.5339
 8267TIP3    H246293   4.493   5.482  16.375 -0.8699  0.0613 -0.7585
 8268TIP3   OH246294   3.093   5.392   4.632  0.6439  0.5143  0.1929
 8268TIP3    H146295   3.112   5.342   4.712 -1.0370 -2.4150 -1.1101
 8268TIP3    H246296   3.061   5.476   4.665  3.2509  0.7909  2.4875
 8269TIP3   OH246297   4.333   2.786   4.246  0.0517 -0.3458 -0.4869
 8269TIP3    H146298   4.346   2.718   4.312 -1.5432  0.3356  0.5795
 8269TIP3    H246299   4.365   2.747   4.165  2.3694 -1.0966  0.6851
 8270TIP3   OH246300   6.757   1.745   5.633  0.3948 -0.2011  0.1780
 8270TIP3    H146301   6.724   1.827   5.597  3.2077  1.5301  1.2532
 8270TIP3    H246302   6.723   1.743   5.722 -0.7650 -0.9366 -0.2559
 8271TIP3   OH246303   2.404   3.719  16.464  0.4824 -0.0035 -0.0113
 8271TIP3    H146304   2.447   3.797  16.428  1.1929  0.0035  0.8300
 8271TIP3    H246305   2.314   3.746  16.481  0.5804  0.4691 -0.2439
 8272TIP3   OH246306   2.499   3.216   1.545 -0.3039 -0.3029 -0.0345
 8272TIP3    H146307   2.541   3.130   1.545 -0.4839 -0.3975 -1.1718
 8272TIP3    H246308   2.487   3.237   1.453  1.2146  1.6771  0.1552
 8273TIP3   OH246309   2.435   2.837   2.079  0.3352 -0.4843  0.2770
 8273TIP3    H146310   2.528   2.820   2.090 -0.0706 -1.3188  3.1874
 8273TIP3    H246311   2.431   2.923   2.038  2.3876  0.3139  1.5966
 8274TIP3   OH246312   2.052   2.239  14.742  0.3577  0.9477 -0.3628
 8274TIP3    H146313   2.076   2.271  14.829 -0.0532 -0.9872  0.4983
 8274TIP3    H246314   2.007   2.313  14.701 -0.7744  1.4248  1.6231
 8275TIP3   OH246315   5.863   3.200   5.484  0.1601 -0.1373  0.0122
 8275TIP3    H146316   5.956   3.182   5.475  0.0160 -1.6853  1.1223
 8275TIP3    H246317   5.841   3.169   5.572 -1.6194 -0.9253 -0.6471
 8276TIP3   OH246318   4.978   4.043   0.278  0.0668 -0.7887 -0.1944
 8276TIP3    H146319   5.022   4.002   0.353 -0.0535  1.0997  0.9834
 8276TIP3    H246320   5.044   4.046   0.210  0.6648 -1.1872  0.3596
 8277TIP3   OH246321   5.037   1.394   1.119 -0.2792 -0.2818  0.3316
 8277TIP3    H146322   4.976   1.321   1.106 -0.5844 -0.2471  1.4164
 8277TIP3    H246323   4.981   1.468   1.143 -0.0381  0.5394 -1.5153
 8278TIP3   OH246324   3.178   2.214  15.824 -0.5129  0.0343  0.1643
 8278TIP3    H146325   3.261   2.223  15.778 -0.7296 -0.2007 -0.2793
 8278TIP3    H246326   3.202   2.184  15.912 -0.0891  0.6371  0.2586
 8279TIP3   OH246327   4.172   3.396   4.199 -0.0774  0.0606 -0.1274
 8279TIP3    H146328   4.117   3.441   4.135 -0.6946  0.1327  0.4452
 8279TIP3    H246329   4.173   3.453   4.275  1.0737  0.2218 -0.2369
 8280TIP3   OH246330   1.108   6.581  12.961 -0.4876  0.2283  0.7238
 8280TIP3    H146331   1.079   6.632  12.885 -0.9231 -0.8656  0.1287
 8280TIP3    H246332   1.030   6.576  13.016 -0.0311  1.4614  1.5203
 8281TIP3   OH246333   3.210   0.155   3.853 -0.2194  0.3370 -0.3554
 8281TIP3    H146334   3.170   0.220   3.795 -0.9836  0.1188 -0.0869
 8281TIP3    H246335   3.252   0.207   3.921  0.3065  0.5816 -0.8639
 8282TIP3   OH246336   2.522   4.850  13.882 -0.5738 -0.3132 -0.0856
 8282TIP3    H146337   2.536   4.858  13.788 -1.9481 -0.7089 -0.3526
 8282TIP3    H246338   2.600   4.806  13.915 -0.3956 -0.8160 -1.1530
 8283TIP3   OH246339   2.598   4.893   1.735  0.2539 -0.4610  0.0921
 8283TIP3    H146340   2.636   4.926   1.817 -0.8436  1.5281 -0.1320
 8283TIP3    H246341   2.666   4.909   1.669 -0.1726  1.2997  0.0276
 8284TIP3   OH246342   2.631   5.565  11.710  0.1489  0.0426 -0.1424
 8284TIP3    H146343   2.567   5.605  11.769  0.0414 -0.9676  0.4578
 8284TIP3    H246344   2.705   5.542  11.766  0.1676 -0.6698 -0.4412
 8285TIP3   OH246345   6.489   3.147  15.506  0.3899  0.4742 -0.4651
 8285TIP3    H146346   6.447   3.228  15.476 -1.9902 -0.6820 -0.5075
 8285TIP3    H246347   6.455   3.134  15.595  1.2247 -0.1628 -0.2312
 8286TIP3   OH246348   5.121   0.098   3.312  0.3574  0.3666  0.3778
 8286TIP3    H146349   5.065   0.171   3.285  0.5159 -0.3022 -1.9243
 8286TIP3    H246350   5.120   0.102   3.408 -1.0139  2.3266  0.3459
 8287TIP3   OH246351   4.440   5.434   1.628  0.2754  0.5318  0.6902
 8287TIP3    H146352   4.463   5.377   1.555  0.0326 -0.4165  1.3436
 8287TIP3    H246353   4.378   5.496   1.591  0.7917  0.5939 -0.1067
 8288TIP3   OH246354   6.614   2.206   2.842 -0.0125  0.1812 -0.2149
 8288TIP3    H146355   6.606   2.123   2.888 -1.1675 -0.3932 -1.3984
 8288TIP3    H246356   6.614   2.183   2.749  1.6964  1.3558 -0.5613
 8289TIP3   OH246357   3.123   0.716   1.852  0.0337 -0.0573  0.6639
 8289TIP3    H146358   3.174   0.731   1.932  2.1782 -1.0128 -0.4463
 8289TIP3    H246359   3.127   0.621   1.838 -1.4801 -0.0747  0.1227
 8290TIP3   OH246360   5.271   2.609  10.911 -0.1787 -0.1708  0.0611
 8290TIP3    H146361   5.193   2.600  10.856  0.3033  2.5968 -1.2483
 8290TIP3    H246362   5.260   2.693  10.954  1.3298 -0.5071  1.1886
 8291TIP3   OH246363   3.462   5.318   2.409  0.0694 -0.1614 -0.7009
 8291TIP3    H146364   3.388   5.366   2.373 -0.5385 -0.5739 -0.0298
 8291TIP3    H246365   3.482   5.251   2.343 -0.3528 -0.2418 -0.7518
 8292TIP3   OH246366   1.389   2.616  14.381  0.1259  0.4547  0.0072
 8292TIP3    H146367   1.294   2.614  14.368  0.1371 -1.8996 -0.0279
 8292TIP3    H246368   1.411   2.709  14.380 -1.8733  0.9893 -2.1311
 8293TIP3   OH246369   3.314   1.649   4.248 -0.2578 -0.0964 -0.2326
 8293TIP3    H146370   3.394   1.697   4.227 -0.9072  0.3079 -1.9325
 8293TIP3    H246371   3.345   1.561   4.271  0.6513 -0.3039 -2.0054
 8294TIP3   OH246372   3.379   4.959  13.033  0.1822  0.4299 -0.0506
 8294TIP3    H146373   3.451   4.921  13.083  1.4820  0.5993 -1.7206
 8294TIP3    H246374   3.353   5.036  13.084  0.5242 -0.1638  1.0563
 8295TIP3   OH246375   3.888   3.012   5.540 -0.8686 -0.2889  0.0256
 8295TIP3    H146376   3.982   3.004   5.554 -0.3189  1.1288 -2.4436
 8295TIP3    H246377   3.870   2.955   5.465 -1.8813 -0.0522  0.0760
 8296TIP3   OH246378   1.269   0.421  16.493 -0.2060  0.5095  0.8659
 8296TIP3    H146379   1.267   0.392  16.584  1.8911 -0.4836  0.6688
 8296TIP3    H246380   1.297   0.513  16.498  1.3126  0.0622  1.2170
 8297TIP3   OH246381   0.817   1.168   2.320 -0.2239  0.1235 -0.0744
 8297TIP3    H146382   0.796   1.137   2.408 -0.3165  0.2560 -0.0481
 8297TIP3    H246383   0.908   1.140   2.305 -0.5233 -0.7403 -0.3195
 8298TIP3   OH246384   1.624   1.061  11.300  0.1760 -0.2913  0.3354
 8298TIP3    H146385   1.601   1.051  11.392  1.7000 -1.0650  0.6709
 8298TIP3    H246386   1.541   1.077  11.256 -0.6909 -0.7653  1.7211
 8299TIP3   OH246387   3.858   6.142   5.046  0.1346 -0.6674  0.1944
 8299TIP3    H146388   3.784   6.109   5.097 -0.6826  0.3313 -0.3237
 8299TIP3    H246389   3.818   6.183   4.969  1.2582 -0.5642 -0.3520
 8300TIP3   OH246390   0.090   6.098   5.478 -0.0246  0.0510  0.0657
 8300TIP3    H146391   0.170   6.135   5.516 -1.7105  3.4673  0.6884
 8300TIP3    H246392   0.112   6.081   5.387  1.3512  1.1907  0.1550
 8301TIP3   OH246393   4.893   6.045   1.605 -0.2935  0.1068 -0.2090
 8301TIP3    H146394   4.808   6.024   1.644 -0.1002  0.9770  0.7078
 8301TIP3    H246395   4.919   6.126   1.647  1.4327 -0.6383  0.2113
 8302TIP3   OH246396   2.421   0.075   1.886 -0.0097  0.2661  0.5119
 8302TIP3    H146397   2.405   0.041   1.798 -2.1276 -0.3142  1.0631
 8302TIP3    H246398   2.504   0.122   1.879  0.2591 -0.4226 -1.5949
 8303TIP3   OH246399   5.387   1.333  12.753 -0.9301 -0.5030 -0.1770
 8303TIP3    H146400   5.443   1.409  12.767 -0.4597 -0.8846  0.0432
 8303TIP3    H246401   5.445   1.268  12.713 -1.8421  0.0195 -2.5090
 8304TIP3   OH246402   1.959   0.669   2.002 -0.1049 -0.0081  0.0983
 8304TIP3    H146403   1.901   0.666   1.925 -0.6305 -0.4185  0.4999
 8304TIP3    H246404   2.047   0.662   1.965 -0.3675 -0.5968 -0.4565
 8305TIP3   OH246405   6.670   1.951  12.658 -0.0791  0.5461 -0.4608
 8305TIP3    H146406   6.681   2.019  12.591  1.5201  0.7850 -0.0089
 8305TIP3    H246407   6.607   1.988  12.720  0.5228  1.5109 -0.3993
 8306TIP3   OH246408   3.288   4.307  12.472 -0.0826 -0.3985 -0.4467
 8306TIP3    H146409   3.332   4.376  12.422 -1.0401  0.5023 -0.0772
 8306TIP3    H246410   3.349   4.286  12.543  0.1267  0.2061 -0.4427
 8307TIP3   OH246411   3.576   6.407  15.187  0.3303  0.8031 -0.5087
 8307TIP3    H146412   3.531   6.343  15.131  2.0244  0.2523 -1.3235
 8307TIP3    H246413   3.517   6.420  15.261 -0.8304 -0.4113 -1.1657
 8308TIP3   OH246414   1.515   6.506   5.573 -0.5512 -0.2036  0.2201
 8308TIP3    H146415   1.589   6.519   5.515  0.0060  1.7937  1.2672
 8308TIP3    H246416   1.439   6.538   5.523 -0.6406 -1.6667 -0.6197
 8309TIP3   OH246417   3.500   1.338   1.633 -0.0993  0.2011 -0.3387
 8309TIP3    H146418   3.517   1.406   1.569 -0.8183  0.9916  0.2912
 8309TIP3    H246419   3.408   1.315   1.620 -0.2670  0.4142  0.4524
 8310TIP3   OH246420   2.000   4.785  11.527 -0.6094  0.4650  0.5495
 8310TIP3    H146421   1.929   4.747  11.474 -0.4297 -0.6716  1.0917
 8310TIP3    H246422   2.033   4.711  11.578  0.8371  1.0239  0.4555
 8311TIP3   OH246423   0.400   4.803  15.778  0.4904 -0.0227 -0.6846
 8311TIP3    H146424   0.455   4.879  15.794  0.8552  0.1384 -2.4629
 8311TIP3    H246425   0.321   4.819  15.830  2.2445 -0.5292  2.3920
 8312TIP3   OH246426   4.910   3.607   3.897  0.1341 -0.1634  0.3336
 8312TIP3    H146427   4.816   3.600   3.880  0.4797 -0.4265 -1.6177
 8312TIP3    H246428   4.933   3.695   3.869  0.7716 -0.6979 -0.9062
 8313TIP3   OH246429   6.410   1.440   0.808 -0.1897 -0.1050 -0.5061
 8313TIP3    H146430   6.332   1.422   0.756 -0.2218  0.2087 -0.5708
 8313TIP3    H246431   6.388   1.410   0.896 -0.9711  1.3794 -0.1543
 8314TIP3   OH246432   4.497   5.900  17.046 -0.5168  0.2694  0.3265
 8314TIP3    H146433   4.485   5.977  17.102 -1.6956  2.7512 -2.9779
 8314TIP3    H246434   4.408   5.874  17.022 -0.0636  0.6076 -1.9097
 8315TIP3   OH246435   6.802   5.529   0.147 -0.5814 -0.3334 -0.5355
 8315TIP3    H146436   6.739   5.463   0.176  0.4952  0.3969  4.2863
 8315TIP3    H246437   6.854   5.485   0.080 -2.2748 -3.0427 -0.2078
 8316TIP3   OH246438   2.991   0.589   3.088 -0.5198  0.0024 -0.2027
 8316TIP3    H146439   2.973   0.570   2.996  0.8143 -0.6635 -0.3400
 8316TIP3    H246440   3.007   0.504   3.128 -0.2342  0.3600  0.4625
 8317TIP3   OH246441   1.984   4.514  15.535 -0.0652 -0.3073 -0.0187
 8317TIP3    H146442   1.898   4.504  15.493  0.1642 -0.5402 -0.4310
 8317TIP3    H246443   1.996   4.433  15.585 -0.7438  0.3402  1.2609
 8318TIP3   OH246444   3.667   0.245   4.239  0.2381  0.1556  0.0027
 8318TIP3    H146445   3.761   0.252   4.228  0.0196  2.3195 -1.0710
 8318TIP3    H246446   3.655   0.202   4.324  2.2240  2.3788  1.5333
 8319TIP3   OH246447   0.839   6.208  15.829 -0.3580 -0.2812  0.1004
 8319TIP3    H146448   0.851   6.146  15.758  3.9193 -0.6761  0.9338
 8319TIP3    H246449   0.872   6.291  15.794 -0.2421  0.0398  0.9547
 8320TIP3   OH246450   3.593   0.062  16.789  0.0335  0.1361 -0.4324
 8320TIP3    H146451   3.620   0.102  16.872 -0.9420  0.4981 -0.2764
 8320TIP3    H246452   3.668   0.076  16.731 -0.2708  2.2539 -0.4005
 8321TIP3   OH246453   1.255   2.055   4.124  0.4388 -0.2444 -0.5009
 8321TIP3    H146454   1.199   2.084   4.052 -0.6655  0.5810  0.6464
 8321TIP3    H246455   1.201   2.065   4.202  2.5378  1.7160  0.8182
 8322TIP3   OH246456   4.625   6.083  13.416 -0.2120 -0.2689 -0.0659
 8322TIP3    H146457   4.555   6.094  13.480 -0.3847  0.9900 -0.4376
 8322TIP3    H246458   4.704   6.113  13.461 -0.1705 -0.2750 -0.1335
 8323TIP3   OH246459   0.420   6.182  15.902  0.3020 -0.4049 -0.4789
 8323TIP3    H146460   0.467   6.245  15.847 -0.0269  0.1182 -0.1648
 8323TIP3    H246461   0.328   6.208  15.895  0.1649 -0.8309 -0.3172
 8324TIP3   OH246462   6.574   2.306   6.650 -0.4749  0.6993 -0.5169
 8324TIP3    H146463   6.607   2.326   6.562  0.7903 -0.3249 -0.3142
 8324TIP3    H246464   6.487   2.345   6.653 -1.1400 -0.4457 -2.7312
 8325TIP3   OH246465   6.515   1.539  15.735 -0.3614 -0.0440  0.3110
 8325TIP3    H146466   6.606   1.511  15.742 -0.4481 -0.2932  0.4591
 8325TIP3    H246467   6.516   1.607  15.668 -0.2404 -0.7882 -0.4555
 8326TIP3   OH246468   2.109   5.008  17.260  0.2737 -0.2751 -0.2436
 8326TIP3    H146469   2.040   4.959  17.304 -0.5631  0.7711 -0.3358
 8326TIP3    H246470   2.187   4.992  17.313 -0.4164 -0.1225  0.8558
 8327TIP3   OH246471   2.711   4.020  15.512  0.3885  0.2091 -0.2476
 8327TIP3    H146472   2.676   4.018  15.423 -0.5040 -0.2244  0.1081
 8327TIP3    H246473   2.806   4.024  15.500  0.2441  1.1288 -1.2221
 8328TIP3   OH246474   3.119   4.852  13.164 -0.1047 -0.2888  0.0932
 8328TIP3    H146475   3.060   4.884  13.095 -1.9475 -0.5745  1.4694
 8328TIP3    H246476   3.129   4.926  13.224 -1.9139 -1.2301  1.6672
 8329TIP3   OH246477   0.121   1.710   2.950  0.3540 -0.0490  0.2087
 8329TIP3    H146478   0.098   1.629   2.995  1.6880  0.7607  2.4991
 8329TIP3    H246479   0.037   1.742   2.916 -0.1306 -2.5970 -1.2746
 8330TIP3   OH246480   4.417   3.403  16.000 -0.3589 -0.5451  0.3610
 8330TIP3    H146481   4.362   3.389  15.923 -0.2658  1.9613 -0.2505
 8330TIP3    H246482   4.367   3.464  16.054  0.4055 -0.7950  1.3673
 8331TIP3   OH246483   1.418   5.023   5.600 -0.0310  0.1659  0.3837
 8331TIP3    H146484   1.368   5.103   5.587  0.2390  0.3407  0.4029
 8331TIP3    H246485   1.357   4.952   5.579 -0.2857  0.3743  0.4187
 8332TIP3   OH246486   6.023   6.785   4.534  0.3536 -0.1727  0.3504
 8332TIP3    H146487   6.012   6.863   4.588  0.8416 -1.1146  1.8680
 8332TIP3    H246488   5.992   6.713   4.588  2.3599 -1.3526  0.0459
 8333TIP3   OH246489   2.497   1.243   0.181  0.5034 -0.4570  0.1820
 8333TIP3    H146490   2.424   1.189   0.212 -0.1344  0.2654 -0.0589
 8333TIP3    H246491   2.539   1.190   0.114  0.0270 -0.7571  0.1182
 8334TIP3   OH246492   1.021   3.969   0.049  0.6788  0.3115  0.1753
 8334TIP3    H146493   1.113   3.982   0.026  0.8320 -1.6679 -0.5164
 8334TIP3    H246494   1.023   3.904   0.120 -0.0591  2.8037  2.6584
 8335TIP3   OH246495   1.275   4.420  15.276 -0.4436  0.4661  0.9571
 8335TIP3    H146496   1.313   4.392  15.193  0.0972  1.1422  0.9622
 8335TIP3    H246497   1.311   4.359  15.340 -2.0108 -0.9732  0.5163
 8336TIP3   OH246498   3.158   5.266   0.066  0.0940  0.5133  0.1505
 8336TIP3    H146499   3.231   5.260   0.127 -1.3289  1.5416  2.0760
 8336TIP3    H246500   3.156   5.358   0.039 -0.1324  0.3667 -0.3665
 8337TIP3   OH246501   2.313   0.286   4.623  0.5713 -0.0012  0.3808
 8337TIP3    H146502   2.358   0.201   4.619 -2.6087 -1.9195  0.9906
 8337TIP3    H246503   2.289   0.304   4.533 -0.2286 -0.7115  0.4323
 8338TIP3   OH246504   3.076   0.439   4.722  0.7310 -0.2604 -0.3437
 8338TIP3    H146505   3.049   0.466   4.635  0.7785 -1.2305 -0.6731
 8338TIP3    H246506   3.001   0.459   4.778  0.9707  1.0406 -0.4583
 8339TIP3   OH246507   5.840   1.339  15.828 -0.3821 -0.2282  0.2888
 8339TIP3    H146508   5.927   1.355  15.793 -0.0736 -0.2739  1.0169
 8339TIP3    H246509   5.785   1.325  15.751  0.1859  0.1297 -0.1865
 8340TIP3   OH246510   0.834   3.271  11.158  0.8849 -0.2005 -0.4897
 8340TIP3    H146511   0.792   3.236  11.079  1.0639 -1.3398 -0.0920
 8340TIP3    H246512   0.906   3.211  11.176  1.5927  0.7313 -0.1363
 8341TIP3   OH246513   5.240   4.742  15.995 -0.1305 -0.0093 -0.0737
 8341TIP3    H146514   5.236   4.822  16.048  0.7982 -0.4119  0.6306
 8341TIP3    H246515   5.187   4.679  16.043  1.0880 -0.5137  0.6638
 8342TIP3   OH246516   3.749   4.878  15.683  0.0010  0.2242 -0.2995
 8342TIP3    H146517   3.717   4.803  15.633  2.8945 -0.9919 -0.5312
 8342TIP3    H246518   3.706   4.870  15.769 -1.8789 -0.0006 -1.2083
 8343TIP3   OH246519   4.010   5.954   2.965 -0.5978  0.2228  0.0780
 8343TIP3    H146520   3.971   5.988   3.045 -0.6889 -1.9476  1.0297
 8343TIP3    H246521   4.097   5.924   2.991 -0.3453  0.1450 -0.8079
 8344TIP3   OH246522   0.383   3.093   1.599 -0.1163  0.2136 -0.0193
 8344TIP3    H146523   0.436   3.166   1.630  0.5963  1.3487 -3.5536
 8344TIP3    H246524   0.293   3.126   1.599 -0.1297  0.2047  0.6370
 8345TIP3   OH246525   5.479   5.857   0.362  0.3282  0.1048  0.5344
 8345TIP3    H146526   5.420   5.932   0.368  0.5319  0.2376  0.9203
 8345TIP3    H246527   5.440   5.801   0.295 -0.8794 -0.3747  1.5958
 8346TIP3   OH246528   4.432   1.295   5.373  0.6288 -0.4299  0.1827
 8346TIP3    H146529   4.519   1.256   5.375  0.7990 -0.0660  2.5160
 8346TIP3    H246530   4.380   1.242   5.433 -0.1501  0.6663  0.5010
 8347TIP3   OH246531   6.542   5.282   0.829  0.2866 -0.0728 -0.2599
 8347TIP3    H146532   6.510   5.204   0.874 -0.7236  0.5109  0.0790
 8347TIP3    H246533   6.535   5.352   0.894  1.4072  0.2586 -0.4823
 8348TIP3   OH246534   2.263   3.473  12.942 -0.0904  0.0406  0.4413
 8348TIP3    H146535   2.209   3.552  12.950  2.0458  1.5525  0.8813
 8348TIP3    H246536   2.202   3.404  12.916 -2.0595  1.8177  0.1190
 8349TIP3   OH246537   2.854   0.228  14.829  0.3841  0.1138  0.1799
 8349TIP3    H146538   2.880   0.151  14.780  0.6983  0.6142 -0.4590
 8349TIP3    H246539   2.847   0.198  14.920  0.6928 -0.6137 -0.0319
 8350TIP3   OH246540   0.797   6.070   5.482 -0.2022 -0.1335 -0.2720
 8350TIP3    H146541   0.884   6.038   5.458  0.0190 -0.0768  0.4285
 8350TIP3    H246542   0.811   6.119   5.563 -1.1731 -1.6168  0.8274
 8351TIP3   OH246543   2.765   1.291   2.465 -0.4024  0.8101  0.0164
 8351TIP3    H146544   2.834   1.235   2.500 -0.1368  1.0163 -0.1739
 8351TIP3    H246545   2.698   1.231   2.434  0.2200  0.5720 -0.8935
 8352TIP3   OH246546   1.670   5.958  15.840 -0.5109 -0.5334  0.6474
 8352TIP3    H146547   1.610   5.946  15.914 -0.2170  0.6768  1.1117
 8352TIP3    H246548   1.617   5.999  15.772 -0.1523  1.0060  1.2355
 8353TIP3   OH246549   5.711   2.684   2.342  0.4160 -0.6820 -0.3720
 8353TIP3    H146550   5.640   2.721   2.290  0.1184  0.3619  0.7214
 8353TIP3    H246551   5.670   2.614   2.393  0.1071  0.0530  0.4086
 8354TIP3   OH246552   2.206   2.792   5.254 -0.0237 -0.1220  0.8068
 8354TIP3    H146553   2.128   2.788   5.310  0.2205 -0.8467  1.1084
 8354TIP3    H246554   2.270   2.842   5.306 -0.3779  0.7198  0.4397
 8355TIP3   OH246555   5.243   4.066  16.114  0.3041 -0.2439 -0.1095
 8355TIP3    H146556   5.154   4.094  16.093  0.7455  1.5976  0.2857
 8355TIP3    H246557   5.242   4.050  16.208  0.6809  1.1337  0.1587
 8356TIP3   OH246558   2.707   1.162  16.859 -0.1988 -0.0165 -0.3924
 8356TIP3    H146559   2.738   1.195  16.943 -1.4731  1.3702 -0.4352
 8356TIP3    H246560   2.728   1.068  16.861 -1.5187 -0.3413  2.1044
 8357TIP3   OH246561   0.685   5.184   1.785  0.1388  0.1560  0.1843
 8357TIP3    H146562   0.713   5.183   1.877 -1.3541  3.9500  0.8680
 8357TIP3    H246563   0.750   5.238   1.741  1.5996 -2.7036 -1.4582
 8358TIP3   OH246564   4.815   0.751   4.634  0.2348 -0.4136  0.0603
 8358TIP3    H146565   4.868   0.819   4.593 -0.5969  1.2675  1.6194
 8358TIP3    H246566   4.731   0.756   4.589 -0.0066  0.0010  0.5466
 8359TIP3   OH246567   2.487   1.443   5.841  0.5552  0.6560  0.1959
 8359TIP3    H146568   2.527   1.520   5.881  2.0057  0.5239 -0.9310
 8359TIP3    H246569   2.395   1.468   5.827  1.0968  2.3475 -0.5165
 8360TIP3   OH246570   3.487   0.519   1.916 -0.7131 -0.0689 -0.0982
 8360TIP3    H146571   3.570   0.471   1.923 -0.5845 -0.1168 -1.6308
 8360TIP3    H246572   3.451   0.517   2.004  1.1064  0.2854  0.7054
 8361TIP3   OH246573   0.173   4.216   4.556  0.1051  0.3597  0.2498
 8361TIP3    H146574   0.139   4.302   4.532  1.8250  0.2763 -3.0965
 8361TIP3    H246575   0.266   4.232   4.574  0.4768 -0.7523 -0.5538
 8362TIP3   OH246576   0.599   3.315  14.548  0.1018 -0.1190 -0.2323
 8362TIP3    H146577   0.576   3.389  14.604  1.6631  3.0560 -3.3801
 8362TIP3    H246578   0.682   3.283  14.582 -0.4334 -0.2668  0.9749
 8363TIP3   OH246579   0.766   5.056   3.364  0.1894  0.5763 -0.1393
 8363TIP3    H146580   0.790   5.039   3.272  1.9054  0.5782  0.2799
 8363TIP3    H246581   0.711   4.981   3.388  1.4564 -0.5445 -0.5678
 8364TIP3   OH246582   3.197   3.720  11.115  0.1700 -0.1972 -0.0926
 8364TIP3    H146583   3.147   3.677  11.046  0.6331 -1.1909  0.1779
 8364TIP3    H246584   3.270   3.761  11.069 -1.0131  1.5371 -0.5361
 8365TIP3   OH246585   6.189   2.807   4.916 -0.2919  0.0465 -0.0724
 8365TIP3    H146586   6.170   2.742   4.848  0.3530 -0.0406 -0.1784
 8365TIP3    H246587   6.221   2.756   4.990 -0.2631  0.2069  0.0257
 8366TIP3   OH246588   6.582   0.667  10.547  0.3242 -1.1008 -0.0547
 8366TIP3    H146589   6.541   0.606  10.607 -0.0050 -0.9778 -0.1553
 8366TIP3    H246590   6.509   0.711  10.503  0.5479 -0.3538  0.2974
 8367TIP3   OH246591   2.330   1.841  13.691  0.4453  0.2343 -0.2185
 8367TIP3    H146592   2.361   1.767  13.638 -0.0670  1.5482 -2.4951
 8367TIP3    H246593   2.240   1.818  13.714  0.3416  0.0559 -0.7823
 8368TIP3   OH246594   3.683   6.470  16.449  0.2709  0.0829  0.1518
 8368TIP3    H146595   3.688   6.562  16.475 -0.3483 -0.4740  2.4378
 8368TIP3    H246596   3.773   6.438  16.456  0.3186  0.2575  0.3312
 8369TIP3   OH246597   5.459   3.335   1.317  0.8109 -0.3081  0.2587
 8369TIP3    H146598   5.440   3.325   1.410 -2.7689  1.8242 -0.0675
 8369TIP3    H246599   5.378   3.369   1.279  3.0266  1.7864 -3.1408
 8370TIP3   OH246600   3.824   3.500  15.738 -0.3583  0.2959 -0.3452
 8370TIP3    H146601   3.785   3.423  15.697 -0.0382 -0.0387 -0.0345
 8370TIP3    H246602   3.758   3.569  15.729 -1.1033 -0.3033  0.3327
 8371TIP3   OH246603   6.157   0.757  14.989  0.4050  0.5321  0.5630
 8371TIP3    H146604   6.243   0.715  14.992  0.5170  0.0589 -3.7460
 8371TIP3    H246605   6.095   0.685  14.977 -0.2967  1.0670  0.8787
 8372TIP3   OH246606   3.698   1.557   5.814 -0.2792 -0.3439  0.0602
 8372TIP3    H146607   3.765   1.490   5.826 -0.9062 -1.1306 -0.6490
 8372TIP3    H246608   3.746   1.639   5.803  0.5031 -0.6836  0.8937
 8373TIP3   OH246609   2.694   3.382  14.745 -0.0621 -0.4099  0.2764
 8373TIP3    H146610   2.674   3.359  14.654  1.8262 -1.1722  0.0180
 8373TIP3    H246611   2.702   3.477  14.745 -2.2567 -0.1693  0.1516
 8374TIP3   OH246612   4.538   4.009   3.177 -0.2265  0.9116 -0.2288
 8374TIP3    H146613   4.553   4.101   3.199  1.3025  0.6713 -0.1532
 8374TIP3    H246614   4.504   3.971   3.258 -2.1284  1.6393 -0.6225
 8375TIP3   OH246615   1.555   3.432   4.780 -0.2513  0.5525 -0.2452
 8375TIP3    H146616   1.637   3.469   4.813  0.6977 -1.5186 -0.0932
 8375TIP3    H246617   1.568   3.426   4.686 -0.4074  0.6223 -0.2712
 8376TIP3   OH246618   4.280   5.226  16.095 -0.5218  0.1296 -0.4573
 8376TIP3    H146619   4.356   5.176  16.124 -0.4133  0.7930  0.4483
 8376TIP3    H246620   4.248   5.179  16.018  0.3684 -0.5653 -0.4179
 8377TIP3   OH246621   6.195   6.634   5.411  0.1426 -0.4918 -0.0163
 8377TIP3    H146622   6.151   6.641   5.496 -1.0311 -3.6254 -0.2067
 8377TIP3    H246623   6.201   6.539   5.396  1.0807 -0.0473 -3.0576
 8378TIP3   OH246624   6.721   2.811  13.679 -0.1141 -0.3671  0.4473
 8378TIP3    H146625   6.649   2.874  13.675  0.7882  0.7341  0.8259
 8378TIP3    H246626   6.799   2.866  13.685  0.8379 -1.5116 -0.8729
 8379TIP3   OH246627   6.259   1.125  12.810 -0.3665  0.3321  0.5762
 8379TIP3    H146628   6.323   1.084  12.868  1.2864  1.4180 -0.3985
 8379TIP3    H246629   6.229   1.054  12.753  0.1150 -0.1722  0.9403
 8380TIP3   OH246630   0.930   4.426   1.744  0.2878  0.7236  0.4108
 8380TIP3    H146631   0.866   4.425   1.815 -0.6753 -0.6663 -0.4442
 8380TIP3    H246632   0.972   4.340   1.748  1.3891  1.2358  0.3023
 8381TIP3   OH246633   5.776   4.818   3.218  0.6400  0.0348 -0.0863
 8381TIP3    H146634   5.697   4.764   3.213 -0.3454  1.4407 -0.3202
 8381TIP3    H246635   5.769   4.863   3.302  0.7579  0.7872 -0.4671
 8382TIP3   OH246636   3.377   4.257   3.664 -0.4844 -0.1315 -0.1489
 8382TIP3    H146637   3.367   4.352   3.670  0.1539 -0.1187  1.1087
 8382TIP3    H246638   3.471   4.243   3.657 -0.5295 -0.6760  0.2270
 8383TIP3   OH246639   0.866   5.683   2.176  0.0973 -0.0246 -0.3944
 8383TIP3    H146640   0.826   5.649   2.096  0.4517 -0.3373 -0.4393
 8383TIP3    H246641   0.935   5.741   2.144  0.7874 -0.7947 -0.3176
 8384TIP3   OH246642   3.069   3.646  11.552 -0.2411 -0.2076  0.1392
 8384TIP3    H146643   3.151   3.646  11.503 -0.5573  0.2098 -0.3998
 8384TIP3    H246644   3.026   3.728  11.527 -0.6793 -0.2727  0.6596
 8385TIP3   OH246645   5.356   1.723  17.113  0.8845 -0.5566 -0.3596
 8385TIP3    H146646   5.303   1.777  17.055  0.9991 -0.6420 -0.5474
 8385TIP3    H246647   5.299   1.704  17.188  1.1064  0.4722  0.0829
 8386TIP3   OH246648   6.120   1.098  17.171 -0.6820 -0.0779  0.4152
 8386TIP3    H146649   6.147   1.140  17.253  2.1422  0.5807 -0.7231
 8386TIP3    H246650   6.175   1.140  17.104 -2.2600 -1.2145 -1.6992
 8387TIP3   OH246651   3.818   4.257  12.641 -1.1558 -0.3132  0.4355
 8387TIP3    H146652   3.848   4.233  12.729  0.7868  1.6587  0.4181
 8387TIP3    H246653   3.792   4.175  12.601  2.6732 -2.1231  1.1591
 8388TIP3   OH246654   1.844   1.681  12.927  0.1422  0.3833  0.2317
 8388TIP3    H146655   1.847   1.624  13.004 -0.4540  0.1378  0.0827
 8388TIP3    H246656   1.916   1.650  12.872  0.7600  0.7585  0.8235
 8389TIP3   OH246657   0.732   4.785   5.615  0.4773 -0.0290  0.0750
 8389TIP3    H146658   0.750   4.732   5.693  0.9735 -1.0309 -0.7026
 8389TIP3    H246659   0.815   4.828   5.595 -0.1331  1.8588  1.2382
 8390TIP3   OH246660   0.616   1.607  10.864  0.3057 -0.5246 -0.3569
 8390TIP3    H146661   0.540   1.583  10.916  0.5492  0.0981  0.2953
 8390TIP3    H246662   0.608   1.555  10.784 -0.9345 -0.2727 -0.4059
 8391TIP3   OH246663   5.832   6.094   2.320 -0.1546  0.4420  0.6116
 8391TIP3    H146664   5.914   6.062   2.283 -1.0662 -0.5008 -0.6693
 8391TIP3    H246665   5.826   6.185   2.289  0.8851  0.8683  1.5908
 8392TIP3   OH246666   6.036   2.594   3.778  0.3141  0.4724  0.2166
 8392TIP3    H146667   6.026   2.537   3.854 -0.1881 -0.2631 -0.3856
 8392TIP3    H246668   6.012   2.538   3.703 -1.6344  1.8730 -0.2753
 8393TIP3   OH246669   3.522   2.566   0.680 -0.2838 -0.1779  0.3347
 8393TIP3    H146670   3.556   2.495   0.735  0.9494 -0.4196 -0.6997
 8393TIP3    H246671   3.582   2.570   0.605 -1.3419  0.8097 -0.5006
 8394TIP3   OH246672   1.705   2.775  11.410  0.1036  0.3333  0.6428
 8394TIP3    H146673   1.646   2.850  11.417  0.4662  0.6370  0.4331
 8394TIP3    H246674   1.743   2.783  11.323 -0.7172 -0.7273  0.1570
 8395TIP3   OH246675   4.075   4.457   6.218  0.6897  0.3204 -0.0305
 8395TIP3    H146676   4.156   4.508   6.222 -0.4644  2.4748 -1.8717
 8395TIP3    H246677   4.006   4.518   6.246 -0.7610 -0.1560 -2.3304
 8396TIP3   OH246678   0.379   3.455   6.527 -0.2376 -0.2227 -0.0776
 8396TIP3    H146679   0.439   3.526   6.507 -0.7257  0.4745  0.8492
 8396TIP3    H246680   0.435   3.383   6.556  0.5430 -1.3373 -3.7441
 8397TIP3   OH246681   3.467   1.911  16.971  0.1107  0.0937  0.2602
 8397TIP3    H146682   3.550   1.956  16.955  0.9055 -0.8076  1.6514
 8397TIP3    H246683   3.400   1.969  16.934  1.3155  1.0760 -0.4205
 8398TIP3   OH246684   2.708   6.402   5.063 -0.2271  0.0217 -0.4111
 8398TIP3    H146685   2.619   6.429   5.041 -0.2024 -0.6093 -1.3390
 8398TIP3    H246686   2.761   6.480   5.047 -0.5873  0.3699  0.0405
 8399TIP3   OH246687   5.001   2.421   1.234  0.2859 -0.3640 -0.0629
 8399TIP3    H146688   4.959   2.480   1.297  0.7562  1.3775 -1.2781
 8399TIP3    H246689   4.938   2.351   1.219 -0.4388 -0.0069  1.2024
 8400TIP3   OH246690   3.940   5.068  11.984  0.0675 -0.3207  0.0752
 8400TIP3    H146691   4.033   5.064  12.004  0.2366 -0.4570 -0.7177
 8400TIP3    H246692   3.925   4.997  11.921 -0.1353  0.9787 -1.4245
 8401TIP3   OH246693   3.255   1.280  12.480 -0.1487 -0.0805  0.2786
 8401TIP3    H146694   3.323   1.213  12.485 -0.2497 -0.1418  1.0439
 8401TIP3    H246695   3.202   1.265  12.559 -0.0148  1.0750  0.6111
 8402TIP3   OH246696   2.862   1.088   1.744  0.3355 -0.0298 -0.3679
 8402TIP3    H146697   2.890   1.001   1.716  0.4018  0.0876 -0.6745
 8402TIP3    H246698   2.901   1.099   1.831 -0.7477 -0.8179  0.2384
 8403TIP3   OH246699   6.369   1.893   2.260  0.0486  0.0649 -0.2992
 8403TIP3    H146700   6.445   1.861   2.309  0.8201  0.6021 -1.1061
 8403TIP3    H246701   6.393   1.982   2.234 -0.2448 -0.2548 -1.7932
 8404TIP3   OH246702   0.734   1.579   3.197 -0.0604  0.1079 -0.2720
 8404TIP3    H146703   0.682   1.651   3.232 -0.0340 -1.2497  3.0299
 8404TIP3    H246704   0.670   1.521   3.155 -0.6124  0.4743  0.0444
 8405TIP3   OH246705   2.443   2.691   3.242 -0.5818  0.3114  0.7007
 8405TIP3    H146706   2.484   2.746   3.309 -0.0768  0.7436  0.0539
 8405TIP3    H246707   2.387   2.751   3.193  1.7425  0.8579 -1.5117
 8406TIP3   OH246708   1.280   6.505  16.437  0.1172  0.2823 -0.2372
 8406TIP3    H146709   1.322   6.422  16.413  1.6423  0.9043  0.1996
 8406TIP3    H246710   1.344   6.572  16.414  0.4383  1.1120  2.7297
 8407TIP3   OH246711   0.656   6.209  10.626  0.7677  0.3485  0.7577
 8407TIP3    H146712   0.576   6.175  10.666  0.7346  0.4961  0.8158
 8407TIP3    H246713   0.726   6.154  10.662  0.5393 -0.8310 -0.4915
 8408TIP3   OH246714   3.775   4.656   2.092  0.2028  0.1636 -0.3849
 8408TIP3    H146715   3.688   4.631   2.123 -0.0756  1.3823 -0.1228
 8408TIP3    H246716   3.781   4.750   2.110  0.7176  0.5715 -2.4412
 8409TIP3   OH246717   1.151   1.766   4.303 -0.1604  0.3572  0.2535
 8409TIP3    H146718   1.130   1.677   4.274 -0.0976  0.7634 -1.0777
 8409TIP3    H246719   1.065   1.806   4.319 -0.1783 -0.3559  2.2781
 8410TIP3   OH246720   5.915   5.655   2.969 -0.2624  0.1390 -0.1278
 8410TIP3    H146721   5.953   5.621   2.888  0.0000 -0.4808  0.2492
 8410TIP3    H246722   5.823   5.627   2.966 -0.4680  0.8280 -0.5926
 8411TIP3   OH246723   6.543   4.000  12.846 -0.0099  0.3868 -0.0501
 8411TIP3    H146724   6.520   4.013  12.754 -0.5351 -2.1892 -0.3564
 8411TIP3    H246725   6.460   4.005  12.892  0.4119  3.1438  0.5680
 8412TIP3   OH246726   1.399   5.812  10.841 -0.2274  0.4524  0.0027
 8412TIP3    H146727   1.432   5.902  10.843  0.5516  0.1571  1.2540
 8412TIP3    H246728   1.453   5.769  10.774  0.6811  0.4668  0.6953
 8413TIP3   OH246729   5.170   1.691   0.352 -0.0511  0.3004  0.0450
 8413TIP3    H146730   5.096   1.653   0.304 -1.0100 -0.1723  1.8141
 8413TIP3    H246731   5.235   1.622   0.355 -0.5240 -0.1308  0.5514
 8414TIP3   OH246732   3.791   2.729   4.572  0.4182 -0.1184  0.1042
 8414TIP3    H146733   3.842   2.721   4.653  1.1931  0.7707 -0.2738
 8414TIP3    H246734   3.739   2.808   4.583  1.2229  0.5367 -0.6137
 8415TIP3   OH246735   6.786   3.704  12.187  0.0148 -0.1963  0.3080
 8415TIP3    H146736   6.777   3.640  12.115 -1.3671 -1.0138  1.1571
 8415TIP3    H246737   6.875   3.692  12.219  0.5492 -0.0310 -1.0668
 8416TIP3   OH246738   6.606   4.126  15.448  0.0621  0.2654  0.0505
 8416TIP3    H146739   6.627   4.219  15.455 -0.7666  0.4053  1.0928
 8416TIP3    H246740   6.664   4.083  15.512  0.4546  0.0616 -0.4394
 8417TIP3   OH246741   2.888   2.269   5.386  0.0005  0.4547 -0.4660
 8417TIP3    H146742   2.867   2.272   5.293 -1.0998 -0.0519 -0.2521
 8417TIP3    H246743   2.943   2.346   5.401 -1.6892  1.8433 -1.0850
 8418TIP3   OH246744   6.354   5.246  13.428  0.1520 -0.4340 -0.1708
 8418TIP3    H146745   6.331   5.194  13.505 -0.5160 -1.9366 -1.3345
 8418TIP3    H246746   6.380   5.331  13.464 -0.8445 -0.8419  1.6562
 8419TIP3   OH246747   2.338   3.485  14.139 -0.3891 -0.1971  0.2677
 8419TIP3    H146748   2.314   3.529  14.058 -1.0789 -0.5532  0.2710
 8419TIP3    H246749   2.281   3.524  14.206 -0.4474 -0.5297  0.4151
 8420TIP3   OH246750   3.040   1.489   2.466 -0.0751  0.0742  0.1003
 8420TIP3    H146751   3.054   1.413   2.522  0.0493 -0.3376 -0.4749
 8420TIP3    H246752   3.092   1.559   2.506 -1.5011  0.3480  1.5914
 8421TIP3   OH246753   0.510   0.556   0.773  0.0539 -0.2720  1.2921
 8421TIP3    H146754   0.463   0.530   0.852  1.0517  1.9765  2.7021
 8421TIP3    H246755   0.589   0.598   0.804 -0.2746  2.1649 -0.8205
 8422TIP3   OH246756   4.390   5.227   5.310  0.1048 -0.8564  0.3726
 8422TIP3    H146757   4.372   5.210   5.218  2.5703 -0.4982 -0.2299
 8422TIP3    H246758   4.369   5.320   5.321 -0.1142 -0.8786  0.1594
 8423TIP3   OH246759   5.595   4.818  13.977 -1.2664  0.3984 -0.2935
 8423TIP3    H146760   5.680   4.825  14.021 -1.1695  1.4037 -0.6162
 8423TIP3    H246761   5.609   4.757  13.905 -0.1048  2.4524 -1.9214
 8424TIP3   OH246762   6.484   5.247  14.959  0.1293 -0.1384  0.0755
 8424TIP3    H146763   6.441   5.163  14.975  0.2875  0.2251  2.9832
 8424TIP3    H246764   6.578   5.225  14.955  0.0509 -0.3352 -1.5994
 8425TIP3   OH246765   1.143   0.631   1.146  0.3160  0.9411  0.4900
 8425TIP3    H146766   1.180   0.668   1.225 -0.7681 -0.3910  1.6814
 8425TIP3    H246767   1.052   0.612   1.169 -0.1440  0.8926 -1.2104
 8426TIP3   OH246768   3.131   5.923   1.370  0.4691  0.2853 -0.3314
 8426TIP3    H146769   3.083   5.875   1.302 -1.0993 -1.6266  1.9600
 8426TIP3    H246770   3.102   6.014   1.359 -1.2762 -0.2979 -1.0244
 8427TIP3   OH246771   1.559   3.782   4.342  0.3554 -0.3186 -0.5037
 8427TIP3    H146772   1.515   3.742   4.417  1.0073 -1.3448 -0.6575
 8427TIP3    H246773   1.651   3.757   4.351  0.2597 -1.5156 -2.2957
 8428TIP3   OH246774   0.850   2.968   3.510  0.1389  0.1411  0.3050
 8428TIP3    H146775   0.779   2.903   3.506  0.0648 -0.0323  2.8048
 8428TIP3    H246776   0.930   2.916   3.499  0.0136 -0.1817  0.8666
 8429TIP3   OH246777   1.957   3.253  12.323 -0.4926  0.1519  0.3245
 8429TIP3    H146778   1.964   3.260  12.418 -1.0908  0.8469  0.3307
 8429TIP3    H246779   1.932   3.162  12.308  0.0871 -0.0957  0.7926
 8430TIP3   OH246780   2.332   3.718   2.637  0.7969 -0.0179 -0.2473
 8430TIP3    H146781   2.384   3.798   2.635 -0.3489  0.8465  1.8397
 8430TIP3    H246782   2.350   3.679   2.723 -1.0505 -0.3033  0.0502
 8431TIP3   OH246783   3.260   3.515  13.010  0.5005 -0.5491 -0.3719
 8431TIP3    H146784   3.217   3.549  12.932  1.0999  0.6426 -0.2154
 8431TIP3    H246785   3.190   3.506  13.075  0.3777  0.8165 -0.2937
 8432TIP3   OH246786   2.745   5.250   5.456 -0.3515  0.5575  0.1013
 8432TIP3    H146787   2.695   5.276   5.379 -0.0098  2.0259  0.3374
 8432TIP3    H246788   2.771   5.160   5.439 -1.5227  0.3734 -0.8294
 8433TIP3   OH246789   2.231   1.622  12.470  0.9597 -0.3911  0.2013
 8433TIP3    H146790   2.279   1.615  12.553  3.1566  0.9102 -0.8744
 8433TIP3    H246791   2.236   1.535  12.431 -0.1721 -1.0405  1.4134
 8434TIP3   OH246792   1.448   1.132  15.500  0.1060 -0.3051  0.1430
 8434TIP3    H146793   1.503   1.055  15.486  1.4297  0.3954  1.2629
 8434TIP3    H246794   1.479   1.196  15.436  0.5857  0.0674  0.7328
 8435TIP3   OH246795   4.823   0.518   3.085  0.5544 -0.3431 -0.1096
 8435TIP3    H146796   4.811   0.593   3.143  1.4516 -0.4860  0.2743
 8435TIP3    H246797   4.774   0.447   3.128  1.5329 -0.5492  0.6988
 8436TIP3   OH246798   5.688   5.168   3.848  0.0854  0.4487  0.1766
 8436TIP3    H146799   5.671   5.085   3.805 -1.3148  1.2991 -1.0450
 8436TIP3    H246800   5.691   5.148   3.941 -0.1923 -0.9567 -0.1070
 8437TIP3   OH246801   3.168   6.459   4.109 -0.4233  0.3508  0.4961
 8437TIP3    H146802   3.208   6.535   4.068 -0.9596  1.9355  2.7289
 8437TIP3    H246803   3.075   6.480   4.115 -0.6757 -0.7170  0.6688
 8438TIP3   OH246804   4.369   6.769  15.475 -0.1964  0.4208 -0.6171
 8438TIP3    H146805   4.413   6.785  15.392 -1.1901 -0.7160 -1.3826
 8438TIP3    H246806   4.441   6.749  15.536  0.7149  3.1910 -0.6602
 8439TIP3   OH246807   4.478   1.679   4.596 -0.0321  0.1781 -0.6565
 8439TIP3    H146808   4.454   1.599   4.643  1.8958 -0.4744 -0.6740
 8439TIP3    H246809   4.475   1.654   4.504 -1.8348  0.8792 -0.8263
 8440TIP3   OH246810   1.822   1.999  12.349  0.0816  0.4256 -0.5495
 8440TIP3    H146811   1.790   1.997  12.259 -0.1126  1.6265 -0.5224
 8440TIP3    H246812   1.822   2.092  12.373 -1.3544  0.0427  1.2159
 8441TIP3   OH246813   1.936   6.714   1.507 -0.1807 -0.4745 -0.3292
 8441TIP3    H146814   1.951   6.788   1.565  0.4366 -0.4711 -0.4950
 8441TIP3    H246815   2.019   6.666   1.506 -0.5565 -1.1461 -0.2560
 8442TIP3   OH246816   2.178   0.482  12.165  0.1830  0.1325 -0.1043
 8442TIP3    H146817   2.103   0.424  12.154  0.4616  0.0472 -1.8342
 8442TIP3    H246818   2.150   0.566  12.128  1.2038 -0.1613 -1.6579
 8443TIP3   OH246819   3.753   4.741   0.523 -0.7367  0.0513 -0.1700
 8443TIP3    H146820   3.700   4.795   0.581  0.2373  0.6927  0.1394
 8443TIP3    H246821   3.726   4.651   0.543 -2.0842  0.3700 -0.4120
 8444TIP3   OH246822   3.356   4.719  15.070 -0.1494 -0.2450 -0.3389
 8444TIP3    H146823   3.319   4.803  15.099 -0.3468 -0.8772  1.3202
 8444TIP3    H246824   3.436   4.744  15.024  0.3987  0.8253  1.1106
 8445TIP3   OH246825   4.868   6.576  11.746 -0.0123 -0.3147  0.2087
 8445TIP3    H146826   4.948   6.624  11.725  0.1769  0.0273  1.6385
 8445TIP3    H246827   4.823   6.567  11.662  1.3033 -0.1203 -0.5459
 8446TIP3   OH246828   1.743   6.744  10.083  0.0655 -0.1129 -0.1078
 8446TIP3    H146829   1.826   6.759  10.128  0.5975 -1.8544 -0.4565
 8446TIP3    H246830   1.720   6.653  10.102 -2.3406  0.6275  0.8675
 8447TIP3   OH246831   2.233   2.404  15.806  0.1884 -0.0562  0.1436
 8447TIP3    H146832   2.187   2.488  15.806 -0.2223 -0.2765  0.3139
 8447TIP3    H246833   2.321   2.425  15.777  0.4904  0.6602  1.5047
 8448TIP3   OH246834   1.540   5.662  15.405  0.0554  0.0976  0.2878
 8448TIP3    H146835   1.487   5.598  15.451 -1.5591  1.1821  0.0436
 8448TIP3    H246836   1.538   5.740  15.461  0.5811  0.4633 -0.1833
 8449TIP3   OH246837   0.288   2.001   4.788 -0.1472 -0.1222 -0.2538
 8449TIP3    H146838   0.363   2.042   4.745  0.8506 -2.0347 -0.4798
 8449TIP3    H246839   0.223   1.990   4.719 -0.1237  0.3665 -0.3580
 8450TIP3   OH246840   0.674   0.703  14.139 -0.0940  0.1050 -0.0205
 8450TIP3    H146841   0.717   0.788  14.137 -0.9653  0.5586 -0.1474
 8450TIP3    H246842   0.641   0.691  14.050 -1.0263  0.2033  0.2987
 8451TIP3   OH246843   4.310   0.849   5.251 -0.3699 -0.2412  0.0894
 8451TIP3    H146844   4.381   0.785   5.240 -0.2029  0.1078 -0.9369
 8451TIP3    H246845   4.330   0.917   5.187 -3.1221 -1.4506 -2.2698
 8452TIP3   OH246846   6.734   5.284  11.953  0.0310 -0.4860 -0.3931
 8452TIP3    H146847   6.705   5.209  11.902 -1.7890  0.9353 -1.5892
 8452TIP3    H246848   6.667   5.296  12.020  0.2289  0.1163 -0.2892
 8453TIP3   OH246849   0.540   5.395   0.909  0.0547  0.0576 -0.2350
 8453TIP3    H146850   0.606   5.465   0.907  1.4778 -1.2089  0.2941
 8453TIP3    H246851   0.477   5.423   0.975  1.0428  0.4787  0.5610
 8454TIP3   OH246852   1.288   0.018  11.762 -0.2262  0.6701  0.1986
 8454TIP3    H146853   1.271  -0.061  11.711  0.5597  1.3899 -1.2506
 8454TIP3    H246854   1.212   0.074  11.745  0.6529  1.4658 -1.3884
 8455TIP3   OH246855   5.295   3.523  11.551  0.5146  0.2952  0.3480
 8455TIP3    H146856   5.209   3.564  11.540  1.2808  1.6196 -1.2040
 8455TIP3    H246857   5.356   3.597  11.552  1.7305 -0.6836  0.2994
 8456TIP3   OH246858   1.524   2.772  12.869 -0.0204 -0.2210  0.0862
 8456TIP3    H146859   1.440   2.753  12.910  0.2104  0.7294  1.0393
 8456TIP3    H246860   1.503   2.834  12.798  0.0435  1.5298  1.5107
 8457TIP3   OH246861   3.738   1.664  15.354 -0.6061  0.3301  0.2986
 8457TIP3    H146862   3.662   1.612  15.326 -0.6083  1.1145 -1.2642
 8457TIP3    H246863   3.803   1.650  15.284  0.3959  0.2995  1.2175
 8458TIP3   OH246864   0.728   2.127   6.264 -0.8672 -0.2526  0.2159
 8458TIP3    H146865   0.657   2.176   6.224 -0.4463 -0.0804 -0.3258
 8458TIP3    H246866   0.727   2.155   6.356 -0.6387  0.7688 -0.0805
 8459TIP3   OH246867   2.413   3.726  10.847  0.0077 -0.4167  0.6833
 8459TIP3    H146868   2.326   3.686  10.844  0.8628 -2.3333 -1.5446
 8459TIP3    H246869   2.474   3.653  10.853  1.5368  0.8634  1.7785
 8460TIP3   OH246870   5.008   6.521  12.091  0.2571 -0.4749 -0.8298
 8460TIP3    H146871   5.038   6.442  12.135  0.4825 -0.5415 -1.1020
 8460TIP3    H246872   4.953   6.489  12.019 -0.6827 -0.3496 -0.1902
 8461TIP3   OH246873   0.103   0.424   3.626 -1.1126  0.0001 -0.3521
 8461TIP3    H146874   0.141   0.348   3.582 -1.2942  0.7630 -1.8842
 8461TIP3    H246875   0.142   0.423   3.714 -0.7218 -1.5510 -0.5134
 8462TIP3   OH246876   0.856   6.733  12.855  0.1559  0.6518  0.7554
 8462TIP3    H146877   0.948   6.756  12.846  0.4711 -0.4918  0.9267
 8462TIP3    H246878   0.827   6.713  12.766  0.6940 -1.1743  0.9457
 8463TIP3   OH246879   0.827   3.036   0.322  0.7469  0.0172 -0.3503
 8463TIP3    H146880   0.845   3.025   0.229 -0.0107  1.8682 -0.7589
 8463TIP3    H246881   0.848   3.128   0.340 -2.0596  0.5767  0.5752
 8464TIP3   OH246882   0.345   4.231  12.375  0.0764 -0.0207 -0.8028
 8464TIP3    H146883   0.291   4.309  12.359 -2.7420 -1.7407 -0.2746
 8464TIP3    H246884   0.369   4.238  12.467  0.1217  0.3829 -0.8412
 8465TIP3   OH246885   6.365   1.589   5.612 -0.0830 -0.5755 -0.1237
 8465TIP3    H146886   6.439   1.595   5.551  0.2808  0.3527  0.3953
 8465TIP3    H246887   6.403   1.550   5.691 -0.2871 -0.6422 -0.0577
 8466TIP3   OH246888   1.162   4.598  10.514  0.3321  0.1097  0.0517
 8466TIP3    H146889   1.152   4.692  10.521  1.3452  0.1581  1.2193
 8466TIP3    H246890   1.086   4.562  10.561  1.0713  0.3823  1.5019
 8467TIP3   OH246891   6.128   5.171   4.590  0.0857  0.3389  0.0638
 8467TIP3    H146892   6.195   5.190   4.524  0.3044 -0.8498 -0.0627
 8467TIP3    H246893   6.046   5.165   4.540  0.2521 -0.5653 -0.0999
 8468TIP3   OH246894   0.929   1.729  11.834 -0.5166  0.6729  0.2157
 8468TIP3    H146895   0.923   1.822  11.857 -0.1372  0.4666  1.2033
 8468TIP3    H246896   0.890   1.683  11.909 -1.3197  0.0501 -0.5509
 8469TIP3   OH246897   2.615   3.355  12.618  0.2211  0.3029  0.1383
 8469TIP3    H146898   2.678   3.297  12.661 -0.8006 -1.2049 -0.2817
 8469TIP3    H246899   2.668   3.420  12.573  1.4166 -0.2117  0.7726
 8470TIP3   OH246900   6.580   3.666   2.665 -0.1516 -0.1964 -0.8661
 8470TIP3    H146901   6.636   3.706   2.598 -0.1727 -0.0673 -0.8063
 8470TIP3    H246902   6.551   3.739   2.719  1.3481 -0.4815  0.4015
 8471TIP3   OH246903   2.440   6.531   1.609  0.2025  0.0561  0.1435
 8471TIP3    H146904   2.514   6.580   1.573 -0.8099 -0.4199 -2.8266
 8471TIP3    H246905   2.367   6.592   1.607  0.2737  0.3156  2.4662
 8472TIP3   OH246906   4.595   1.794  13.076 -0.1599  0.6673 -0.1551
 8472TIP3    H146907   4.564   1.728  13.014 -1.2999  1.2594 -0.2395
 8472TIP3    H246908   4.560   1.766  13.161  1.3667 -0.1231  0.2630
 8473TIP3   OH246909   4.444   0.058  15.876 -0.4822  0.4376  0.9020
 8473TIP3    H146910   4.399   0.004  15.941 -0.2805 -0.1594  0.5525
 8473TIP3    H246911   4.374   0.107  15.834 -1.1101 -1.9065 -0.9845
 8474TIP3   OH246912   3.550   3.793  12.002 -0.2536  0.5852  0.2749
 8474TIP3    H146913   3.629   3.838  11.972 -0.5577  1.2319  0.4170
 8474TIP3    H246914   3.573   3.758  12.087  0.2063 -0.1396 -0.1366
 8475TIP3   OH246915   1.677   6.188  12.857  0.3276  0.5707 -0.2346
 8475TIP3    H146916   1.628   6.136  12.921 -0.2939  2.7755  1.1903
 8475TIP3    H246917   1.746   6.129  12.827 -1.3642 -1.6517 -0.0766
 8476TIP3   OH246918   5.059   3.366   3.918  0.1527  0.3357  0.8931
 8476TIP3    H146919   5.019   3.449   3.941  0.3901  0.2435  1.6602
 8476TIP3    H246920   5.151   3.388   3.900 -0.1437  0.4976 -0.5568
 8477TIP3   OH246921   2.933   1.675  16.662 -0.4874 -0.5689  0.6497
 8477TIP3    H146922   2.956   1.659  16.571  0.3119 -1.8365  1.0354
 8477TIP3    H246923   2.941   1.769  16.674 -1.1424 -0.3279 -0.7253
 8478TIP3   OH246924   6.080   2.210  13.169 -0.2111 -0.2401 -0.3447
 8478TIP3    H146925   6.101   2.140  13.108 -1.5012 -1.5450  0.6160
 8478TIP3    H246926   6.053   2.283  13.114  2.0057 -0.1509 -1.4001
 8479TIP3   OH246927   6.782   1.521  15.668 -0.2933  0.0499 -0.1230
 8479TIP3    H146928   6.866   1.554  15.698 -0.1485  0.2743 -0.7796
 8479TIP3    H246929   6.785   1.528  15.573 -0.1500 -2.0785 -0.3219
 8480TIP3   OH246930   3.599   0.320   0.133  0.1247  0.2529  0.2473
 8480TIP3    H146931   3.634   0.233   0.152 -0.7718 -0.2504 -0.3082
 8480TIP3    H246932   3.650   0.380   0.187 -1.5398 -0.9643  3.4299
 8481TIP3   OH246933   6.678   4.607   2.179 -0.2794  0.9199  0.1006
 8481TIP3    H146934   6.707   4.690   2.217 -2.2208  1.3706  0.7340
 8481TIP3    H246935   6.582   4.614   2.176 -0.5570 -1.5585  0.8055
 8482TIP3   OH246936   2.633   5.320  13.307  0.3371  0.2197 -0.5343
 8482TIP3    H146937   2.641   5.357  13.219  0.4629  0.2505 -0.5102
 8482TIP3    H246938   2.597   5.391  13.360 -0.9299 -0.1714 -0.8225
 8483TIP3   OH246939   3.697   3.738  14.568 -0.3694 -0.3107 -0.1050
 8483TIP3    H146940   3.643   3.666  14.537  2.4379 -2.4939 -0.3770
 8483TIP3    H246941   3.653   3.817  14.537 -4.0699 -1.7560  0.9366
 8484TIP3   OH246942   4.951   2.824  17.034  0.3857  0.1804 -0.3489
 8484TIP3    H146943   4.983   2.739  17.065  2.9118  1.1713 -0.0144
 8484TIP3    H246944   5.028   2.880  17.033 -1.0956  2.3454 -1.1165
 8485TIP3   OH246945   2.929   3.125  14.907 -0.6107  0.0566 -0.1343
 8485TIP3    H146946   2.997   3.087  14.964 -1.4185 -0.9510  0.1861
 8485TIP3    H246947   2.873   3.051  14.884 -0.6507  0.5465 -1.7813
 8486TIP3   OH246948   6.742   2.778  11.535  0.0027 -0.0346  0.2243
 8486TIP3    H146949   6.807   2.735  11.591  2.0487  0.5036 -1.5853
 8486TIP3    H246950   6.674   2.808  11.595 -0.0717 -3.1555  1.8951
 8487TIP3   OH246951   0.798   0.799  13.753  0.6574  0.9260 -0.7377
 8487TIP3    H146952   0.872   0.834  13.702  0.6325  2.4802  0.2204
 8487TIP3    H246953   0.836   0.779  13.839  0.0585  1.3787 -0.3568
 8488TIP3   OH246954   4.016   1.792   1.250  0.3952 -0.3459 -0.0483
 8488TIP3    H146955   3.945   1.754   1.198  1.0547 -0.4570 -0.8737
 8488TIP3    H246956   4.044   1.720   1.308  1.5159 -1.1097 -1.4787
 8489TIP3   OH246957   1.922   1.123   3.388  0.6169 -0.8520  0.3175
 8489TIP3    H146958   2.012   1.108   3.417  0.1431  1.1496  3.2964
 8489TIP3    H246959   1.903   1.213   3.414 -1.7208 -0.5993 -1.8447
 8490TIP3   OH246960   3.518   3.925   4.737  0.0519 -0.1651 -0.2014
 8490TIP3    H146961   3.538   3.893   4.825 -0.5141  0.0464  0.0129
 8490TIP3    H246962   3.482   3.848   4.692 -1.1871  0.1069  0.2739
 8491TIP3   OH246963   6.761   6.587   5.894  0.2734 -0.4151 -0.2808
 8491TIP3    H146964   6.691   6.525   5.914  1.1468 -1.5156 -0.5118
 8491TIP3    H246965   6.775   6.634   5.975 -0.5291 -0.3909 -0.1485
 8492TIP3   OH246966   6.714   1.740  13.842  0.5292  0.1782 -0.6344
 8492TIP3    H146967   6.779   1.785  13.896 -0.8625 -0.4910  1.7707
 8492TIP3    H246968   6.758   1.661  13.811  0.9710 -0.1751  0.8114
 8493TIP3   OH246969   4.362   4.612   3.456 -0.0202  0.4368  0.5747
 8493TIP3    H146970   4.314   4.602   3.374  0.7820  0.3365  0.1055
 8493TIP3    H246971   4.294   4.627   3.521 -0.8036 -1.1965  0.1961
 8494TIP3   OH246972   4.524   4.335   2.320  0.1284  0.0927  0.0134
 8494TIP3    H146973   4.532   4.430   2.314 -2.6678  0.4236  0.1879
 8494TIP3    H246974   4.530   4.317   2.414  1.7808 -0.0814 -0.0987
 8495TIP3   OH246975   0.462   1.998  11.942 -0.4051 -0.2093 -0.3734
 8495TIP3    H146976   0.377   2.042  11.939 -0.7121 -0.4422  2.5553
 8495TIP3    H246977   0.522   2.060  11.899 -1.8109  0.5035 -1.3833
 8496TIP3   OH246978   4.691   1.335   3.455 -0.0892 -0.4002 -0.0073
 8496TIP3    H146979   4.626   1.403   3.442  1.4838  1.1359 -0.1159
 8496TIP3    H246980   4.701   1.329   3.550 -0.1636 -0.4325 -0.0011
 8497TIP3   OH246981   6.031   3.044   2.059 -0.2177 -0.2996 -0.5066
 8497TIP3    H146982   5.990   2.967   2.018  0.0388 -0.3664 -0.6423
 8497TIP3    H246983   6.091   3.007   2.124  1.3208 -0.2994 -1.8646
 8498TIP3   OH246984   3.739   3.360   2.236 -0.0720  0.0829 -0.2246
 8498TIP3    H146985   3.742   3.286   2.175 -0.2860  0.5558 -0.8199
 8498TIP3    H246986   3.706   3.433   2.184 -1.2362  0.2596  0.7234
 8499TIP3   OH246987   3.297   4.850  11.703 -0.8978 -0.5566 -0.3896
 8499TIP3    H146988   3.341   4.912  11.760 -0.6232 -1.3697  0.3005
 8499TIP3    H246989   3.213   4.833  11.745 -0.6902 -1.1664 -0.2114
 8500TIP3   OH246990   0.038   1.425  13.971 -0.2835 -0.2105  0.1245
 8500TIP3    H146991   0.079   1.484  14.034  0.1703  1.0089 -1.2281
 8500TIP3    H246992  -0.056   1.440  13.981 -0.3733 -1.6955  2.0104
 8501TIP3   OH246993   3.575   0.073   4.660 -0.1329 -0.0825 -0.3186
 8501TIP3    H146994   3.567   0.145   4.598 -2.9914 -1.4106 -1.6873
 8501TIP3    H246995   3.509   0.090   4.727 -0.2091 -0.9282 -0.1587
 8502TIP3   OH246996   2.499   6.232  12.640 -0.0495  0.0805  0.1355
 8502TIP3    H146997   2.499   6.325  12.663 -0.6433  0.0197  0.4108
 8502TIP3    H246998   2.507   6.187  12.724  0.3353 -0.1155 -0.0062
 8503TIP3   OH246999   1.579   6.536  14.837 -0.3183 -0.2219  0.3075
 8503TIP3    H147000   1.515   6.603  14.810 -0.2632  0.0951  0.9585
 8503TIP3    H247001   1.661   6.565  14.796 -0.5422 -0.5287 -0.3759
 8504TIP3   OH247002   1.238   0.162  11.510 -0.2312 -0.3228  0.2069
 8504TIP3    H147003   1.331   0.146  11.496 -0.4448 -0.5369 -1.0676
 8504TIP3    H247004   1.229   0.257  11.498 -0.3632 -0.4638 -0.9845
 8505TIP3   OH247005   1.792   4.563   5.833  0.2331  0.7856 -0.4614
 8505TIP3    H147006   1.757   4.602   5.913 -1.9845 -0.6795 -0.6086
 8505TIP3    H247007   1.833   4.636   5.787  1.7445  1.6363  2.0366
 8506TIP3   OH247008   5.508   5.337  11.788  0.1703  0.2370 -0.3339
 8506TIP3    H147009   5.589   5.342  11.839 -0.0274  1.7113 -0.1080
 8506TIP3    H247010   5.515   5.409  11.725 -1.2365  0.8125  0.1220
 8507TIP3   OH247011   0.069   4.708   1.625  0.3322 -0.7823 -0.0956
 8507TIP3    H147012   0.079   4.740   1.714  0.4574 -1.4595  0.1412
 8507TIP3    H247013   0.092   4.615   1.630  0.8624 -0.7076 -0.9330
 8508TIP3   OH247014   6.275   0.730  15.765 -0.2420 -0.0788 -0.7885
 8508TIP3    H147015   6.240   0.655  15.717 -0.2874 -0.0426 -0.8121
 8508TIP3    H247016   6.203   0.793  15.767 -0.9984 -0.9178  1.2022
 8509TIP3   OH247017   1.342   1.815  14.664  0.2655  0.4153  0.3598
 8509TIP3    H147018   1.384   1.892  14.701 -0.0138  2.0126 -2.4440
 8509TIP3    H247019   1.249   1.825  14.687  0.3604  0.4301  0.7445
 8510TIP3   OH247020   5.911   3.411   2.076 -0.1544 -0.3784  0.0516
 8510TIP3    H147021   5.974   3.399   2.148  1.5159  1.9590 -0.8877
 8510TIP3    H247022   5.844   3.468   2.113  0.9419  1.2069 -0.2676
 8511TIP3   OH247023   0.356   2.820   3.076 -0.0172 -0.0456 -0.4119
 8511TIP3    H147024   0.293   2.796   3.009  0.5336 -1.8939 -0.3076
 8511TIP3    H247025   0.303   2.852   3.149 -0.9651 -2.4548  0.0461
 8512TIP3   OH247026   1.197   1.387   1.713 -0.3695 -0.2951 -0.0811
 8512TIP3    H147027   1.254   1.378   1.789 -1.3334  0.0300  0.7070
 8512TIP3    H247028   1.113   1.415   1.750 -0.9432 -0.4472 -1.2382
 8513TIP3   OH247029   3.900   2.063  12.743 -0.0816 -0.2070 -0.8263
 8513TIP3    H147030   3.899   2.088  12.835 -0.9813 -0.7997 -0.6537
 8513TIP3    H247031   3.928   2.141  12.696  2.1540 -0.4078  0.0759
 8514TIP3   OH247032   6.352   0.130   0.264  0.2648 -0.0152 -0.6391
 8514TIP3    H147033   6.439   0.094   0.280 -1.0305 -3.1701  0.1340
 8514TIP3    H247034   6.300   0.099   0.337 -1.6809  1.2669 -1.3992
 8515TIP3   OH247035   4.026   0.963   4.072  0.0263 -0.0563 -0.6987
 8515TIP3    H147036   4.077   0.920   4.003  0.2763  0.9665 -1.1628
 8515TIP3    H247037   3.965   0.895   4.102 -0.9857 -0.1720 -2.8327
 8516TIP3   OH247038   1.546   3.425   4.295 -0.3845 -0.3226  0.5081
 8516TIP3    H147039   1.476   3.487   4.273  1.3781  1.6531  0.0063
 8516TIP3    H247040   1.589   3.408   4.211  0.2148 -0.8372  0.9120
 8517TIP3   OH247041   2.532   0.671  12.540  0.2645  0.0703  0.3646
 8517TIP3    H147042   2.535   0.698  12.632  0.8776 -0.2473  0.4407
 8517TIP3    H247043   2.442   0.640  12.528  0.3113 -0.3330  0.9839
 8518TIP3   OH247044   4.665   0.244   1.445  0.3916 -0.2094  0.3297
 8518TIP3    H147045   4.585   0.245   1.394  0.2432 -2.1433  0.4488
 8518TIP3    H247046   4.649   0.306   1.516  1.1635  3.7232 -2.6208
 8519TIP3   OH247047   3.786   0.922   4.894 -0.0560 -0.3111  0.5519
 8519TIP3    H147048   3.764   0.882   4.978  0.4832 -4.0185 -0.8763
 8519TIP3    H247049   3.758   0.857   4.829  1.3532  1.5175 -2.0607
 8520TIP3   OH247050   6.607   2.314   3.880  0.6440 -0.2705 -0.6636
 8520TIP3    H147051   6.564   2.399   3.896  1.7371  0.3028 -0.7114
 8520TIP3    H247052   6.534   2.254   3.864 -0.1501  0.6978 -0.8249
 8521TIP3   OH247053   5.791   5.353   5.172  0.2968 -0.2084  0.4643
 8521TIP3    H147054   5.732   5.409   5.121 -0.4987 -1.0321  0.4645
 8521TIP3    H247055   5.856   5.323   5.110 -0.8129 -1.4145 -0.1466
 8522TIP3   OH247056   3.664   5.055   2.494 -0.1780  0.0849  0.3124
 8522TIP3    H147057   3.739   5.092   2.540 -1.0359 -0.3121  2.1305
 8522TIP3    H247058   3.592   5.116   2.513 -0.2735  0.6550 -1.6971
 8523TIP3   OH247059   6.053   5.510   4.051  0.3817  0.4974  0.3935
 8523TIP3    H147060   6.026   5.458   3.975  0.1799  1.1214  0.0348
 8523TIP3    H247061   5.980   5.570   4.066  0.9746  1.2654  0.2702
 8524TIP3   OH247062   5.807   1.417  16.091 -0.4774  0.1103 -0.1292
 8524TIP3    H147063   5.831   1.380  16.006 -1.3881  0.0883 -0.3830
 8524TIP3    H247064   5.793   1.340  16.147  0.6496  0.1324  0.1970
 8525TIP3   OH247065   5.107   0.364  13.062 -0.7735  0.2702  0.3417
 8525TIP3    H147066   5.014   0.389  13.061 -0.6504  1.0877  2.9067
 8525TIP3    H247067   5.105   0.269  13.060 -1.7950  0.2158  1.7124
 8526TIP3   OH247068   3.118   1.169  14.556  0.5222  0.2574  0.2094
 8526TIP3    H147069   3.065   1.105  14.508 -1.9221  2.1159  0.2931
 8526TIP3    H247070   3.179   1.115  14.607 -1.1572 -1.9925 -0.0128
 8527TIP3   OH247071   6.023   4.489  12.974  0.2493 -0.1428 -0.0196
 8527TIP3    H147072   5.943   4.542  12.974 -1.1735 -2.1551  0.2082
 8527TIP3    H247073   5.991   4.399  12.962  2.5238 -0.9760 -0.1888
 8528TIP3   OH247074   0.377   4.498  12.144 -0.0682 -0.4593  0.2453
 8528TIP3    H147075   0.335   4.499  12.230 -0.9981 -0.2433 -0.1947
 8528TIP3    H247076   0.351   4.581  12.104 -0.5257 -1.0232 -0.6454
 8529TIP3   OH247077   0.097   4.112  15.658 -0.7382  0.2452 -0.1848
 8529TIP3    H147078   0.088   4.142  15.748 -1.2271 -0.5852  0.0420
 8529TIP3    H247079   0.032   4.043  15.648 -1.2430  0.8684 -1.4131
 8530TIP3   OH247080   2.536   3.770   2.040  0.3064 -0.1874  0.0019
 8530TIP3    H147081   2.615   3.731   2.079 -0.4106 -2.8509 -1.0386
 8530TIP3    H247082   2.464   3.720   2.078 -1.0459  2.5697  1.3724
 8531TIP3   OH247083   6.428   3.135  15.772 -0.3594  0.1618  0.1785
 8531TIP3    H147084   6.388   3.222  15.777 -1.0861 -0.2212  1.7248
 8531TIP3    H247085   6.516   3.147  15.808 -0.9744  0.0143  1.8382
 8532TIP3   OH247086   0.024   0.866   6.154 -0.1996  0.1738 -0.2542
 8532TIP3    H147087   0.017   0.833   6.244  0.5970 -0.5951 -0.4634
 8532TIP3    H247088   0.002   0.790   6.100 -1.2883  0.7983 -0.7146
 8533TIP3   OH247089   3.004   1.760  15.726 -0.6045  0.5129 -0.2693
 8533TIP3    H147090   2.963   1.760  15.639 -0.5880  1.3862 -0.2854
 8533TIP3    H247091   2.977   1.678  15.765  0.7223 -0.6982 -1.7312
 8534TIP3   OH247092   3.512   5.402  15.163  0.1868  0.6157 -0.8246
 8534TIP3    H147093   3.598   5.367  15.143  0.0327  0.1558 -0.6999
 8534TIP3    H247094   3.528   5.489  15.199  0.5421  0.9267 -1.7099
 8535TIP3   OH247095   5.719   4.913   1.254  0.1816 -0.3756  0.3559
 8535TIP3    H147096   5.798   4.959   1.282 -1.1356  1.2057  1.6497
 8535TIP3    H247097   5.689   4.962   1.177  0.3271 -0.8776 -0.0339
 8536TIP3   OH247098   2.284   0.216  10.214 -0.2379  0.8250 -0.1286
 8536TIP3    H147099   2.353   0.167  10.260  0.6467  0.7814 -1.4410
 8536TIP3    H247100   2.332   0.267  10.148 -1.2304  2.6964  0.5330
 8537TIP3   OH247101   0.986   4.261   1.102  0.1685 -0.2018  0.1320
 8537TIP3    H147102   0.983   4.237   1.194  0.3560  1.3664  0.5729
 8537TIP3    H247103   0.902   4.303   1.085  0.0384 -0.6931 -0.4873
 8538TIP3   OH247104   3.226   5.896  13.435  0.3079 -0.2102 -0.0233
 8538TIP3    H147105   3.131   5.905  13.442  0.2109  0.0775 -1.4993
 8538TIP3    H247106   3.252   5.965  13.375  1.2373 -1.3391 -0.9563
 8539TIP3   OH247107   5.108   3.517  16.698 -0.1157 -0.0157 -0.0912
 8539TIP3    H147108   5.146   3.442  16.651 -0.6801 -0.7966  0.6711
 8539TIP3    H247109   5.147   3.513  16.785 -0.3888  0.3937  0.0539
 8540TIP3   OH247110   6.499   4.573   5.636 -0.2959 -0.1942 -0.0074
 8540TIP3    H147111   6.521   4.523   5.714  1.2012  0.8111  0.2551
 8540TIP3    H247112   6.410   4.605   5.652 -1.4049 -2.8582 -0.2809
 8541TIP3   OH247113   2.262   1.613  12.749  0.2260  0.3413  0.3580
 8541TIP3    H147114   2.304   1.695  12.726  0.4584  0.1418  0.0617
 8541TIP3    H247115   2.266   1.609  12.844 -0.3738  0.9843  0.4179
 8542TIP3   OH247116   4.814   0.661   4.171 -0.3094  0.5391  0.4594
 8542TIP3    H147117   4.826   0.612   4.090 -1.0999  1.1386 -0.0407
 8542TIP3    H247118   4.903   0.682   4.200  0.3195 -3.6379  2.3002
 8543TIP3   OH247119   4.877   4.208  12.281 -0.4821  0.5357  0.3508
 8543TIP3    H147120   4.896   4.157  12.359 -3.3229  1.1731  1.6222
 8543TIP3    H247121   4.784   4.192  12.265 -0.5468  2.3347 -1.4545
 8544TIP3   OH247122   4.667   1.914   6.210 -0.2271  0.0893 -0.7270
 8544TIP3    H147123   4.597   1.921   6.276 -1.5053 -0.2503 -1.9846
 8544TIP3    H247124   4.738   1.967   6.244 -0.8655 -0.0379  0.9028
 8545TIP3   OH247125   6.463   2.824   0.701  0.1845 -0.1828 -0.4828
 8545TIP3    H147126   6.480   2.873   0.782 -1.2888  0.5520 -0.5748
 8545TIP3    H247127   6.368   2.830   0.690  0.3607 -0.2470 -2.2753
 8546TIP3   OH247128   5.485   2.508   4.908  0.3564 -0.5844  0.0205
 8546TIP3    H147129   5.502   2.602   4.903  0.5343 -0.6626 -0.9867
 8546TIP3    H247130   5.415   2.500   4.973  1.1067  0.1336  0.9566
 8547TIP3   OH247131   4.503   1.018  11.788  0.7576  0.2583  0.2326
 8547TIP3    H147132   4.431   0.959  11.764  0.1529  1.2577 -0.4667
 8547TIP3    H247133   4.492   1.094  11.731  3.1210 -0.1040 -0.8262
 8548TIP3   OH247134   3.424   0.907   5.312 -0.3405 -0.2526  0.2017
 8548TIP3    H147135   3.392   0.948   5.232  0.6678  1.3081  0.5430
 8548TIP3    H247136   3.505   0.863   5.285 -0.8566 -1.1286  0.0537
 8549TIP3   OH247137   3.421   2.388   4.341 -0.2556 -0.0367  0.4492
 8549TIP3    H147138   3.439   2.295   4.332  0.5665  0.2375 -0.9759
 8549TIP3    H247139   3.506   2.428   4.358 -0.3306  0.6390 -0.7056
 8550TIP3   OH247140   0.181   0.282  14.293  0.1028 -0.0515 -0.5029
 8550TIP3    H147141   0.272   0.297  14.270 -0.2660  1.5648 -1.0772
 8550TIP3    H247142   0.162   0.193  14.261  0.5606  0.8266 -3.6181
 8551TIP3   OH247143   6.600   4.949   5.582 -0.2597 -0.5203 -0.3063
 8551TIP3    H147144   6.569   4.914   5.498  1.5694 -0.8225 -0.8859
 8551TIP3    H247145   6.597   5.044   5.572  1.6757 -0.5293 -1.4351
 8552TIP3   OH247146   5.023   3.618   2.922  0.2056 -0.1341  0.1420
 8552TIP3    H147147   5.012   3.537   2.871 -0.0596 -1.0103  1.5458
 8552TIP3    H247148   4.956   3.613   2.989 -1.8622  2.7315 -1.5091
 8553TIP3   OH247149   0.175   1.154  10.777  0.0070  0.4822 -0.2900
 8553TIP3    H147150   0.081   1.142  10.795  0.1289  0.1176  0.1279
 8553TIP3    H247151   0.201   1.074  10.732  0.3348  0.1270  0.5034
 8554TIP3   OH247152   6.542   0.214  16.061 -0.0693  0.1093  0.0033
 8554TIP3    H147153   6.618   0.237  16.114 -0.9724  0.0281  1.3878
 8554TIP3    H247154   6.562   0.126  16.028  0.4598  0.1082  0.3146
 8555TIP3   OH247155   3.236   5.539   5.617  0.1786 -0.1391  0.0380
 8555TIP3    H147156   3.251   5.501   5.703  0.6504  0.2798  0.1439
 8555TIP3    H247157   3.296   5.613   5.612 -0.0739  0.0371 -0.5255
 8556TIP3   OH247158   6.220   4.368  14.658 -0.4225 -0.0818  0.1002
 8556TIP3    H147159   6.228   4.365  14.563  0.2430 -1.0310  0.1731
 8556TIP3    H247160   6.285   4.433  14.686  1.5925 -1.9883  0.0952
 8557TIP3   OH247161   4.854   1.585  13.438 -0.0753 -0.0747  0.6908
 8557TIP3    H147162   4.778   1.631  13.400 -2.0497 -3.3015  0.3499
 8557TIP3    H247163   4.833   1.577  13.531  0.2946 -0.1770  0.7655
 8558TIP3   OH247164   5.204   5.448   6.796 -0.5055 -0.3219 -0.4814
 8558TIP3    H147165   5.252   5.386   6.851 -1.0801  0.3773  0.8736
 8558TIP3    H247166   5.163   5.394   6.729 -0.6720 -1.3782  0.4378
 8559TIP3   OH247167   3.850   3.767   2.463 -0.0671 -0.3039 -0.3360
 8559TIP3    H147168   3.877   3.845   2.512 -0.6067  0.5200 -1.3200
 8559TIP3    H247169   3.873   3.694   2.521  0.0650  0.5922  0.7899
 8560TIP3   OH247170   4.225   1.111  16.681  0.0858 -0.1372 -0.7984
 8560TIP3    H147171   4.219   1.139  16.589 -0.2707  1.0456 -0.4304
 8560TIP3    H247172   4.265   1.024  16.676 -0.9383 -0.5719 -2.1431
 8561TIP3   OH247173   1.456   4.346  16.752  0.6269 -0.0754  0.6381
 8561TIP3    H147174   1.479   4.437  16.736  0.2193 -0.4085 -2.5728
 8561TIP3    H247175   1.540   4.300  16.749  0.5615 -0.1587 -1.4072
 8562TIP3   OH247176   5.477   6.746   0.803  0.3116  0.0926 -0.3446
 8562TIP3    H147177   5.531   6.683   0.754  1.9031  1.7036 -0.7451
 8562TIP3    H247178   5.435   6.798   0.735  0.8229  0.9428 -0.0139
 8563TIP3   OH247179   5.079   2.815  11.013 -0.2056 -0.2897 -0.1744
 8563TIP3    H147180   5.009   2.766  11.057  0.4057  0.7005  2.0268
 8563TIP3    H247181   5.037   2.897  10.987 -0.0752 -0.0145  0.4607
 8564TIP3   OH247182   3.740   3.582   4.337  0.2529  0.9730 -0.2741
 8564TIP3    H147183   3.662   3.530   4.360  1.0128 -0.5017 -0.8914
 8564TIP3    H247184   3.735   3.659   4.394 -0.3938 -0.2764  1.4393
 8565TIP3   OH247185   4.318   4.320  12.343 -0.3762  0.2090 -0.1005
 8565TIP3    H147186   4.319   4.297  12.436  1.1711  1.2518  0.1623
 8565TIP3    H247187   4.335   4.414  12.340  0.2567  0.0867 -1.4630
 8566TIP3   OH247188   0.649   6.119  17.042  0.0360 -0.5600 -0.0662
 8566TIP3    H147189   0.741   6.122  17.069 -0.0019 -0.7885  0.0946
 8566TIP3    H247190   0.623   6.028  17.056 -0.5237 -0.2699  0.9090
 8567TIP3   OH247191   6.785   4.002  13.043 -0.0400  0.0326  0.3096
 8567TIP3    H147192   6.694   4.023  13.022 -0.0770 -1.0301 -0.7108
 8567TIP3    H247193   6.793   4.020  13.137 -1.2739  0.2455  0.3928
 8568TIP3   OH247194   3.781   0.051   1.058  0.7976  0.1151  0.7475
 8568TIP3    H147195   3.708   0.096   1.100  1.0608  0.6048  0.6905
 8568TIP3    H247196   3.840   0.121   1.030  1.7953 -0.3088  1.7132
 8569TIP3   OH247197   6.447   5.654  16.873  0.0598 -0.3405 -0.2021
 8569TIP3    H147198   6.420   5.712  16.944 -0.1286 -1.6729  0.8524
 8569TIP3    H247199   6.527   5.612  16.905  0.8278  0.1472 -1.4113
 8570TIP3   OH247200   2.914   1.772  15.200 -0.1734 -0.8186 -0.5730
 8570TIP3    H147201   2.843   1.835  15.187 -0.4503 -0.9733  0.0924
 8570TIP3    H247202   2.879   1.689  15.166 -0.3884 -0.9326 -0.0901
 8571TIP3   OH247203   4.416   6.507  12.747 -0.5578  0.6738  0.2787
 8571TIP3    H147204   4.367   6.430  12.720  1.0873 -0.9675  1.6934
 8571TIP3    H247205   4.421   6.500  12.842  0.4760  2.0095  0.3586
 8572TIP3   OH247206   3.036   0.006  15.333 -0.4230 -0.4724  0.2594
 8572TIP3    H147207   3.089  -0.063  15.293  0.9024  2.0000 -2.6766
 8572TIP3    H247208   3.083   0.087  15.313 -3.1637  1.5379  1.3038
 8573TIP3   OH247209   3.538   3.424   4.123 -0.2267  0.5262  0.1479
 8573TIP3    H147210   3.444   3.435   4.107 -0.5217 -1.5698  0.2314
 8573TIP3    H247211   3.546   3.339   4.165  1.6830  0.8937  0.6337
 8574TIP3   OH247212   2.308   1.257   0.833  0.1779 -0.2324 -0.0794
 8574TIP3    H147213   2.294   1.339   0.880  0.2295 -0.7765  0.8993
 8574TIP3    H247214   2.403   1.254   0.818  0.3452 -0.7012  0.9967
 8575TIP3   OH247215   0.180   1.194  12.595 -0.0716  0.0087 -0.4953
 8575TIP3    H147216   0.100   1.207  12.645  0.0136 -1.1180 -0.0368
 8575TIP3    H247217   0.218   1.281  12.585 -1.5139  0.5945 -0.9930
 8576TIP3   OH247218   3.596   3.628   3.305  0.2535 -0.7360  0.6172
 8576TIP3    H147219   3.636   3.550   3.344 -0.1919 -1.6581 -0.7153
 8576TIP3    H247220   3.633   3.701   3.355  2.4850 -1.6399  0.3997
 8577TIP3   OH247221   6.824   0.693  12.190 -0.1631 -0.4740  0.2571
 8577TIP3    H147222   6.893   0.680  12.254 -0.1735  0.8332  0.5605
 8577TIP3    H247223   6.850   0.640  12.114  0.6308 -0.8004  0.7554
 8578TIP3   OH247224   2.512   4.883  12.689 -0.1930 -0.1508  0.1172
 8578TIP3    H147225   2.505   4.889  12.594  2.5160  1.1331 -0.1059
 8578TIP3    H247226   2.560   4.802  12.705  0.9231  0.5124  0.2305
 8579TIP3   OH247227   0.151   4.411   3.524  0.2880  0.0708 -0.5900
 8579TIP3    H147228   0.160   4.427   3.430  0.4570  0.0730 -0.5724
 8579TIP3    H247229   0.175   4.494   3.565  1.8229 -0.4139 -0.4656
 8580TIP3   OH247230   4.802   0.513   2.564  0.4801  0.0669  0.6656
 8580TIP3    H147231   4.864   0.443   2.584 -1.5370 -1.5473  1.5571
 8580TIP3    H247232   4.802   0.568   2.642  0.0371 -0.5229  1.0881
 8581TIP3   OH247233   3.587   0.858   5.763 -0.2884 -0.0601  0.2079
 8581TIP3    H147234   3.628   0.797   5.701 -0.6052 -0.4580  0.3871
 8581TIP3    H247235   3.521   0.904   5.711  2.8317  3.3516 -1.1305
 8582TIP3   OH247236   5.663   5.157   0.214  0.4144 -0.0285 -0.1294
 8582TIP3    H147237   5.579   5.110   0.213 -0.4389  1.3392 -2.3747
 8582TIP3    H247238   5.713   5.115   0.283 -1.4463 -2.1141  0.0883
 8583TIP3   OH247239   4.613   1.288   2.786 -0.1760 -0.0941  0.2283
 8583TIP3    H147240   4.577   1.376   2.801  0.7820  0.2099  0.8198
 8583TIP3    H247241   4.597   1.242   2.869 -1.2530 -0.7024 -0.2937
 8584TIP3   OH247242   2.033   6.563  14.910  0.0862 -0.1014 -0.0657
 8584TIP3    H147243   2.068   6.560  14.999  2.0082 -0.5574 -0.7985
 8584TIP3    H247244   2.088   6.627  14.864  1.3295 -2.2620 -1.7720
 8585TIP3   OH247245   2.481   5.196  12.582 -0.0615 -0.0235  0.1486
 8585TIP3    H147246   2.400   5.159  12.547 -1.2676  0.9339  1.7980
 8585TIP3    H247247   2.537   5.120  12.596 -1.0237 -0.8085 -0.1290
 8586TIP3   OH247248   3.576   0.489   3.597  0.1396  0.3044  0.7716
 8586TIP3    H147249   3.508   0.422   3.600 -0.8594  1.2931  0.4638
 8586TIP3    H247250   3.641   0.459   3.661  0.6041 -1.8649 -0.6122
 8587TIP3   OH247251   0.986   2.963  13.344 -0.0089 -0.0939  0.1379
 8587TIP3    H147252   0.923   3.029  13.371 -0.2186 -0.5559  0.7980
 8587TIP3    H247253   1.030   2.937  13.425  0.4893 -0.3316 -0.2039
 8588TIP3   OH247254   6.736   6.441   2.176 -0.2421  0.2851 -0.2240
 8588TIP3    H147255   6.683   6.361   2.177  0.6742 -0.3712  1.5412
 8588TIP3    H247256   6.812   6.420   2.123 -0.6282  0.4444 -0.8475
 8589TIP3   OH247257   0.780   1.669   5.643 -0.0368 -0.5778 -0.2901
 8589TIP3    H147258   0.767   1.749   5.694 -1.2906 -1.7591  1.3558
 8589TIP3    H247259   0.764   1.695   5.553  2.6408  1.6869 -0.2516
 8590TIP3   OH247260   6.060   3.926  15.906 -0.5986  0.0397 -0.0290
 8590TIP3    H147261   6.086   3.835  15.916  2.2493  0.6985 -0.4099
 8590TIP3    H247262   6.137   3.976  15.934 -0.7309  2.2498 -3.0067
 8591TIP3   OH247263   0.656   6.315  15.466  0.8730 -0.1828  0.1230
 8591TIP3    H147264   0.657   6.220  15.478  1.4371 -0.3216 -0.8623
 8591TIP3    H247265   0.646   6.327  15.371 -0.3851  0.7609  0.3490
 8592TIP3   OH247266   4.804   2.518   5.145  0.2398  0.2795  0.0301
 8592TIP3    H147267   4.740   2.551   5.208  0.9533  1.4617  0.1556
 8592TIP3    H247268   4.872   2.479   5.198  0.4434  0.5386 -0.0408
 8593TIP3   OH247269   4.858   4.166   6.009 -0.5544 -0.0385 -0.2420
 8593TIP3    H147270   4.874   4.082   6.051 -2.0545 -0.3191 -0.1982
 8593TIP3    H247271   4.918   4.226   6.053  1.0317 -1.1806 -0.7374
 8594TIP3   OH247272   4.233   5.045   5.456  0.6733 -0.0275  0.3314
 8594TIP3    H147273   4.284   4.969   5.428  0.9868  0.1211  0.4932
 8594TIP3    H247274   4.289   5.120   5.437  1.4830  0.0113  2.5422
 8595TIP3   OH247275   2.905   3.136   4.904 -0.4098 -0.5726  0.0293
 8595TIP3    H147276   2.853   3.070   4.858  0.4037 -0.5967 -0.8735
 8595TIP3    H247277   2.884   3.218   4.860  1.8212 -0.8589 -1.7312
 8596TIP3   OH247278   5.689   3.056  11.567  0.1448  0.1821 -0.1789
 8596TIP3    H147279   5.679   2.962  11.551 -1.8453 -0.0232  1.7488
 8596TIP3    H247280   5.715   3.062  11.659 -3.2655  1.5087  0.8409
 8597TIP3   OH247281   2.935   5.227  13.251  0.4211  0.1487 -0.1735
 8597TIP3    H147282   3.013   5.274  13.221  0.7685 -0.1363  0.2597
 8597TIP3    H247283   2.866   5.293  13.255  0.8135  0.5469  0.0863
 8598TIP3   OH247284   2.451   2.701  15.482  0.2688 -0.1412  0.2349
 8598TIP3    H147285   2.428   2.784  15.440 -0.4086 -0.7951 -0.7362
 8598TIP3    H247286   2.547   2.698  15.480  0.2514 -0.1546 -1.2965
 8599TIP3   OH247287   1.240   1.008   4.600  0.6284 -0.3909  0.2094
 8599TIP3    H147288   1.167   0.964   4.557  1.1522 -0.1049 -1.0249
 8599TIP3    H247289   1.245   0.967   4.686  0.0282 -1.5384 -0.2732
 8600TIP3   OH247290   1.310   4.808   1.915 -0.3340  0.2134 -0.0005
 8600TIP3    H147291   1.304   4.859   1.834  0.8633  0.5477  0.1119
 8600TIP3    H247292   1.295   4.718   1.887  1.2765  0.1711 -0.8110
 8601TIP3   OH247293   3.088   6.606   3.589 -0.4544 -0.4407 -0.1344
 8601TIP3    H147294   3.126   6.669   3.651 -2.2549 -1.1128  1.7446
 8601TIP3    H247295   3.092   6.651   3.505  0.2967  1.3128  0.7817
 8602TIP3   OH247296   2.861   2.349  11.680  0.4540  0.0702 -0.4410
 8602TIP3    H147297   2.888   2.413  11.613  1.4287  0.1881  0.0423
 8602TIP3    H247298   2.877   2.264  11.639 -0.0830  0.1308 -0.7901
 8603TIP3   OH247299   1.416   0.685   4.026 -0.2241  0.3047 -0.3785
 8603TIP3    H147300   1.388   0.749   3.960 -0.4687 -1.4930 -2.1190
 8603TIP3    H247301   1.511   0.696   4.032 -0.1739  0.3626 -1.1947
 8604TIP3   OH247302   0.372   1.298  11.944 -0.5559 -0.0400 -0.0276
 8604TIP3    H147303   0.466   1.286  11.958 -0.7065 -0.8814  0.3277
 8604TIP3    H247304   0.345   1.356  12.015 -0.5969 -1.1495  0.8930
 8605TIP3   OH247305   6.362   3.703   1.564  0.6635 -0.3227 -0.0694
 8605TIP3    H147306   6.453   3.732   1.556  0.1552  1.2479 -0.5155
 8605TIP3    H247307   6.334   3.734   1.650 -0.4133  2.2343 -1.2343
 8606TIP3   OH247308   3.822   2.321  15.183 -0.5444  0.5491  0.5774
 8606TIP3    H147309   3.800   2.238  15.224 -0.6515  0.7296  0.8913
 8606TIP3    H247310   3.763   2.328  15.108  2.0642 -1.5175 -1.9062
 8607TIP3   OH247311   5.861   0.896   5.000 -0.3331  0.1617 -0.2256
 8607TIP3    H147312   5.918   0.860   5.069 -2.0515 -0.1569  1.0823
 8607TIP3    H247313   5.898   0.982   4.981  1.1538 -0.4232 -0.1349
 8608TIP3   OH247314   5.143   0.608   0.597 -0.2697 -0.2353 -0.4902
 8608TIP3    H147315   5.197   0.678   0.558 -0.8853 -0.1418 -1.2071
 8608TIP3    H247316   5.100   0.650   0.672  1.9231 -0.7585  1.1565
 8609TIP3   OH247317   2.355   3.029  15.486  0.2011  0.6128  0.0993
 8609TIP3    H147318   2.448   3.049  15.477 -0.4925  3.3275 -2.4289
 8609TIP3    H247319   2.332   2.987  15.403 -0.4709 -2.1895  1.5881
 8610TIP3   OH247320   2.114   0.524  13.779  0.0339 -0.1374 -0.4239
 8610TIP3    H147321   2.167   0.564  13.848  0.0621 -1.4920  0.3696
 8610TIP3    H247322   2.042   0.482  13.826 -1.5429  1.2871 -1.4497
 8611TIP3   OH247323   2.503   6.312  12.248 -0.2405 -0.0824  0.8443
 8611TIP3    H147324   2.432   6.290  12.187 -0.8010  1.8410  0.7388
 8611TIP3    H247325   2.473   6.391  12.293  2.1859  1.3946  0.1134
 8612TIP3   OH247326   3.989   4.489   2.644 -0.0150 -0.2029  0.3184
 8612TIP3    H147327   4.066   4.468   2.592  1.7109 -0.3907  2.7910
 8612TIP3    H247328   4.008   4.574   2.683 -0.6065 -0.6815  1.7233
 8613TIP3   OH247329   3.837   2.307   5.353  0.3514 -0.2791 -0.2478
 8613TIP3    H147330   3.752   2.263   5.348 -0.4547  1.0554  0.8434
 8613TIP3    H247331   3.837   2.348   5.440  2.2507 -0.4941 -0.1101
 8614TIP3   OH247332   5.992   0.220  15.957 -0.7144  0.4055 -0.0426
 8614TIP3    H147333   6.005   0.151  15.891  1.9953 -1.0479  1.8243
 8614TIP3    H247334   5.927   0.183  16.017  0.2877 -0.3559  0.6186
 8615TIP3   OH247335   5.275   0.118   2.339 -0.5957  0.5609 -0.0683
 8615TIP3    H147336   5.183   0.111   2.314 -0.8536  1.6921  0.5357
 8615TIP3    H247337   5.323   0.093   2.260 -1.3793 -2.3842  0.2720
 8616TIP3   OH247338   2.599   4.958   0.781 -0.2086 -0.3368  0.8383
 8616TIP3    H147339   2.640   4.959   0.867  1.0283 -2.0959  0.3435
 8616TIP3    H247340   2.672   4.966   0.720 -0.7894 -1.4068 -0.0494
 8617TIP3   OH247341   1.062   2.889  16.154 -0.1161  0.1450  0.2031
 8617TIP3    H147342   0.994   2.912  16.091 -0.0393 -0.5560 -0.1504
 8617TIP3    H247343   1.019   2.895  16.239 -0.2546  0.9791  0.0790
 8618TIP3   OH247344   4.218   2.728   0.825  0.1811  0.3685 -0.2705
 8618TIP3    H147345   4.274   2.700   0.898 -0.3744  2.4269  1.0026
 8618TIP3    H247346   4.129   2.713   0.856 -0.0630  1.3991 -0.4665
 8619TIP3   OH247347   6.724   0.037  12.107  0.1732 -0.0649 -0.5529
 8619TIP3    H147348   6.715   0.093  12.030  1.6375 -0.8194 -1.3179
 8619TIP3    H247349   6.703  -0.051  12.075 -0.1251 -0.2641  0.1560
 8620TIP3   OH247350   4.289   3.181   0.921  0.1612  0.4679  0.2278
 8620TIP3    H147351   4.272   3.256   0.978 -1.1574  0.9865 -0.7786
 8620TIP3    H247352   4.223   3.116   0.947  0.2385  0.3024  0.0171
 8621TIP3   OH247353   5.514   4.518   1.150  0.3311  0.1471  0.3677
 8621TIP3    H147354   5.494   4.516   1.056 -0.0858  1.8736  0.3777
 8621TIP3    H247355   5.439   4.476   1.192 -0.6519  1.5160  0.0496
 8622TIP3   OH247356   5.429   2.460  12.544  0.5238  0.6123 -0.3213
 8622TIP3    H147357   5.448   2.419  12.459  0.8229 -1.7096  0.7656
 8622TIP3    H247358   5.400   2.387  12.599  2.4030  1.6194  2.1862
 8623TIP3   OH247359   0.141   3.717   3.516 -0.2259  0.2889  0.2461
 8623TIP3    H147360   0.167   3.804   3.545  2.0660 -0.3117  0.1428
 8623TIP3    H247361   0.199   3.697   3.443 -1.8420 -0.6803 -0.8400
 8624TIP3   OH247362   2.287   2.776  16.252  0.7602 -0.0713 -0.2634
 8624TIP3    H147363   2.277   2.858  16.202  1.8080 -0.0361 -0.4356
 8624TIP3    H247364   2.212   2.723  16.225 -0.5727  1.2434  0.6862
 8625TIP3   OH247365   4.812   6.190  15.516 -0.4553 -0.2525 -0.2067
 8625TIP3    H147366   4.744   6.185  15.449  0.7521 -1.2824 -1.4064
 8625TIP3    H247367   4.868   6.262  15.488 -0.2135 -0.3736 -0.0367
 8626TIP3   OH247368   5.240   4.612   3.188 -0.1002 -0.4392 -0.1175
 8626TIP3    H147369   5.258   4.706   3.193  0.2324 -0.4533 -0.9664
 8626TIP3    H247370   5.307   4.578   3.129 -0.4703 -1.1436 -0.1362
 8627TIP3   OH247371   0.207   1.006   0.606  0.2064  0.1550 -0.7114
 8627TIP3    H147372   0.278   0.971   0.551  0.3222 -0.4421 -0.1924
 8627TIP3    H247373   0.248   1.022   0.691 -0.2057  0.1357 -0.5087
 8628TIP3   OH247374   6.066   1.225   4.773 -0.5924  0.6482  0.0576
 8628TIP3    H147375   5.971   1.227   4.785 -0.8363 -0.9598 -1.1943
 8628TIP3    H247376   6.101   1.198   4.858 -1.1845  1.7067  0.6658
 8629TIP3   OH247377   0.955   5.426  12.289 -0.2560 -0.0286 -0.5089
 8629TIP3    H147378   0.865   5.417  12.257 -0.9163  0.5206  1.1001
 8629TIP3    H247379   0.946   5.460  12.378  1.5857  1.3401 -0.7710
 8630TIP3   OH247380   2.643   5.159   3.607  0.0628 -0.3088 -0.2217
 8630TIP3    H147381   2.700   5.106   3.551 -1.4785 -1.5395 -0.7276
 8630TIP3    H247382   2.598   5.218   3.546  0.9738  0.8738  0.2102
 8631TIP3   OH247383   1.037   1.793   0.466  0.1068  0.1765 -0.4672
 8631TIP3    H147384   0.998   1.870   0.507  1.6758  0.5783  0.3574
 8631TIP3    H247385   0.988   1.781   0.384 -1.5819  0.7285  0.4328
 8632TIP3   OH247386   6.787   3.494  12.006 -0.0959  0.8244 -0.2695
 8632TIP3    H147387   6.805   3.414  11.957 -0.7111 -0.5254  1.5859
 8632TIP3    H247388   6.695   3.488  12.029  0.6282  0.1617  2.9966
 8633TIP3   OH247389   0.719   4.381  11.622  0.2652  0.0943  0.2385
 8633TIP3    H147390   0.796   4.438  11.622 -1.1370  2.0635  0.4622
 8633TIP3    H247391   0.680   4.391  11.535 -0.8090  0.6590  0.7644
 8634TIP3   OH247392   6.102   0.615   0.431 -0.4179  0.3638 -0.0739
 8634TIP3    H147393   6.099   0.692   0.488 -0.6377 -0.7408  1.4574
 8634TIP3    H247394   6.181   0.569   0.457  0.5617  0.7982 -2.0344
 8635TIP3   OH247395   3.452   6.449   1.356 -0.1215 -0.4067 -0.1272
 8635TIP3    H147396   3.535   6.441   1.402 -0.9193 -0.4219  1.3873
 8635TIP3    H247397   3.464   6.522   1.296  1.2565 -0.9951 -0.6017
 8636TIP3   OH247398   3.490   4.216   1.564 -0.2638  0.3634  0.4094
 8636TIP3    H147399   3.431   4.165   1.619 -0.6269 -0.6926 -0.9264
 8636TIP3    H247400   3.574   4.215   1.610 -0.1906 -1.6786  0.2992
 8637TIP3   OH247401   2.358   5.549   1.047  0.0404  0.0626  0.4966
 8637TIP3    H147402   2.376   5.557   0.953  1.0695  1.5521  0.7857
 8637TIP3    H247403   2.263   5.551   1.053 -0.0869 -1.2835 -0.5933
 8638TIP3   OH247404   3.935   2.358  13.907  0.1131  0.5494 -0.1445
 8638TIP3    H147405   3.906   2.357  13.816 -0.7655  0.1226  0.1331
 8638TIP3    H247406   3.944   2.451  13.928 -2.9380  0.8495  0.3221
 8639TIP3   OH247407   6.628   3.193  10.505 -0.7677 -0.3164  0.0997
 8639TIP3    H147408   6.549   3.215  10.456  0.7832 -1.5686 -3.3111
 8639TIP3    H247409   6.610   3.107  10.543 -1.3503 -0.1731  0.1618
 8640TIP3   OH247410   2.291   5.505  17.139 -0.1384 -0.2793  0.1256
 8640TIP3    H147411   2.289   5.568  17.067 -1.1729 -2.1207 -1.5810
 8640TIP3    H247412   2.334   5.428  17.102 -0.2399 -1.1168  1.6502
 8641TIP3   OH247413   0.690   1.996   6.003 -0.0705 -0.2216 -0.1512
 8641TIP3    H147414   0.627   1.925   6.010 -1.9724  1.2876 -0.9725
 8641TIP3    H247415   0.724   2.007   6.092 -0.7483 -1.2430  0.2540
 8642TIP3   OH247416   5.710   4.577   5.017  0.5513 -0.2171  0.3689
 8642TIP3    H147417   5.757   4.496   5.038 -0.0797 -1.4975 -2.6440
 8642TIP3    H247418   5.779   4.641   5.000  1.2026 -1.2816 -1.1840
 8643TIP3   OH247419   1.152   2.901  12.423  0.1449  0.4674 -0.5340
 8643TIP3    H147420   1.197   2.980  12.452  0.9716 -0.5184  0.9987
 8643TIP3    H247421   1.060   2.926  12.416  0.3913  1.5545 -0.0570
 8644TIP3   OH247422   2.387   0.321  11.938  0.1087  0.4685  0.4871
 8644TIP3    H147423   2.306   0.285  11.973  0.3170  0.1151  0.6179
 8644TIP3    H247424   2.456   0.280  11.990  0.2940  3.5939  2.9785
 8645TIP3   OH247425   1.301   1.196  12.263  0.6256  0.3887  0.0863
 8645TIP3    H147426   1.365   1.232  12.202  0.6305 -2.1443 -1.5402
 8645TIP3    H247427   1.297   1.103  12.242 -1.9884  0.0440  1.6408
 8646TIP3   OH247428   1.807   4.523   4.881 -1.5350 -0.3563  0.1123
 8646TIP3    H147429   1.812   4.446   4.825 -0.5998  0.4391 -0.9311
 8646TIP3    H247430   1.885   4.517   4.937 -1.7942 -0.4809  0.4686
 8647TIP3   OH247431   3.747   1.701   4.354 -0.1092 -0.0245  0.2768
 8647TIP3    H147432   3.731   1.792   4.379  1.4853  0.2871  0.2598
 8647TIP3    H247433   3.662   1.657   4.367 -0.5906  1.1868  1.4435
 8648TIP3   OH247434   1.899   4.968  11.240 -0.2507 -0.4647  0.0907
 8648TIP3    H147435   1.912   5.005  11.153 -1.1385  0.8452  0.4811
 8648TIP3    H247436   1.805   4.954  11.246 -0.0374 -1.9893  0.3055
 8649TIP3   OH247437   6.566   4.628   1.563  0.5992 -0.0742 -0.0420
 8649TIP3    H147438   6.476   4.657   1.572  0.1932 -1.8090  2.7210
 8649TIP3    H247439   6.613   4.703   1.526 -1.8684  0.9642 -1.2428
 8650TIP3   OH247440   4.071   1.092   3.771  0.2482  0.2974 -0.0402
 8650TIP3    H147441   4.086   1.169   3.825  1.1303  0.3643 -0.3619
 8650TIP3    H247442   4.102   1.118   3.684 -0.4812 -0.0471 -0.4047
 8651TIP3   OH247443   5.278   3.608   5.592 -0.2757  0.4042  0.5817
 8651TIP3    H147444   5.259   3.626   5.500  0.3957 -1.6728 -0.0147
 8651TIP3    H247445   5.373   3.619   5.599 -0.2451 -0.0501  0.8743
 8652TIP3   OH247446   6.771   3.259   2.304 -0.0667 -0.0700 -0.4230
 8652TIP3    H147447   6.818   3.312   2.369 -2.7280  1.5654  0.2895
 8652TIP3    H247448   6.788   3.303   2.221 -1.6548  1.6045  0.0674
 8653TIP3   OH247449   1.413   2.790  13.249 -0.0595 -0.3024  0.5491
 8653TIP3    H147450   1.468   2.743  13.311  1.4943  1.2522  0.4257
 8653TIP3    H247451   1.399   2.728  13.177  0.7211 -1.0400  1.0179
 8654TIP3   OH247452   6.226   4.465  13.165  0.1209 -0.1582 -0.1570
 8654TIP3    H147453   6.173   4.496  13.091  0.9548 -1.8759 -1.5532
 8654TIP3    H247454   6.164   4.456  13.237 -0.9334  0.5571 -0.9431
 8655TIP3   OH247455   2.528   5.051   3.158 -0.2060  0.0389  0.1639
 8655TIP3    H147456   2.466   5.091   3.097  0.7182  0.9534 -0.1834
 8655TIP3    H247457   2.521   5.104   3.238 -1.3396 -1.0936  0.8663
 8656TIP3   OH247458   6.178   1.398   2.040  0.3758 -0.3720 -0.6907
 8656TIP3    H147459   6.110   1.434   1.981 -0.7038  0.6397  1.0876
 8656TIP3    H247460   6.129   1.359   2.112  1.6661  0.8725  0.9274
 8657TIP3   OH247461   0.619   1.745   4.010  0.0476  0.1700  0.6697
 8657TIP3    H147462   0.552   1.697   4.059 -0.8536 -0.8680 -1.4375
 8657TIP3    H247463   0.576   1.828   3.988 -0.5048 -0.3883 -0.4542
 8658TIP3   OH247464   3.775   0.599   1.497  0.6137  0.9982  0.1125
 8658TIP3    H147465   3.681   0.584   1.485  0.4660  0.4426  1.6879
 8658TIP3    H247466   3.815   0.514   1.476  0.6874  1.0057  0.2256
 8659TIP3   OH247467   6.544   6.728  12.735 -1.1159  0.2464  0.1975
 8659TIP3    H147468   6.571   6.638  12.752 -1.2704  0.0314 -0.6405
 8659TIP3    H247469   6.618   6.782  12.766  0.5727 -0.3422 -2.4912
 8660TIP3   OH247470   4.838   4.609   0.822  0.1868 -0.1848  0.4417
 8660TIP3    H147471   4.820   4.537   0.883  1.2553 -0.3506  0.5773
 8660TIP3    H247472   4.752   4.630   0.784  0.0441 -2.6340 -0.8260
 8661TIP3   OH247473   5.896   4.684   3.740 -0.6725  0.1666 -0.0968
 8661TIP3    H147474   5.811   4.642   3.727 -0.8721  0.3542  0.5955
 8661TIP3    H247475   5.959   4.624   3.701 -1.2118  0.5367 -1.6390
 8662TIP3   OH247476   4.473   4.946  16.582 -0.2473 -0.1046  0.0988
 8662TIP3    H147477   4.565   4.919  16.590 -0.0759  0.6430  0.8458
 8662TIP3    H247478   4.424   4.876  16.624 -0.0129 -0.4735 -0.2361
 8663TIP3   OH247479   4.600   6.418   4.740  0.1251  0.7242  0.6563
 8663TIP3    H147480   4.646   6.334   4.738  0.6219  0.9255 -2.7770
 8663TIP3    H247481   4.559   6.421   4.826  1.6840 -2.1387  1.6372
 8664TIP3   OH247482   4.010   1.362  15.389  0.3383  0.1538  0.1323
 8664TIP3    H147483   3.974   1.425  15.452 -0.2383 -1.2718  1.2827
 8664TIP3    H247484   4.031   1.285  15.441  0.7361 -0.7425 -1.2879
 8665TIP3   OH247485   3.208   1.296   0.438  0.1150  0.0280 -0.3644
 8665TIP3    H147486   3.216   1.258   0.350 -0.8113 -0.4334 -0.2530
 8665TIP3    H247487   3.150   1.236   0.485 -0.6059  1.0687  0.1028
 8666TIP3   OH247488   0.785   0.572   1.770  0.2118 -0.9313 -0.6332
 8666TIP3    H147489   0.877   0.545   1.767  0.3183 -0.6036 -0.3349
 8666TIP3    H247490   0.771   0.601   1.860  0.3584  0.8916 -1.1642
 8667TIP3   OH247491   2.924   3.251   0.314  0.2257  0.2943  0.1214
 8667TIP3    H147492   2.854   3.225   0.254 -0.6671  1.5518  0.5618
 8667TIP3    H247493   2.993   3.285   0.258 -0.8153  1.9565 -0.2218
 8668TIP3   OH247494   0.794   0.613  11.582 -0.3933 -0.1569 -0.1721
 8668TIP3    H147495   0.841   0.694  11.564  0.1601 -0.4002  0.1571
 8668TIP3    H247496   0.752   0.591  11.499  3.4566 -2.1432 -1.8504
 8669TIP3   OH247497   4.341   5.246  12.724 -0.1829 -0.4628 -0.1367
 8669TIP3    H147498   4.325   5.327  12.773 -1.1807 -0.8447  0.1807
 8669TIP3    H247499   4.310   5.176  12.781  2.2272 -1.2557  0.3397
 8670TIP3   OH247500   4.761   4.134  15.241  0.1718  0.4523 -0.0089
 8670TIP3    H147501   4.756   4.177  15.326 -0.6596 -1.7352  1.1304
 8670TIP3    H247502   4.748   4.041  15.260 -2.3706  0.0702 -2.7394
 8671TIP3   OH247503   0.543   1.942   4.932  0.7022 -0.1284 -0.2857
 8671TIP3    H147504   0.523   2.026   4.892 -1.3058 -0.7575 -0.7075
 8671TIP3    H247505   0.560   1.962   5.024 -3.1090  0.4506  0.4371
 8672TIP3   OH247506   2.935   5.643  11.793  0.1859 -0.2611  0.1864
 8672TIP3    H147507   2.963   5.664  11.704 -0.5344  0.4842  0.1239
 8672TIP3    H247508   2.881   5.718  11.820  1.7897  0.3726  1.9001
 8673TIP3   OH247509   6.462   0.952  17.040  0.4222  0.1787  0.1746
 8673TIP3    H147510   6.473   1.005  16.961  1.5343 -0.0841  0.1406
 8673TIP3    H247511   6.459   1.015  17.111  0.3988  0.3614  0.0128
 8674TIP3   OH247512   6.609   1.324  14.852  0.1432 -0.5444  0.2957
 8674TIP3    H147513   6.545   1.396  14.855  0.2870 -0.4352  0.8280
 8674TIP3    H247514   6.556   1.246  14.865 -0.0797 -0.5850 -0.7607
 8675TIP3   OH247515   4.531   0.678   0.733 -0.7015  0.4574  0.0600
 8675TIP3    H147516   4.578   0.755   0.765 -0.0494  0.3540 -0.6172
 8675TIP3    H247517   4.533   0.617   0.806  1.4698 -0.0898 -0.3823
 8676TIP3   OH247518   5.444   0.418  15.485  0.0807 -0.2280  0.1821
 8676TIP3    H147519   5.419   0.506  15.513 -2.0804 -0.5638 -0.4813
 8676TIP3    H247520   5.462   0.427  15.391 -2.1733 -0.7940 -0.3656
 8677TIP3   OH247521   1.008   5.032  15.346  0.1476  0.1338 -0.4940
 8677TIP3    H147522   0.987   4.980  15.268  0.4242 -0.0986 -0.4141
 8677TIP3    H247523   0.949   5.107  15.341  0.9904  0.7632 -1.5973
 8678TIP3   OH247524   0.045   0.756   6.410 -0.3910  0.1265  0.1718
 8678TIP3    H147525   0.137   0.740   6.430 -0.6884  0.1924  1.7544
 8678TIP3    H247526   0.005   0.775   6.495 -1.9287 -0.2021 -0.4430
 8679TIP3   OH247527   3.031   2.800  11.768  0.0641 -0.2010  0.0085
 8679TIP3    H147528   3.110   2.756  11.802 -0.3467  0.1223  1.4392
 8679TIP3    H247529   3.052   2.893  11.772 -0.0644 -0.1470 -0.4863
 8680TIP3   OH247530   5.949   0.654   5.887  0.0244  0.0299 -0.2702
 8680TIP3    H147531   5.904   0.735   5.909 -0.3537 -0.1735 -0.2954
 8680TIP3    H247532   5.977   0.666   5.796  0.0284  0.1568 -0.2524
 8681TIP3   OH247533   6.142   5.895  17.027 -0.1425 -0.1470  0.0247
 8681TIP3    H147534   6.111   5.945  16.952  1.3519  0.3871 -0.2733
 8681TIP3    H247535   6.188   5.960  17.081 -0.7021 -0.6397  1.1056
 8682TIP3   OH247536   4.258   2.355  16.360 -0.8893 -0.6449  0.1176
 8682TIP3    H147537   4.284   2.436  16.316 -1.0395 -0.7166 -0.1002
 8682TIP3    H247538   4.335   2.330  16.411 -1.0405 -0.0354  0.6703
 8683TIP3   OH247539   1.764   1.008  13.125 -0.2475  0.1308 -0.0935
 8683TIP3    H147540   1.752   1.052  13.209  0.3632 -1.2500  0.7634
 8683TIP3    H247541   1.846   0.960  13.135  0.4367  0.8455 -1.9145
 8684TIP3   OH247542   2.671   4.575   2.415 -0.6257 -0.0109  0.3115
 8684TIP3    H147543   2.674   4.479   2.411 -0.6338  0.0076 -0.1529
 8684TIP3    H247544   2.582   4.595   2.445 -0.4478 -0.1624  0.9587
 8685TIP3   OH247545   6.347   2.523  14.207 -0.7981  0.0650 -0.1307
 8685TIP3    H147546   6.388   2.436  14.209 -1.0335 -0.0757  2.1330
 8685TIP3    H247547   6.256   2.506  14.234 -2.1544  0.5177 -3.9201
 8686TIP3   OH247548   2.509   2.628   5.355  0.3017 -0.0002  0.3439
 8686TIP3    H147549   2.506   2.541   5.394 -0.2959 -0.0709  0.1395
 8686TIP3    H247550   2.601   2.655   5.365  0.2002 -0.0713  1.6693
 8687TIP3   OH247551   6.824   0.377  13.430 -0.0306 -0.0878  0.1947
 8687TIP3    H147552   6.892   0.316  13.459 -0.3484 -0.5505 -0.0069
 8687TIP3    H247553   6.856   0.413  13.347 -0.2474 -0.6890 -0.1605
 8688TIP3   OH247554   5.053   3.431  12.983 -0.5301 -0.0111 -0.4419
 8688TIP3    H147555   4.970   3.438  13.029 -0.3478  0.3705 -0.1667
 8688TIP3    H247556   5.110   3.383  13.043 -0.8103 -1.0688 -0.9988
 8689TIP3   OH247557   0.504   4.903  11.993  0.6456 -0.4023  0.1105
 8689TIP3    H147558   0.443   4.933  11.925  0.1167 -1.7792 -0.0474
 8689TIP3    H247559   0.451   4.847  12.049  1.7222 -1.4905  0.0793
 8690TIP3   OH247560   3.854   4.911  11.174 -0.1605 -0.6825 -0.0386
 8690TIP3    H147561   3.943   4.944  11.185 -0.3039 -0.4489  0.4547
 8690TIP3    H247562   3.865   4.820  11.149  0.2709 -0.0183 -2.5055
 8691TIP3   OH247563   3.974   1.196   2.863  1.1079  0.2504 -0.7989
 8691TIP3    H147564   4.040   1.254   2.826  2.2720  0.0152  0.8151
 8691TIP3    H247565   4.011   1.166   2.946 -0.3139 -1.2294 -0.6352
 8692TIP3   OH247566   2.047   3.667   2.704 -0.3161 -0.5098  0.6453
 8692TIP3    H147567   2.071   3.732   2.770 -2.4830 -1.4394  2.5128
 8692TIP3    H247568   2.016   3.718   2.629  2.5847  0.5852  0.0648
 8693TIP3   OH247569   5.738   0.020   4.345 -0.0467  0.0736  0.0510
 8693TIP3    H147570   5.724   0.044   4.254 -3.3248 -2.3195 -0.2258
 8693TIP3    H247571   5.752  -0.075   4.344  1.6288  0.2168  1.9358
 8694TIP3   OH247572   0.776   0.779   2.304  0.5210 -0.2841  0.0914
 8694TIP3    H147573   0.699   0.721   2.304  0.8100 -0.6725  0.0980
 8694TIP3    H247574   0.788   0.803   2.213 -1.4604  2.2913  0.3841
 8695TIP3   OH247575   5.391   4.651  13.830 -0.5854 -0.3573 -0.1736
 8695TIP3    H147576   5.315   4.656  13.889  0.4217  2.1019  1.0596
 8695TIP3    H247577   5.364   4.699  13.752 -0.4252  0.1880  0.1063
 8696TIP3   OH247578   5.458   3.741   5.144  0.0989 -0.2966  0.4840
 8696TIP3    H147579   5.521   3.676   5.175  1.5009  0.4116 -0.7378
 8696TIP3    H247580   5.458   3.730   5.048  1.4942  2.4017  0.0757
 8697TIP3   OH247581   3.748   0.258  12.261 -0.6803  0.2075  0.3450
 8697TIP3    H147582   3.827   0.302  12.230 -0.8653 -0.0341 -0.4903
 8697TIP3    H247583   3.743   0.177  12.209 -1.9828  0.6749 -0.3115
 8698TIP3   OH247584   0.439   2.590   4.061 -0.0521  0.0869 -0.1732
 8698TIP3    H147585   0.515   2.597   4.119  0.3154  1.8929 -0.8020
 8698TIP3    H247586   0.365   2.620   4.113 -0.3982 -1.7415  0.4625
 8699TIP3   OH247587   0.510   5.601   2.132 -0.4336  0.2566 -0.9282
 8699TIP3    H147588   0.422   5.637   2.136 -0.1172  1.0591 -1.0926
 8699TIP3    H247589   0.526   5.589   2.038  0.0620  1.1900 -0.9670
 8700TIP3   OH247590   0.140   4.818  15.913  0.0092  0.1352 -0.5973
 8700TIP3    H147591   0.090   4.863  15.846  1.3531  0.1779 -1.6035
 8700TIP3    H247592   0.079   4.752  15.948 -0.7462  0.1868 -1.7607
 8701TIP3   OH247593   5.207   1.848  15.242 -0.3096  0.5252  0.0988
 8701TIP3    H147594   5.301   1.864  15.248 -0.4160  1.9890 -1.4682
 8701TIP3    H247595   5.171   1.890  15.321  0.1983  1.3905 -0.1172
 8702TIP3   OH247596   3.273   5.432  12.731 -0.2018  0.0240 -0.3411
 8702TIP3    H147597   3.302   5.509  12.781  0.1892 -0.1754 -0.2555
 8702TIP3    H247598   3.346   5.413  12.672 -0.2028 -0.4132 -0.2079
 8703TIP3   OH247599   4.913   2.861   4.641  0.5587  0.7630 -1.0296
 8703TIP3    H147600   4.996   2.907   4.657  1.5665 -1.0513 -0.8276
 8703TIP3    H247601   4.918   2.835   4.549  0.2092  0.6222 -1.0096
 8704TIP3   OH247602   5.993   5.190  12.733  0.1532 -0.3738  0.2503
 8704TIP3    H147603   6.021   5.271  12.690 -0.6291 -0.7925 -1.0845
 8704TIP3    H247604   6.041   5.190  12.816 -0.5192  1.9051  0.7037
 8705TIP3   OH247605   4.556   2.068  10.676  0.1284 -0.1474 -0.5636
 8705TIP3    H147606   4.643   2.047  10.641 -0.0318 -2.6181  0.3219
 8705TIP3    H247607   4.524   2.138  10.619  2.2385  0.0827 -1.5925
 8706TIP3   OH247608   3.662   2.546   4.394  0.0428  0.3319  0.3594
 8706TIP3    H147609   3.686   2.586   4.310 -0.6017 -0.8955 -0.4417
 8706TIP3    H247610   3.716   2.592   4.459 -0.3860  2.2062 -0.5329
 8707TIP3   OH247611   4.549   5.617   4.643  0.3315 -0.1700 -0.2006
 8707TIP3    H147612   4.605   5.580   4.711 -0.3028 -0.2324  0.2835
 8707TIP3    H247613   4.541   5.709   4.666 -1.1603 -0.5051  0.6933
 8708TIP3   OH247614   4.175   1.388  14.192 -0.2312  0.1280  0.0741
 8708TIP3    H147615   4.118   1.423  14.124 -0.5448 -0.8695 -0.1837
 8708TIP3    H247616   4.116   1.366  14.264  0.1515  1.6888  0.9205
 8709TIP3   OH247617   1.244   6.318  16.786  0.1887 -0.3892 -0.7118
 8709TIP3    H147618   1.334   6.311  16.755  0.0556 -0.7634 -1.0202
 8709TIP3    H247619   1.247   6.291  16.877  0.3488 -0.6423 -0.7913
 8710TIP3   OH247620   3.010   1.007  16.627 -0.1033  0.3226 -0.2769
 8710TIP3    H147621   2.977   1.053  16.550 -0.2088  0.2430 -0.2788
 8710TIP3    H247622   3.042   1.076  16.685  0.0716  0.3790 -0.4360
 8711TIP3   OH247623   2.207   4.903  14.714  0.0939 -0.2446 -0.2338
 8711TIP3    H147624   2.248   4.831  14.665 -1.0782 -1.2983  0.2937
 8711TIP3    H247625   2.232   4.888  14.805 -0.4359 -0.1671 -0.0765
 8712TIP3   OH247626   0.044   2.173  11.550 -0.9187  0.1502  0.0190
 8712TIP3    H147627  -0.023   2.240  11.555 -2.1866 -0.9363 -1.3182
 8712TIP3    H247628   0.070   2.172  11.457  1.6331  1.1440  0.6453
 8713TIP3   OH247629   0.848   3.200   5.875  0.2474 -0.0991 -0.2006
 8713TIP3    H147630   0.836   3.110   5.846  0.9884  0.1095 -1.2053
 8713TIP3    H247631   0.801   3.205   5.958 -1.8760 -0.7448 -1.3063
 8714TIP3   OH247632   0.466   5.706   3.687  0.2613  0.0911  0.1877
 8714TIP3    H147633   0.410   5.634   3.662 -3.1426  1.5300  2.8530
 8714TIP3    H247634   0.533   5.667   3.743  0.3834 -1.3485 -0.9305
 8715TIP3   OH247635   4.107   6.485  15.354  0.0398  0.2369  0.6093
 8715TIP3    H147636   4.185   6.480  15.299 -0.0807  2.8549  0.0643
 8715TIP3    H247637   4.034   6.467  15.294  0.0428  1.1110  0.3237
 8716TIP3   OH247638   0.452   1.490  13.619 -0.0322 -0.6042 -0.1835
 8716TIP3    H147639   0.446   1.405  13.663 -1.8404 -0.1435  0.5509
 8716TIP3    H247640   0.363   1.510  13.593  0.4797  0.7576 -0.9853
 8717TIP3   OH247641   0.105   0.945   3.290  0.3751  0.0547 -0.2238
 8717TIP3    H147642   0.021   0.961   3.332  0.4067  2.5982 -0.9644
 8717TIP3    H247643   0.153   1.027   3.300  1.9968 -0.6788 -1.5151
 8718TIP3   OH247644   5.670   1.338  15.623 -0.1174 -0.6293  0.0215
 8718TIP3    H147645   5.683   1.297  15.537 -0.8832  1.5659 -1.2319
 8718TIP3    H247646   5.629   1.422  15.603 -0.7374 -0.2374  2.6058
 8719TIP3   OH247647   4.734   6.711  11.945  0.2036 -0.1624 -0.3373
 8719TIP3    H147648   4.649   6.691  11.908  0.2380 -1.4657  0.2239
 8719TIP3    H247649   4.797   6.678  11.881  0.2866  0.2972 -0.4959
 8720TIP3   OH247650   2.977   3.703  14.984  0.6242 -0.0094 -0.1758
 8720TIP3    H147651   3.046   3.770  14.983  0.3954  0.2406 -1.3143
 8720TIP3    H247652   2.968   3.677  14.892  0.0409 -0.9175  0.1257
 8721TIP3   OH247653   2.129   0.126   3.676  0.0989 -0.1835  0.3871
 8721TIP3    H147654   2.153   0.156   3.588  1.3736 -1.3345  0.3189
 8721TIP3    H247655   2.103   0.206   3.722 -0.8674  0.4042 -1.1064
 8722TIP3   OH247656   2.026   5.431   2.416  0.2156  0.3343 -0.7006
 8722TIP3    H147657   2.044   5.505   2.474  0.9943  0.6450 -1.3148
 8722TIP3    H247658   2.110   5.412   2.374  0.0674 -1.0173 -0.4390
 8723TIP3   OH247659   4.082   1.431  11.643  0.6158 -0.1542 -0.6081
 8723TIP3    H147660   4.134   1.412  11.565 -0.9234  0.6792 -1.8872
 8723TIP3    H247661   4.061   1.345  11.680 -1.0179 -0.7652 -2.7677
 8724TIP3   OH247662   0.742   2.446   2.377  0.2685  0.3152  0.6900
 8724TIP3    H147663   0.744   2.384   2.304 -2.0853  0.6938  0.2169
 8724TIP3    H247664   0.751   2.532   2.336  1.4513  0.4206  1.1343
 8725TIP3   OH247665   5.068   2.664  12.475  0.0867 -0.4058 -0.1261
 8725TIP3    H147666   5.160   2.667  12.448 -0.3288 -1.5731 -1.8003
 8725TIP3    H247667   5.068   2.602  12.549  1.0994  2.2016  2.2527
 8726TIP3   OH247668   6.308   2.990  14.578  0.6877  0.3084 -0.2105
 8726TIP3    H147669   6.282   2.992  14.670  1.0721 -2.6587  0.0674
 8726TIP3    H247670   6.226   2.996  14.529  0.2202 -0.7679  0.4219
 8727TIP3   OH247671   5.029   2.888   1.103  0.4258 -0.1107  0.0941
 8727TIP3    H147672   5.008   2.972   1.062 -1.0728 -0.8828 -0.8151
 8727TIP3    H247673   5.001   2.822   1.040  2.4384 -1.3319  0.3838
 8728TIP3   OH247674   6.675   2.726   5.142  0.2360 -0.0121 -0.1340
 8728TIP3    H147675   6.647   2.722   5.051 -0.6075 -0.4305  0.1345
 8728TIP3    H247676   6.627   2.655   5.185  0.1948  0.5359  0.7499
 8729TIP3   OH247677   1.339   5.391  14.448 -0.2403  0.6730  0.2057
 8729TIP3    H147678   1.287   5.471  14.453 -0.8675  0.2188  1.3480
 8729TIP3    H247679   1.274   5.321  14.439  0.2863  0.2674 -0.4703
 8730TIP3   OH247680   6.419   2.620  16.098  0.4706 -0.0219 -0.2098
 8730TIP3    H147681   6.415   2.526  16.110 -0.9299 -0.3199 -2.4644
 8730TIP3    H247682   6.423   2.633  16.004  0.9426  2.1815  0.0427
 8731TIP3   OH247683   6.589   3.232   1.709 -0.2368 -0.0792  0.6522
 8731TIP3    H147684   6.681   3.229   1.736 -0.3789 -0.8054  1.0752
 8731TIP3    H247685   6.554   3.310   1.751  0.9104  2.0115 -1.9342
 8732TIP3   OH247686   0.684   3.911  10.578  0.6111  0.3539  0.1039
 8732TIP3    H147687   0.592   3.921  10.602  0.3729  1.6362 -1.1909
 8732TIP3    H247688   0.712   3.999  10.552  1.9262 -0.1904 -0.4432
 8733TIP3   OH247689   3.646   3.779   2.292  0.5539  0.8345  0.1089
 8733TIP3    H147690   3.570   3.754   2.344  1.2686  1.2624  1.4066
 8733TIP3    H247691   3.712   3.804   2.356  1.2200  2.1308 -1.0125
 8734TIP3   OH247692   5.767   0.235  12.336  0.2647 -0.1081  0.2025
 8734TIP3    H147693   5.723   0.171  12.393 -1.0965 -0.9558 -1.6886
 8734TIP3    H247694   5.828   0.183  12.285  0.5607  0.4341  0.0060
 8735TIP3   OH247695   4.440   6.805  14.178 -0.1917 -0.1230 -0.3264
 8735TIP3    H147696   4.375   6.839  14.240  0.2410  0.9860 -0.4605
 8735TIP3    H247697   4.418   6.712  14.169 -0.9940 -0.0364  0.5719
 8736TIP3   OH247698   0.274   5.971   2.018 -0.0939  0.2787  0.1867
 8736TIP3    H147699   0.222   6.030   1.963  0.4310  1.9741  1.4233
 8736TIP3    H247700   0.362   5.975   1.980 -0.1184  0.0729  0.1087
 8737TIP3   OH247701   6.333   0.132  16.388 -0.1596 -0.2556 -0.1264
 8737TIP3    H147702   6.384   0.154  16.466  0.4501  1.0395 -0.8602
 8737TIP3    H247703   6.265   0.199  16.384 -1.9848 -1.9230  0.8096
 8738TIP3   OH247704   1.085   1.835   1.856 -0.0181  0.2489 -0.2961
 8738TIP3    H147705   1.123   1.893   1.791 -1.3128 -0.6190 -1.9081
 8738TIP3    H247706   1.154   1.823   1.921  1.4953  0.7752 -1.7476
 8739TIP3   OH247707   4.957   5.775  16.301 -0.2227 -0.3957 -0.1433
 8739TIP3    H147708   4.964   5.701  16.361 -1.7925 -0.2341  0.2687
 8739TIP3    H247709   4.871   5.765  16.261  0.5205 -0.1050 -1.8698
 8740TIP3   OH247710   4.853   1.572  11.948  0.3053  0.5812  0.3554
 8740TIP3    H147711   4.895   1.647  11.908  0.8094  0.9082  1.4622
 8740TIP3    H247712   4.881   1.497  11.895  2.0383  0.8237  0.8655
 8741TIP3   OH247713   4.491   1.964   0.645 -0.1101  0.0973  0.4435
 8741TIP3    H147714   4.531   1.878   0.655  0.9996  0.7154  1.6976
 8741TIP3    H247715   4.414   1.962   0.702  0.2001  0.1038  0.8630
 8742TIP3   OH247716   0.996   5.457  16.195  0.4744  0.5178  0.2837
 8742TIP3    H147717   1.001   5.362  16.184  0.0092  0.5724 -0.4421
 8742TIP3    H247718   1.069   5.478  16.254  1.5800 -0.0892 -0.8223
 8743TIP3   OH247719   3.855   3.494   1.445 -0.2585  0.2404  0.3992
 8743TIP3    H147720   3.864   3.515   1.538 -1.3369  0.4341  0.4788
 8743TIP3    H247721   3.763   3.514   1.426 -0.6786 -2.0244 -0.1425
 8744TIP3   OH247722   2.726   4.262  17.137  0.1020 -0.5630 -0.0558
 8744TIP3    H147723   2.765   4.344  17.108  3.8962 -0.6668  3.7773
 8744TIP3    H247724   2.656   4.287  17.197 -0.5715 -0.2315 -0.9654
 8745TIP3   OH247725   6.217   5.505  11.772 -0.2582  0.7432  0.4880
 8745TIP3    H147726   6.168   5.588  11.766 -1.5534  0.0610  1.1735
 8745TIP3    H247727   6.192   5.457  11.693  0.0146  0.7497  0.3958
 8746TIP3   OH247728   3.218   2.493  12.841  0.5137  0.3977 -0.0931
 8746TIP3    H147729   3.198   2.518  12.931  0.1280  0.9786 -0.3349
 8746TIP3    H247730   3.245   2.401  12.846 -1.3823 -0.1675  0.3528
 8747TIP3   OH247731   2.473   5.725  12.902 -0.2753  1.0291  0.1319
 8747TIP3    H147732   2.506   5.669  12.832 -0.2225  0.3854  0.6636
 8747TIP3    H247733   2.417   5.668  12.954  1.1714  0.9765  1.7143
 8748TIP3   OH247734   3.918   6.055   3.571  0.4060  0.3641 -0.2730
 8748TIP3    H147735   3.951   6.055   3.661  1.2268 -3.1480 -0.4292
 8748TIP3    H247736   3.859   5.980   3.566 -0.4092  1.0567 -2.4426
 8749TIP3   OH247737   0.928   6.166  15.268  0.1395  0.2383  0.5341
 8749TIP3    H147738   0.975   6.243  15.237 -0.0149  0.5992  1.1714
 8749TIP3    H247739   0.836   6.194  15.274  0.1492  0.1533  1.2048
 8750TIP3   OH247740   3.154   6.209  12.411  0.3781  1.1165  0.4697
 8750TIP3    H147741   3.199   6.129  12.382 -2.1514 -0.0016 -0.6502
 8750TIP3    H247742   3.133   6.193  12.503 -2.5702 -0.8735 -0.4118
 8751TIP3   OH247743   6.022   2.045   5.373 -0.2452  0.7330 -0.1312
 8751TIP3    H147744   5.952   2.108   5.386 -1.0032  0.2733 -1.6667
 8751TIP3    H247745   5.986   1.961   5.403 -0.7563  0.3155 -1.8035
 8752TIP3   OH247746   0.986   2.757  16.482  0.6951 -0.4180 -0.1335
 8752TIP3    H147747   1.040   2.831  16.510 -0.5971  0.8339 -0.8825
 8752TIP3    H247748   1.002   2.690  16.549  0.8180  1.0237  1.3370
 8753TIP3   OH247749   4.983   4.839  16.347  0.1553 -0.0387  0.2223
 8753TIP3    H147750   4.989   4.935  16.340  0.9992 -0.0442  0.6617
 8753TIP3    H247751   5.019   4.807  16.265  1.6416  0.0174  0.8070
 8754TIP3   OH247752   4.123   6.046   3.806 -0.4671  0.1686 -0.1153
 8754TIP3    H147753   4.163   6.102   3.873  0.3258 -1.4223  0.8028
 8754TIP3    H247754   4.196   6.001   3.765 -0.9291  1.2911 -2.2741
 8755TIP3   OH247755   2.118   3.683  12.759 -0.2615  0.4858 -0.5862
 8755TIP3    H147756   2.035   3.645  12.730  0.2071  0.2399 -1.6750
 8755TIP3    H247757   2.132   3.757  12.701  0.9066 -0.2642 -1.3077
 8756TIP3   OH247758   4.856   2.989   2.426 -0.0242  0.2513 -0.1346
 8756TIP3    H147759   4.784   3.019   2.370  0.5103 -0.7789 -1.4273
 8756TIP3    H247760   4.823   3.001   2.515 -2.0110 -0.6268 -0.6790
 8757TIP3   OH247761   6.673   4.548  13.741  0.1816  0.3125  0.0198
 8757TIP3    H147762   6.672   4.621  13.803 -0.6826 -0.6204  1.1625
 8757TIP3    H247763   6.661   4.589  13.656 -2.4157  1.4231  0.7976
 8758TIP3   OH247764   3.876   0.381  15.727 -0.6256  0.2565  0.1203
 8758TIP3    H147765   3.825   0.462  15.733 -1.6197 -0.3220 -0.3996
 8758TIP3    H247766   3.883   0.364  15.633 -0.2578 -0.1710  0.2222
 8759TIP3   OH247767   0.141   2.958  12.311 -0.1849 -0.0156 -0.4108
 8759TIP3    H147768   0.171   2.988  12.396  0.5466 -0.2185 -0.5858
 8759TIP3    H247769   0.052   2.926  12.326 -0.6219  1.3416 -0.0425
 8760TIP3   OH247770   1.798   5.393   0.443 -0.6657 -0.1984  0.4393
 8760TIP3    H147771   1.764   5.471   0.399 -0.3027  0.0190  0.5311
 8760TIP3    H247772   1.839   5.341   0.374 -1.0055 -0.3595  0.3610
 8761TIP3   OH247773   6.394   4.078  16.772  0.5493 -0.0790 -0.4000
 8761TIP3    H147774   6.459   4.090  16.703 -0.6044 -0.2719 -1.5549
 8761TIP3    H247775   6.404   4.155  16.828  2.7342 -0.7962  0.2986
 8762TIP3   OH247776   2.674   0.796  10.973 -0.2991 -0.1844  0.0841
 8762TIP3    H147777   2.636   0.740  10.906 -1.0348  0.6726 -0.2370
 8762TIP3    H247778   2.715   0.868  10.925  2.2557 -1.3151  0.3862
 8763TIP3   OH247779   5.685   1.774   3.786 -0.1067  0.0265  0.0206
 8763TIP3    H147780   5.688   1.805   3.695 -0.1499 -0.1948 -0.0581
 8763TIP3    H247781   5.627   1.835   3.831 -2.2662 -1.3681 -0.7081
 8764TIP3   OH247782   2.219   0.264   0.631  0.0994 -0.1917 -0.5299
 8764TIP3    H147783   2.313   0.253   0.646  0.0486 -1.4229 -1.0145
 8764TIP3    H247784   2.204   0.227   0.544 -0.7748  0.3619 -0.6268
 8765TIP3   OH247785   3.105   6.169  16.798 -0.0266  0.6211  0.5255
 8765TIP3    H147786   3.121   6.090  16.746  0.8507  1.0373  0.1579
 8765TIP3    H247787   3.173   6.230  16.771  0.0409  1.0795  1.6852
 8766TIP3   OH247788   6.673   3.069  13.873 -0.0928 -0.7107 -0.0935
 8766TIP3    H147789   6.709   3.046  13.959  1.2753  1.2131 -0.0921
 8766TIP3    H247790   6.603   3.131  13.892 -0.6260 -1.2386 -0.3173
 8767TIP3   OH247791   6.671   3.240  15.851 -0.4320  0.0617  0.7827
 8767TIP3    H147792   6.674   3.317  15.908 -1.6703  0.5280  0.2515
 8767TIP3    H247793   6.754   3.242  15.804  0.1691  0.2451  1.8092
 8768TIP3   OH247794   0.790   3.731   5.757 -0.0659  0.5762  0.2343
 8768TIP3    H147795   0.876   3.728   5.715 -0.4123  1.2218 -0.5529
 8768TIP3    H247796   0.757   3.819   5.738 -1.8596 -0.3856 -1.5075
 8769TIP3   OH247797   1.913   1.595   5.750 -0.4026  0.1183  0.2915
 8769TIP3    H147798   1.934   1.535   5.679  3.1772 -0.8564  1.9611
 8769TIP3    H247799   1.832   1.559   5.789  0.0552 -1.9644 -0.5389
 8770TIP3   OH247800   5.321   5.874   1.512  0.1661  0.6074 -0.2707
 8770TIP3    H147801   5.416   5.885   1.512  0.2066  0.2581  0.3471
 8770TIP3    H247802   5.287   5.960   1.486  0.6426  0.7891 -0.2979
 8771TIP3   OH247803   6.134   1.223   3.107 -0.1766  0.0815 -0.2010
 8771TIP3    H147804   6.222   1.188   3.110 -0.6208 -1.3269 -1.8810
 8771TIP3    H247805   6.116   1.253   3.196  1.3260 -1.2704  0.5862
 8772TIP3   OH247806   1.453   5.054  15.918  0.1278  0.5585  0.5431
 8772TIP3    H147807   1.408   5.135  15.943  0.3460  0.6893  0.5189
 8772TIP3    H247808   1.546   5.077  15.920  0.1604  0.5045 -0.1520
 8773TIP3   OH247809   1.318   6.274   4.128 -0.5564 -0.2038  0.0501
 8773TIP3    H147810   1.247   6.221   4.093 -0.2747 -0.6114  0.0886
 8773TIP3    H247811   1.377   6.212   4.170  0.6446 -0.0964 -1.3558
 8774TIP3   OH247812   0.423   2.102   5.368 -0.2828  0.3083 -0.4769
 8774TIP3    H147813   0.370   2.146   5.435 -0.0667 -0.8430  0.4830
 8774TIP3    H247814   0.360   2.075   5.301 -0.6568  0.5196 -0.2154
 8775TIP3   OH247815   0.179   0.741   1.726  0.5539  0.2409  0.1296
 8775TIP3    H147816   0.181   0.794   1.646  2.2232  0.8386  0.5476
 8775TIP3    H247817   0.269   0.711   1.738  0.1824 -0.4398  1.4094
 8776TIP3   OH247818   0.444   5.445  13.575 -0.4963  0.0732 -0.3133
 8776TIP3    H147819   0.498   5.499  13.633  0.5777 -1.3220  0.0676
 8776TIP3    H247820   0.354   5.461  13.603 -0.0878  0.4909  0.8165
 8777TIP3   OH247821   2.443   0.883   6.518 -0.4075  0.4575 -0.2810
 8777TIP3    H147822   2.377   0.820   6.547  1.0584 -0.5359  1.1515
 8777TIP3    H247823   2.428   0.960   6.572  0.2611 -0.1918  0.8913
 8778TIP3   OH247824   2.470   4.434  11.134 -0.2169 -0.1039  0.4512
 8778TIP3    H147825   2.483   4.366  11.200 -0.2922 -1.1210 -0.5626
 8778TIP3    H247826   2.555   4.442  11.091  0.0254  1.0465  1.0996
 8779TIP3   OH247827   3.533   3.901   3.238 -0.3305 -0.2802 -0.1330
 8779TIP3    H147828   3.556   3.808   3.231  0.5753 -0.1577  0.9340
 8779TIP3    H247829   3.576   3.942   3.163  1.3029 -0.3749  0.7127
 8780TIP3   OH247830   3.534   6.108  15.191 -0.1373  0.2207  0.3859
 8780TIP3    H147831   3.599   6.057  15.240  1.3755  1.7218  0.0546
 8780TIP3    H247832   3.457   6.109  15.247  0.4824 -0.7091  1.3011
 8781TIP3   OH247833   1.542   0.853  12.563 -0.3537  0.3623  0.5057
 8781TIP3    H147834   1.566   0.942  12.591 -0.0123  0.0855  1.1235
 8781TIP3    H247835   1.507   0.812  12.642  0.8557 -0.5227  0.6211
 8782TIP3   OH247836   1.796   1.962  13.230 -0.4649 -0.2491 -0.0922
 8782TIP3    H147837   1.795   2.054  13.256  1.0463  0.0004 -0.8431
 8782TIP3    H247838   1.887   1.935  13.237 -0.4555 -0.9958 -2.1986
 8783TIP3   OH247839   1.348   5.177   2.998  0.1140 -0.1787  0.1937
 8783TIP3    H147840   1.344   5.272   2.990  0.9695 -0.0707  0.9140
 8783TIP3    H247841   1.257   5.148   2.986 -0.2047  0.7509  0.2968
 8784TIP3   OH247842   0.587   6.753   4.655  0.2614 -0.1369  0.6237
 8784TIP3    H147843   0.598   6.697   4.578 -0.9376 -0.5540  0.7269
 8784TIP3    H247844   0.593   6.694   4.730 -1.9357 -0.3520  0.7038
 8785TIP3   OH247845   5.404   4.582   4.563  0.2514  0.4101 -0.2540
 8785TIP3    H147846   5.377   4.493   4.541 -0.0696  0.0279  1.5029
 8785TIP3    H247847   5.439   4.617   4.482  0.5786 -1.3890 -0.9454
 8786TIP3   OH247848   2.373   1.062  12.619  0.0464  0.4599  0.4030
 8786TIP3    H147849   2.322   1.129  12.574 -0.1346 -0.1734 -0.3539
 8786TIP3    H247850   2.315   1.031  12.689 -0.4574  0.0474 -0.1830
 8787TIP3   OH247851   2.403   4.852   5.577 -0.0497 -0.0260 -0.2339
 8787TIP3    H147852   2.379   4.786   5.642 -0.2962  1.8700  1.7193
 8787TIP3    H247853   2.332   4.848   5.513 -0.9945 -0.4789  0.7926
 8788TIP3   OH247854   2.482   1.379  12.650 -0.3662 -0.5547 -0.3959
 8788TIP3    H147855   2.520   1.292  12.667 -0.9560 -0.4853  1.5317
 8788TIP3    H247856   2.389   1.368  12.667 -0.6254  0.1940 -1.2781
 8789TIP3   OH247857   3.473   1.898  10.389 -0.2491 -0.4640 -1.0269
 8789TIP3    H147858   3.513   1.984  10.390  0.0192 -0.5839  0.1864
 8789TIP3    H247859   3.543   1.839  10.360 -0.0779 -0.4311 -0.6830
 8790TIP3   OH247860   2.734   1.593  16.018  0.4532  0.0802  0.4324
 8790TIP3    H147861   2.684   1.603  15.937 -0.4429 -1.8655  0.6812
 8790TIP3    H247862   2.721   1.675  16.065 -2.1166 -0.1396  0.2341
 8791TIP3   OH247863   1.033   2.098   0.826 -0.3571 -0.2237 -0.6018
 8791TIP3    H147864   0.990   2.100   0.912 -1.1826  0.8528 -1.0231
 8791TIP3    H247865   1.045   2.005   0.808 -0.6977 -0.4827  0.4214
 8792TIP3   OH247866   2.829   0.997  14.952  0.4684  0.4596  0.8969
 8792TIP3    H147867   2.866   0.985  14.864  0.3254  1.7033  0.6456
 8792TIP3    H247868   2.825   0.909  14.988  1.0576 -0.0154 -0.1328
 8793TIP3   OH247869   1.356   6.421   2.120 -0.6208 -0.4715 -0.1823
 8793TIP3    H147870   1.300   6.499   2.122 -1.3055 -0.9474 -0.4305
 8793TIP3    H247871   1.310   6.358   2.176 -0.1860 -0.7690 -0.1625
 8794TIP3   OH247872   1.653   3.138   2.459  0.1599 -0.5420  0.0087
 8794TIP3    H147873   1.663   3.076   2.532  0.0156 -1.5314 -0.7877
 8794TIP3    H247874   1.575   3.108   2.413  0.2711  0.0573 -0.5758
 8795TIP3   OH247875   6.225   4.595   0.949 -0.4062 -0.4150 -0.2567
 8795TIP3    H147876   6.249   4.647   1.027 -1.0014 -0.5498  0.0171
 8795TIP3    H247877   6.244   4.505   0.974 -3.2167 -0.8089  0.7994
 8796TIP3   OH247878   2.202   1.269   6.232 -0.1767  0.3781  0.2734
 8796TIP3    H147879   2.292   1.244   6.253  0.0662  2.5260  2.1773
 8796TIP3    H247880   2.212   1.339   6.167 -0.5339  0.1482 -0.0349
 8797TIP3   OH247881   3.103   1.537   5.520  0.0674 -0.4428  0.1945
 8797TIP3    H147882   3.070   1.453   5.550 -0.7193  0.2619  1.3518
 8797TIP3    H247883   3.156   1.570   5.593 -1.3380  0.9946  0.6077
 8798TIP3   OH247884   2.452   0.070   4.338 -0.0393 -0.5666  0.6483
 8798TIP3    H147885   2.412   0.062   4.425 -0.1164  0.5562  0.7285
 8798TIP3    H247886   2.385   0.113   4.285  0.9001  1.0274  0.6963
 8799TIP3   OH247887   6.498   1.565  12.026  0.0833 -0.0640  0.1316
 8799TIP3    H147888   6.543   1.483  12.005 -1.4586 -0.5263 -1.6422
 8799TIP3    H247889   6.537   1.629  11.968 -0.5966 -0.1770 -0.4659
 8800TIP3   OH247890   1.792   6.418  16.660  0.3245 -0.0798  0.5542
 8800TIP3    H147891   1.837   6.386  16.582 -0.1975  0.3414  0.0607
 8800TIP3    H247892   1.861   6.459  16.713  0.5696  0.3447 -0.0743
 8801TIP3   OH247893   6.416   4.898   4.911 -0.0698 -0.1553 -0.0112
 8801TIP3    H147894   6.496   4.934   4.872  0.0323  0.9231  1.1271
 8801TIP3    H247895   6.361   4.875   4.836  0.6542  0.5980 -0.7970
 8802TIP3   OH247896   4.859   0.281   5.436 -0.0888  0.3237  0.1184
 8802TIP3    H147897   4.824   0.272   5.525  0.7077  1.0742  0.5211
 8802TIP3    H247898   4.874   0.191   5.407 -0.1833  0.0819  0.8118
 8803TIP3   OH247899   6.351   4.173   3.406 -0.1534 -0.1909  0.0877
 8803TIP3    H147900   6.291   4.220   3.464  1.6233 -0.3046  2.1862
 8803TIP3    H247901   6.306   4.092   3.385 -0.8213 -0.1984  1.4513
 8804TIP3   OH247902   6.140   4.531   0.131 -0.2034 -0.3240 -0.1352
 8804TIP3    H147903   6.112   4.610   0.084 -2.4773 -0.7682  0.3554
 8804TIP3    H247904   6.066   4.510   0.188 -0.4863 -3.8462 -1.5710
 8805TIP3   OH247905   3.865   6.525   4.353 -0.2103 -0.4530  0.0957
 8805TIP3    H147906   3.802   6.487   4.414  0.9075 -1.5246  0.6324
 8805TIP3    H247907   3.886   6.453   4.292  0.8592 -0.2867  0.2424
 8806TIP3   OH247908   1.386   0.509  15.578  0.7600 -0.0139  0.4566
 8806TIP3    H147909   1.409   0.455  15.502  0.9405  0.4450  0.1772
 8806TIP3    H247910   1.420   0.461  15.653 -1.5560 -1.6944  0.5088
 8807TIP3   OH247911   2.756   2.628   3.430 -0.1957 -0.4179  0.3423
 8807TIP3    H147912   2.798   2.697   3.482 -1.2415 -0.2827  1.0410
 8807TIP3    H247913   2.789   2.641   3.342  1.1557 -0.2650  0.8462
 8808TIP3   OH247914   1.979   4.696  14.634 -0.7991  0.3575 -0.6676
 8808TIP3    H147915   2.030   4.777  14.636 -1.5899  0.9226  2.1275
 8808TIP3    H247916   2.028   4.635  14.689 -2.1050  0.2703  0.4539
 8809TIP3   OH247917   5.019   6.133   2.239  0.0323  0.1269  0.0914
 8809TIP3    H147918   4.952   6.197   2.215  1.3455  1.6862  0.4208
 8809TIP3    H247919   5.038   6.152   2.331  1.7400  0.5090 -0.3016
 8810TIP3   OH247920   2.340   0.406   1.834  0.4842 -0.4982 -0.3356
 8810TIP3    H147921   2.397   0.394   1.911 -0.1413  2.2087  0.6528
 8810TIP3    H247922   2.401   0.422   1.762  1.1110  1.5938  0.5605
 8811TIP3   OH247923   5.921   4.927   0.100  0.5828 -0.5207  0.0781
 8811TIP3    H147924   5.935   4.948   0.193  0.0113  0.3359 -0.0217
 8811TIP3    H247925   5.947   5.006   0.053  2.3639 -1.4835 -0.6289
 8812TIP3   OH247926   0.981   0.769  11.839  0.2990  0.1840 -0.0963
 8812TIP3    H147927   1.000   0.682  11.874  3.3141  1.1366  1.0078
 8812TIP3    H247928   0.943   0.753  11.753 -0.8484 -2.1982  0.7843
 8813TIP3   OH247929   4.677   3.019  17.094  0.3180 -0.3406 -1.1880
 8813TIP3    H147930   4.771   3.037  17.094  0.2385  0.0888 -1.5082
 8813TIP3    H247931   4.648   3.044  17.182  0.4161  0.0171 -1.2544
 8814TIP3   OH247932   3.316   0.067   0.213  0.0322 -0.7753 -0.2967
 8814TIP3    H147933   3.297  -0.020   0.249  0.6359 -1.1909 -0.9392
 8814TIP3    H247934   3.362   0.113   0.283  2.6256 -2.1195 -0.9780
 8815TIP3   OH247935   4.625   1.539   0.015  0.0077 -0.5468  0.3287
 8815TIP3    H147936   4.671   1.575  -0.061 -0.2761 -1.0363 -0.0777
 8815TIP3    H247937   4.630   1.608   0.081  1.7712 -0.7806  0.4774
 8816TIP3   OH247938   1.498   3.937  11.450  0.9732  0.2505  0.5876
 8816TIP3    H147939   1.584   3.972  11.428  0.4444  1.8541  0.8672
 8816TIP3    H247940   1.455   4.009  11.497 -0.1526 -0.8669  1.3423
 8817TIP3   OH247941   6.053   2.601  16.593  0.8668 -0.2435  0.1136
 8817TIP3    H147942   5.981   2.607  16.656  0.8091  1.2708 -0.0632
 8817TIP3    H247943   6.024   2.534  16.530  0.1697 -0.5332  0.7332
 8818TIP3   OH247944   3.427   4.308   4.881  0.1486 -0.6443 -0.0651
 8818TIP3    H147945   3.398   4.319   4.971  0.2378  0.1389 -0.1276
 8818TIP3    H247946   3.523   4.306   4.887  0.1735 -0.0609 -0.1920
 8819TIP3   OH247947   2.004   2.723   5.023  0.2766  0.3518  0.6083
 8819TIP3    H147948   2.050   2.747   5.103 -1.8638  1.7002  1.5433
 8819TIP3    H247949   2.060   2.755   4.953 -0.6980  5.3150  1.7280
 8820TIP3   OH247950   1.642   1.853  17.248  0.3071 -0.2837  0.0925
 8820TIP3    H147951   1.711   1.816  17.194 -1.5445 -1.3312 -1.6827
 8820TIP3    H247952   1.583   1.780  17.266 -0.4076  0.5775  1.5206
 8821TIP3   OH247953   3.823   6.382  12.661 -0.1937  0.1507 -0.0447
 8821TIP3    H147954   3.877   6.317  12.617  1.4515  0.6159  1.1674
 8821TIP3    H247955   3.758   6.331  12.708  1.8124 -0.8184  1.8869
 8822TIP3   OH247956   2.004   1.982  14.388  0.3333 -0.0104  0.1369
 8822TIP3    H147957   1.944   1.962  14.316 -0.1362 -1.0155  0.7997
 8822TIP3    H247958   1.982   1.920  14.457 -1.2745  2.7542  2.3725
 8823TIP3   OH247959   2.304   3.961  10.892  0.0278 -0.4710 -0.1685
 8823TIP3    H147960   2.214   3.966  10.861 -1.1849 -0.1300  2.9735
 8823TIP3    H247961   2.344   3.890  10.842 -1.3989  0.4622 -2.8215
 8824TIP3   OH247962   2.670   0.797  13.798  0.1810  0.3230  0.0471
 8824TIP3    H147963   2.675   0.748  13.880  0.7404  0.1701 -0.0691
 8824TIP3    H247964   2.761   0.797  13.765  0.3050  1.9292  0.3367
 8825TIP3   OH247965   1.894   2.168   1.142  0.1352  0.1129  0.0081
 8825TIP3    H147966   1.984   2.198   1.146 -0.3938  1.9555 -0.9364
 8825TIP3    H247967   1.882   2.118   1.223  2.2657 -1.0873 -0.3307
 8826TIP3   OH247968   6.060   2.895  15.980 -0.0909  0.0121  0.0390
 8826TIP3    H147969   6.112   2.969  16.011  0.0601 -0.0451 -0.0775
 8826TIP3    H247970   6.052   2.838  16.057  1.5423 -0.8614 -0.3770
 8827TIP3   OH247971   1.306   0.403   1.930  0.6420 -0.1123 -0.1966
 8827TIP3    H147972   1.351   0.342   1.871  3.2719  0.7748  0.7340
 8827TIP3    H247973   1.290   0.352   2.009 -0.3035 -0.5082 -0.6275
 8828TIP3   OH247974   6.068   1.382  15.688 -0.2288 -0.1321  0.0452
 8828TIP3    H147975   6.071   1.377  15.593 -0.8013 -0.3846  0.0392
 8828TIP3    H247976   6.152   1.345  15.717 -0.8663 -1.9316 -0.2916
 8829TIP3   OH247977   0.795   2.252   3.819  0.2884 -0.1749 -0.1725
 8829TIP3    H147978   0.748   2.169   3.820 -0.8283  0.4412  0.7124
 8829TIP3    H247979   0.806   2.275   3.911  3.5706 -0.9273 -0.2707
 8830TIP3   OH247980   3.919   2.424   2.451 -0.0224  0.2889 -0.0625
 8830TIP3    H147981   3.965   2.357   2.399  0.0875  0.6758 -0.4691
 8830TIP3    H247982   3.876   2.374   2.521  0.6213 -0.1322  0.0427
 8831TIP3   OH247983   4.097   0.125  13.303 -0.2693  0.2324  0.0560
 8831TIP3    H147984   4.038   0.051  13.320  0.3215 -0.4572 -0.7873
 8831TIP3    H247985   4.147   0.098  13.226  1.5907  0.5068  1.0966
 8832TIP3   OH247986   1.403   2.994   5.935 -0.6681  0.5464 -0.3093
 8832TIP3    H147987   1.410   3.054   6.010 -1.0790 -0.5365  0.6275
 8832TIP3    H247988   1.371   2.912   5.973  2.2387 -1.1135 -1.1082
 8833TIP3   OH247989   6.305   6.026   0.616 -0.0271 -0.2306  0.2162
 8833TIP3    H147990   6.233   6.089   0.617 -0.0141 -0.2105  0.0032
 8833TIP3    H247991   6.333   6.024   0.524  1.5993  1.3284  0.6090
 8834TIP3   OH247992   4.900   4.312   3.723  0.3486  0.0934  0.0433
 8834TIP3    H147993   4.902   4.255   3.646  1.6548  0.3192 -0.1024
 8834TIP3    H247994   4.864   4.395   3.690  0.4093  0.0191 -0.2112
 8835TIP3   OH247995   5.698   5.989   0.760  0.3956 -0.0897 -0.2905
 8835TIP3    H147996   5.610   5.972   0.793  0.6061  0.8568  0.8433
 8835TIP3    H247997   5.698   5.954   0.671 -1.5487  1.1461 -0.8335
 8836TIP3   OH247998   2.883   4.995  15.255 -0.4066 -0.2030  0.1748
 8836TIP3    H147999   2.809   4.936  15.243 -0.1092 -0.8741  1.4984
 8836TIP3    H248000   2.883   5.015  15.348 -0.4065  1.7870 -0.2160
 8837TIP3   OH248001   0.074   2.873  15.684  0.3965  0.5775 -0.1214
 8837TIP3    H148002   0.169   2.871  15.698  0.2888  0.4567  0.6048
 8837TIP3    H248003   0.037   2.878  15.772 -0.2534  1.4533 -0.4397
 8838TIP3   OH248004   0.753   1.915   6.460  0.0452 -0.2332 -0.1119
 8838TIP3    H148005   0.760   1.966   6.542 -1.4089  0.1932 -0.2232
 8838TIP3    H248006   0.805   1.965   6.397  1.2047 -0.5785  0.5390
 8839TIP3   OH248007   0.557   4.991  15.895  0.0687 -0.0116 -0.1128
 8839TIP3    H148008   0.512   5.015  15.976 -0.6451  0.4971 -0.6505
 8839TIP3    H248009   0.622   5.059  15.881 -0.6587  0.5952 -0.6203
 8840TIP3   OH248010   0.236   4.512  12.397 -0.0714 -0.3193 -0.2072
 8840TIP3    H148011   0.297   4.578  12.428 -1.1895  1.1569 -1.0289
 8840TIP3    H248012   0.198   4.474  12.476 -0.9991  1.5702  0.3003
 8841TIP3   OH248013   5.266   5.051  15.646 -0.1634 -0.0448 -0.0024
 8841TIP3    H148014   5.234   5.136  15.676 -0.4975 -0.3232  0.4423
 8841TIP3    H248015   5.323   5.071  15.572  0.9046  0.7020  0.9680
 8842TIP3   OH248016   4.018   3.762   2.197 -0.1345 -0.2165 -0.3467
 8842TIP3    H148017   3.947   3.739   2.258  2.0338 -0.3387  2.3373
 8842TIP3    H248018   4.097   3.727   2.239  1.6127  0.3922 -2.9330
 8843TIP3   OH248019   5.274   1.929   4.632 -0.3863 -0.6611  0.2624
 8843TIP3    H148020   5.273   2.001   4.695  0.9138 -1.1888  0.9356
 8843TIP3    H248021   5.226   1.858   4.675  1.4917 -1.4232  1.2342
 8844TIP3   OH248022   2.291   3.170   5.668 -0.2409  0.1157  0.5185
 8844TIP3    H148023   2.365   3.113   5.685  0.1622 -0.1024 -1.6319
 8844TIP3    H248024   2.218   3.131   5.715  0.7036 -0.4113  1.5789
 8845TIP3   OH248025   0.604   5.585   4.303 -0.2272  0.2486  0.0885
 8845TIP3    H148026   0.537   5.652   4.291 -0.1208  0.0602 -1.7790
 8845TIP3    H248027   0.589   5.552   4.392 -1.7401  1.1496  0.1936
 8846TIP3   OH248028   3.995   2.411   0.962 -0.1671  0.0694  0.2723
 8846TIP3    H148029   4.010   2.318   0.981 -0.5662  0.1237  0.9156
 8846TIP3    H248030   4.081   2.445   0.938  0.0153 -0.4295  0.1991
 8847TIP3   OH248031   4.906   0.040  13.578 -0.4407  0.1013  0.4049
 8847TIP3    H148032   4.903   0.129  13.542 -1.8727  0.2222  0.7864
 8847TIP3    H248033   4.889   0.052  13.671  2.2374 -0.3107  1.0294
 8848TIP3   OH248034   3.430   1.965  14.232  0.0810 -0.1821  0.8149
 8848TIP3    H148035   3.395   1.910  14.302 -2.5680 -0.7345 -0.7924
 8848TIP3    H248036   3.372   1.948  14.158  2.9769  0.0718 -1.6687
 8849TIP3   OH248037   2.947   6.179  10.302 -0.5513  0.1730  0.3532
 8849TIP3    H148038   2.884   6.248  10.280  1.5138  1.6345 -1.3755
 8849TIP3    H248039   3.001   6.169  10.223  2.2159 -0.0354  2.1174
 8850TIP3   OH248040   1.404   2.107   2.382  0.7546  0.2588  0.9014
 8850TIP3    H148041   1.357   2.025   2.367  2.0256 -0.5620  1.2710
 8850TIP3    H248042   1.386   2.159   2.303  1.5911 -1.1919 -0.2940
 8851TIP3   OH248043   6.355   3.774   0.991 -0.4429  0.4259  0.0330
 8851TIP3    H148044   6.406   3.738   1.064  0.5353  1.5184 -0.0816
 8851TIP3    H248045   6.291   3.832   1.034 -2.5963 -1.9717  0.2860
 8852TIP3   OH248046   0.837   4.495   1.460  0.0348 -0.6934 -0.1601
 8852TIP3    H148047   0.919   4.515   1.415 -1.0634  0.0423 -1.9799
 8852TIP3    H248048   0.862   4.475   1.550  1.8478  3.5738  0.5017
 8853TIP3   OH248049   3.703   6.581  16.013 -0.7538 -0.1920 -0.3662
 8853TIP3    H148050   3.702   6.524  16.091  0.3780  2.6348  1.9035
 8853TIP3    H248051   3.622   6.631  16.019 -0.3021  0.5767 -0.5332
 8854TIP3   OH248052   3.933   0.982  12.188  0.1132  0.0920  0.1796
 8854TIP3    H148053   4.025   1.003  12.208 -0.1121  1.6787 -0.2896
 8854TIP3    H248054   3.923   1.004  12.096 -1.2060  1.8667  0.6801
 8855TIP3   OH248055   0.953   5.963   2.832 -0.7608  0.4022  0.0329
 8855TIP3    H148056   1.026   6.015   2.797  0.2744 -0.3806  0.9178
 8855TIP3    H248057   0.924   6.013   2.909 -0.9285  0.5508 -0.1282
 8856TIP3   OH248058   2.133   3.263   6.623 -0.0347  0.5465 -0.0056
 8856TIP3    H148059   2.046   3.270   6.661  0.1931  0.9849  0.4425
 8856TIP3    H248060   2.176   3.346   6.643  0.5692  0.2484 -0.0110
 8857TIP3   OH248061   2.888   3.548  13.800 -0.4566  0.1826  0.3935
 8857TIP3    H148062   2.884   3.478  13.865 -1.4956  0.2935  0.4709
 8857TIP3    H248063   2.849   3.624  13.843  1.7117  1.1892  0.7222
 8858TIP3   OH248064   0.930   5.062   3.812  0.3278  0.4296 -0.1898
 8858TIP3    H148065   0.907   5.106   3.730  0.2258 -0.2765 -0.5408
 8858TIP3    H248066   0.976   5.129   3.863  3.4689 -0.0468 -2.1898
 8859TIP3   OH248067   1.588   0.739   4.256  0.3376 -0.2282 -0.0020
 8859TIP3    H148068   1.501   0.715   4.222  0.6516  1.0921 -1.8094
 8859TIP3    H248069   1.647   0.728   4.182  1.6910 -0.7353  1.1078
 8860TIP3   OH248070   5.619   6.602   0.190 -0.0980  0.4983 -0.6086
 8860TIP3    H148071   5.679   6.537   0.227 -0.0633  0.9116  0.0848
 8860TIP3    H248072   5.655   6.621   0.104 -0.6268 -1.0746 -1.2029
 8861TIP3   OH248073   1.289   3.583   6.875 -0.2913  0.3856 -0.0213
 8861TIP3    H148074   1.295   3.509   6.936 -0.9038  0.8112  0.5715
 8861TIP3    H248075   1.367   3.575   6.820 -0.0327 -0.3463  0.4343
 8862TIP3   OH248076   0.693   3.712  16.908  0.1187 -0.1229  0.4074
 8862TIP3    H148077   0.715   3.751  16.992 -0.1675 -2.0509  1.4430
 8862TIP3    H248078   0.707   3.618  16.920 -2.7620 -0.8172 -0.7167
 8863TIP3   OH248079   3.538   1.960  16.253 -0.4767 -0.2643 -0.9138
 8863TIP3    H148080   3.446   1.938  16.272 -0.3110  1.0557  1.8650
 8863TIP3    H248081   3.534   2.045  16.209 -0.5701  0.5970  0.6976
 8864TIP3   OH248082   1.868   0.299  12.265 -0.0951 -0.0464 -0.0306
 8864TIP3    H148083   1.928   0.231  12.296  0.3766 -0.1135 -1.0223
 8864TIP3    H248084   1.817   0.323  12.342 -0.1052 -1.3476  0.4037
 8865TIP3   OH248085   2.296   6.821   4.561  0.2715 -0.4389 -0.0311
 8865TIP3    H148086   2.361   6.787   4.623  1.9884  0.5925 -1.1907
 8865TIP3    H248087   2.222   6.847   4.616  1.1284 -0.9596  1.4225
 8866TIP3   OH248088   2.644   6.346  13.968 -0.0258  0.2682  0.1025
 8866TIP3    H148089   2.698   6.315  14.041 -0.6109 -1.1686 -0.0496
 8866TIP3    H248090   2.636   6.441  13.983  1.9695  0.4227  0.4817
 8867TIP3   OH248091   6.651   4.045  11.833  0.5127  0.2150  0.2395
 8867TIP3    H148092   6.703   3.971  11.864  0.9584  0.3414 -0.2097
 8867TIP3    H248093   6.671   4.115  11.895  1.8907  0.6588 -0.6679
 8868TIP3   OH248094   0.914   2.530  16.700 -0.3642  0.3156  0.1307
 8868TIP3    H148095   0.930   2.512  16.792 -3.1599  1.6965  0.9949
 8868TIP3    H248096   0.880   2.447  16.665 -0.4274  0.1139  0.6572
 8869TIP3   OH248097   2.731   2.907   2.626 -0.0459 -0.5360 -0.5694
 8869TIP3    H148098   2.785   2.869   2.695 -0.6559  1.2896  1.0240
 8869TIP3    H248099   2.686   2.833   2.587  0.0768 -1.6367  1.2428
 8870TIP3   OH248100   4.876   1.985   4.538 -0.4665 -0.0896 -0.2199
 8870TIP3    H148101   4.949   1.928   4.561 -1.2784 -0.5727  1.2856
 8870TIP3    H248102   4.859   2.037   4.617 -0.6228  1.2952 -1.1138
 8871TIP3   OH248103   4.642   3.706  11.374  0.2808 -0.3750 -0.3791
 8871TIP3    H148104   4.705   3.756  11.324  0.2948 -0.4187 -0.4051
 8871TIP3    H248105   4.682   3.698  11.461  1.6013 -2.7149 -1.1050
 8872TIP3   OH248106   2.818   5.118  13.848 -0.4603  0.3130  0.7520
 8872TIP3    H148107   2.862   5.040  13.880 -0.0652  0.7470  1.2943
 8872TIP3    H248108   2.817   5.109  13.753 -0.3297 -0.2980  0.8095
 8873TIP3   OH248109   5.641   5.610   2.943 -0.1886  0.0155 -0.2279
 8873TIP3    H148110   5.601   5.678   2.998 -1.0822 -1.5635  1.1925
 8873TIP3    H248111   5.580   5.600   2.870 -0.8898 -0.3289  0.3861
 8874TIP3   OH248112   1.434   2.973   0.399 -0.4103 -0.0690  1.4043
 8874TIP3    H148113   1.512   2.920   0.413 -0.3174 -0.2559  0.2535
 8874TIP3    H248114   1.458   3.060   0.429  0.0967 -0.2190  1.4432
 8875TIP3   OH248115   4.380   5.923   0.521  0.7362  0.6491  0.0337
 8875TIP3    H148116   4.327   5.914   0.600 -2.4214  1.7480 -1.7594
 8875TIP3    H248117   4.448   5.987   0.544 -1.0742  2.1722  1.4596
 8876TIP3   OH248118   3.854   3.234   5.915  0.4176  0.7272  0.2641
 8876TIP3    H148119   3.936   3.194   5.887 -0.2454 -2.1550  2.0235
 8876TIP3    H248120   3.848   3.215   6.009 -0.6018  4.0592  1.0328
 8877TIP3   OH248121   0.572   1.786  14.530  0.3767 -0.5748 -0.2289
 8877TIP3    H148122   0.587   1.721  14.461  0.6873 -1.8741  1.0330
 8877TIP3    H248123   0.636   1.854  14.512  1.6012 -1.7014 -0.2627
 8878TIP3   OH248124   4.534   0.870  14.511  0.2867 -0.1383  0.5009
 8878TIP3    H148125   4.558   0.853  14.602 -1.3646  0.9927  1.1946
 8878TIP3    H248126   4.454   0.820  14.497  0.1395  0.2595 -0.1205
 8879TIP3   OH248127   2.139   6.643  12.313  0.2781  0.1431 -0.1044
 8879TIP3    H148128   2.079   6.626  12.385 -1.0520  1.0700 -0.9540
 8879TIP3    H248129   2.103   6.594  12.239  0.6909  0.5256 -0.5676
 8880TIP3   OH248130   4.703   3.113  15.123  0.1075 -0.8078 -0.3805
 8880TIP3    H148131   4.672   3.036  15.169  1.2094 -2.3710 -2.1362
 8880TIP3    H248132   4.721   3.083  15.034  1.6973  1.1922 -0.8169
 8881TIP3   OH248133   2.851   2.610   0.751  0.2974 -0.8556  0.1129
 8881TIP3    H148134   2.779   2.650   0.704  0.0210 -1.1169  0.3083
 8881TIP3    H248135   2.851   2.518   0.724  0.4082 -0.9105  0.2889
 8882TIP3   OH248136   3.991   2.719  10.736 -0.0182  0.8221 -0.0709
 8882TIP3    H148137   3.934   2.755  10.668  0.6083  0.6799 -0.6814
 8882TIP3    H248138   4.013   2.631  10.706  0.6977  0.9519  0.0487
 8883TIP3   OH248139   1.898   1.107  16.302 -0.5290 -0.6455 -0.6505
 8883TIP3    H148140   1.866   1.050  16.232 -0.8219 -0.4119 -0.7061
 8883TIP3    H248141   1.994   1.098  16.297 -0.4980  0.0079 -1.6329
 8884TIP3   OH248142   0.314   1.786  14.291 -0.0097  0.2210 -0.0338
 8884TIP3    H148143   0.377   1.754  14.225  0.4143  1.5974 -0.3260
 8884TIP3    H248144   0.315   1.881  14.280 -0.5312  0.4102  1.4461
 8885TIP3   OH248145   0.069   0.113   0.528  0.1641 -0.2120  0.2166
 8885TIP3    H148146   0.087   0.206   0.532  0.0871 -0.2045  0.4068
 8885TIP3    H248147   0.004   0.103   0.458 -1.3503  0.1229  1.5242
 8886TIP3   OH248148   1.635   2.318  16.863  0.1640  0.0472 -0.2333
 8886TIP3    H148149   1.555   2.370  16.858 -0.4809 -0.8253  0.5055
 8886TIP3    H248150   1.705   2.382  16.875 -0.4232  0.8240 -0.8652
 8887TIP3   OH248151   1.249   6.038  16.204  0.5687  0.3312 -0.5878
 8887TIP3    H148152   1.272   5.953  16.241 -0.1451  0.1506 -0.5321
 8887TIP3    H248153   1.306   6.101  16.248  1.3899 -0.1660 -0.9305
 8888TIP3   OH248154   3.200   2.717   3.284 -0.4210 -0.5483  0.3998
 8888TIP3    H148155   3.267   2.780   3.308 -0.0921  0.0224 -1.7877
 8888TIP3    H248156   3.126   2.770   3.253 -1.1369 -1.2026  0.9272
 8889TIP3   OH248157   0.715   5.302  12.242 -0.7066 -0.0315  0.7372
 8889TIP3    H148158   0.634   5.318  12.292 -0.0471  0.0174  1.8232
 8889TIP3    H248159   0.722   5.207  12.239 -0.4616 -0.0288  1.2143
 8890TIP3   OH248160   0.070   5.313  15.289  0.1885  0.0178  0.1665
 8890TIP3    H148161   0.163   5.328  15.307  0.3963  0.0167 -0.8084
 8890TIP3    H248162   0.036   5.272  15.368  0.9850  0.1648  0.5968
 8891TIP3   OH248163   2.038   0.067  12.293  0.5505  0.7184  0.5688
 8891TIP3    H148164   2.021  -0.027  12.297  0.5134  0.5622 -1.8103
 8891TIP3    H248165   2.133   0.074  12.306  1.2285 -0.1169 -2.8620
 8892TIP3   OH248166   5.551   1.561   2.366  0.0363  0.0824 -0.2245
 8892TIP3    H148167   5.543   1.507   2.444 -0.6994 -1.2011 -1.1536
 8892TIP3    H248168   5.490   1.633   2.381 -1.4266 -1.0864 -0.3377
 8893TIP3   OH248169   0.074   5.997  16.816  0.5789 -0.4243 -0.3406
 8893TIP3    H148170   0.120   6.081  16.817 -1.6983  0.9572  1.6787
 8893TIP3    H248171   0.128   5.938  16.869  1.0282  0.5525  0.3159
 8894TIP3   OH248172   6.515   3.790  13.477  0.3177  0.1574  0.0666
 8894TIP3    H148173   6.514   3.821  13.386 -0.5971  0.9099  0.3214
 8894TIP3    H248174   6.558   3.860  13.525  1.2958 -0.4760  0.1566
 8895TIP3   OH248175   4.215   5.458  16.226  0.0254 -0.5128  0.0331
 8895TIP3    H148176   4.265   5.536  16.203  1.0045 -1.2143 -0.2851
 8895TIP3    H248177   4.245   5.391  16.163 -2.5214 -0.5271 -1.3095
 8896TIP3   OH248178   6.126   3.547  13.485  0.0731  0.3888  0.1256
 8896TIP3    H148179   6.196   3.483  13.469 -0.0256  0.2262  0.3350
 8896TIP3    H248180   6.050   3.493  13.508  0.5450  0.6176  2.5097
 8897TIP3   OH248181   2.115   4.238  12.300 -0.1411  0.1318  0.4364
 8897TIP3    H148182   2.156   4.266  12.381  1.3294  0.6666 -0.4588
 8897TIP3    H248183   2.106   4.143  12.308  4.7533 -0.6903 -0.7232
 8898TIP3   OH248184   4.916   4.276  13.469 -0.3602  0.2262  0.3422
 8898TIP3    H148185   4.970   4.228  13.407 -1.3925 -1.8923  0.9918
 8898TIP3    H248186   4.916   4.366  13.437  3.1672  0.2726  0.1069
 8899TIP3   OH248187   0.358   4.573  11.842 -0.4909  0.1292  0.1444
 8899TIP3    H148188   0.438   4.561  11.894  1.6964  0.4125 -2.8345
 8899TIP3    H248189   0.337   4.486  11.810  0.6285  0.4511 -1.6266
 8900TIP3   OH248190   4.298   4.069  17.277  0.2210  0.1066  0.3109
 8900TIP3    H148191   4.205   4.060  17.256  0.1936 -0.4023  0.6465
 8900TIP3    H248192   4.312   4.164  17.279 -0.3201  0.1903  0.3854
 8901TIP3   OH248193   2.037   0.029  11.204  0.3031 -0.4482 -0.8787
 8901TIP3    H148194   2.121   0.055  11.166  0.3645  0.2142 -0.3091
 8901TIP3    H248195   1.972   0.075  11.151  0.2537 -1.3841 -1.6654
 8902TIP3   OH248196   3.062   5.837  14.209 -1.0258  0.1906 -0.0878
 8902TIP3    H148197   3.133   5.789  14.250 -0.4506  2.0293  1.1797
 8902TIP3    H248198   2.992   5.837  14.275 -1.6264 -0.2258 -0.7017
 8903TIP3   OH248199   3.398   2.254  14.143 -0.4526 -0.1725 -0.2321
 8903TIP3    H148200   3.408   2.290  14.055  0.6729 -0.1712 -0.1180
 8903TIP3    H248201   3.411   2.160  14.132  1.4915  0.0034  0.1578
 8904TIP3   OH248202   5.450   2.842  14.728 -0.1670 -0.3876  0.0181
 8904TIP3    H148203   5.371   2.808  14.687 -0.8680 -1.6198  2.2041
 8904TIP3    H248204   5.421   2.919  14.778  0.6542  1.0613 -1.6322
 8905TIP3   OH248205   4.746   3.182   5.327  0.1406  0.2308 -0.1931
 8905TIP3    H148206   4.725   3.138   5.409 -0.8513  0.8215 -0.1150
 8905TIP3    H248207   4.765   3.273   5.353  0.9572  0.1537 -0.4899
 8906TIP3   OH248208   4.097   3.614   1.376  0.9290  0.3462  0.0971
 8906TIP3    H148209   4.099   3.670   1.298  1.5212 -0.6096 -0.6035
 8906TIP3    H248210   4.011   3.573   1.374  1.3423 -0.5255 -0.7028
 8907TIP3   OH248211   3.207   1.592   1.239 -0.1413  0.4271  0.1237
 8907TIP3    H148212   3.117   1.606   1.267  0.2092  0.7241  1.1378
 8907TIP3    H248213   3.254   1.670   1.270  0.6694 -0.2272  0.5552
 8908TIP3   OH248214   6.253   2.647   1.598  0.2048  0.4426  0.5224
 8908TIP3    H148215   6.272   2.594   1.675  2.3906  0.1640 -0.1435
 8908TIP3    H248216   6.268   2.737   1.627  1.0437  0.3368  0.4405
 8909TIP3   OH248217   5.836   4.921  12.019 -0.2519 -0.4018  0.8486
 8909TIP3    H148218   5.754   4.878  12.045 -0.2197 -0.3745  0.9985
 8909TIP3    H248219   5.808   4.998  11.970 -0.3305 -0.1133  1.3330
 8910TIP3   OH248220   0.132   5.788   5.400  0.6761 -0.2516 -0.4078
 8910TIP3    H148221   0.119   5.836   5.482  0.4615  1.5627 -1.4550
 8910TIP3    H248222   0.227   5.783   5.390  0.6951  0.6702 -0.6904
 8911TIP3   OH248223   1.199   0.920  16.887  0.1919  0.0265  0.0927
 8911TIP3    H148224   1.142   0.989  16.921  0.1046  0.3940 -0.7645
 8911TIP3    H248225   1.170   0.908  16.797  3.2231  2.2185 -1.3481
 8912TIP3   OH248226   1.815   1.067   4.951  0.2119  0.7009  0.0899
 8912TIP3    H148227   1.811   1.149   4.999  2.1746  1.6312 -1.1896
 8912TIP3    H248228   1.783   1.089   4.863  1.0260  0.1880 -0.3466
 8913TIP3   OH248229   0.961   4.874  12.259 -0.3278  0.0757  0.0164
 8913TIP3    H148230   0.946   4.785  12.225 -1.2303 -0.0911  0.8238
 8913TIP3    H248231   0.874   4.907  12.278 -0.0665  1.5120 -1.1644
 8914TIP3   OH248232   2.653   3.168   4.645  0.0091  0.1602  0.3629
 8914TIP3    H148233   2.695   3.181   4.560  0.7819  1.1582  0.8723
 8914TIP3    H248234   2.711   3.108   4.692 -1.4222 -2.0150 -0.4729
 8915TIP3   OH248235   6.337   0.525  16.925 -0.3702  0.8486 -0.0666
 8915TIP3    H148236   6.388   0.524  17.007 -0.4750 -1.4245  0.0258
 8915TIP3    H248237   6.248   0.543  16.953 -0.0967  2.0971  0.0675
 8916TIP3   OH248238   5.577   3.112   6.936 -0.1535  0.5157  0.0787
 8916TIP3    H148239   5.669   3.114   6.908 -0.7200 -0.2656 -2.0251
 8916TIP3    H248240   5.560   3.020   6.956  0.3545  1.0788  3.7879
 8917TIP3   OH248241   2.173   1.471   3.912  0.8788  0.1115  0.6555
 8917TIP3    H148242   2.245   1.409   3.917  1.7692  0.9909 -0.6118
 8917TIP3    H248243   2.213   1.552   3.880 -0.7149  0.5387 -0.3733
 8918TIP3   OH248244   3.686   0.847  11.500 -0.5147 -0.0072 -0.4090
 8918TIP3    H148245   3.672   0.929  11.546 -0.5934  0.7799 -1.7937
 8918TIP3    H248246   3.598   0.819  11.473 -0.7471 -1.6122  1.7445
 8919TIP3   OH248247   4.847   5.594  16.075 -0.2336 -0.0408 -0.0338
 8919TIP3    H148248   4.898   5.664  16.033 -0.6438 -0.9817 -2.2645
 8919TIP3    H248249   4.789   5.639  16.136 -0.8329  1.6429 -1.7741
 8920TIP3   OH248250   3.475   2.784  11.072  0.2318  0.2448 -0.7403
 8920TIP3    H148251   3.553   2.806  11.021  1.1162 -1.4770 -0.2096
 8920TIP3    H248252   3.471   2.851  11.140  2.2805 -0.5769  0.2699
 8921TIP3   OH248253   5.103   5.400  11.894 -0.0182  0.4095 -0.0894
 8921TIP3    H148254   5.118   5.416  11.801  1.9425 -0.0336  0.0991
 8921TIP3    H248255   5.062   5.480  11.926  1.9357  1.7717 -0.7983
 8922TIP3   OH248256   0.246   1.257  13.507 -0.1952  0.3837 -0.1622
 8922TIP3    H148257   0.190   1.278  13.582  1.2956 -0.3055  1.2049
 8922TIP3    H248258   0.327   1.225  13.546  0.3985 -0.6243 -2.0919
 8923TIP3   OH248259   6.005   5.670  14.643 -0.1332 -0.2007  0.1467
 8923TIP3    H148260   5.974   5.664  14.733 -0.5865  2.0060  0.2011
 8923TIP3    H248261   5.926   5.676  14.590  0.0427  2.6951  0.0433
 8924TIP3   OH248262   4.892   0.197  13.895 -0.0898  0.9150 -0.2617
 8924TIP3    H148263   4.934   0.283  13.887  0.4183  0.8924  1.6539
 8924TIP3    H248264   4.856   0.196  13.983 -2.0381 -0.0265 -1.0185
 8925TIP3   OH248265   6.387   0.310   1.409 -0.6394  0.3121  0.0766
 8925TIP3    H148266   6.347   0.392   1.380 -1.6972  0.1349  0.9891
 8925TIP3    H248267   6.459   0.296   1.348 -0.7793  1.6397 -0.4244
 8926TIP3   OH248268   3.288   5.746  15.667 -0.1881  0.0817  0.3422
 8926TIP3    H148269   3.286   5.650  15.671  0.6243  0.0799  1.1123
 8926TIP3    H248270   3.260   5.767  15.578  4.1362 -1.0748 -1.5137
 8927TIP3   OH248271   4.908   3.602  13.561 -0.4144  0.1451  0.5354
 8927TIP3    H148272   4.995   3.606  13.601 -0.1358 -0.5164  0.0168
 8927TIP3    H248273   4.874   3.516  13.586  0.3843 -0.9595 -1.8392
 8928TIP3   OH248274   4.105   4.774  16.064 -0.3912  0.8575  0.1778
 8928TIP3    H148275   4.024   4.797  16.108 -0.4061 -0.7664  1.0677
 8928TIP3    H248276   4.174   4.794  16.128 -0.4912 -2.6951  1.6146
 8929TIP3   OH248277   0.651   0.583   4.403 -0.3660 -0.3197  0.0194
 8929TIP3    H148278   0.683   0.610   4.489 -0.9297  1.9629 -0.4087
 8929TIP3    H248279   0.707   0.630   4.341 -1.5385  0.0471 -0.8012
 8930TIP3   OH248280   0.774   4.792  14.827  0.0697 -0.2659 -0.0145
 8930TIP3    H148281   0.770   4.784  14.732 -0.6278 -1.4429  0.0925
 8930TIP3    H248282   0.868   4.791  14.847  0.2781  1.3903 -0.7638
 8931TIP3   OH248283   5.587   5.450  15.956  0.0998 -0.1995 -0.2336
 8931TIP3    H148284   5.682   5.452  15.964  0.2548 -1.9397 -1.1893
 8931TIP3    H248285   5.557   5.408  16.037  0.3149 -1.4529 -0.7851
 8932TIP3   OH248286   5.278   1.147  11.556 -0.2668 -0.4301 -0.1663
 8932TIP3    H148287   5.192   1.111  11.577  0.3877 -2.7631 -1.1466
 8932TIP3    H248288   5.273   1.169  11.463 -0.1352  0.5190  0.0424
 8933TIP3   OH248289   5.553   1.741   4.269 -0.6682  0.2662  0.4468
 8933TIP3    H148290   5.639   1.775   4.243 -0.6667 -0.1179 -0.0694
 8933TIP3    H248291   5.493   1.813   4.254 -0.4349  0.5350  0.7997
 8934TIP3   OH248292   5.829   6.746  11.812 -0.0580  0.2255  0.2073
 8934TIP3    H148293   5.889   6.677  11.840 -1.8165 -1.8531 -0.8868
 8934TIP3    H248294   5.780   6.769  11.891  0.9947  0.7747  0.7275
 8935TIP3   OH248295   5.814   3.970  15.823  0.1724  0.2130  0.0614
 8935TIP3    H148296   5.906   3.955  15.844  0.0110 -1.4866 -0.2997
 8935TIP3    H248297   5.807   3.953  15.729 -0.5657  0.0248  0.1385
 8936TIP3   OH248298   3.581   4.389  14.509 -0.1983 -0.6917  0.1824
 8936TIP3    H148299   3.608   4.466  14.457  0.8289 -0.6721  0.7151
 8936TIP3    H248300   3.623   4.315  14.465  0.3955 -0.7150  0.7847
 8937TIP3   OH248301   6.206   1.846  16.727  0.2150 -0.0980 -0.4908
 8937TIP3    H148302   6.290   1.843  16.682  1.7671  1.4736  2.0295
 8937TIP3    H248303   6.163   1.925  16.694  1.0635  0.7029  0.2663
 8938TIP3   OH248304   2.768   4.627   2.660 -0.3920 -0.5416  0.7583
 8938TIP3    H148305   2.757   4.594   2.572  1.9930 -0.3701  0.3287
 8938TIP3    H248306   2.721   4.710   2.661 -0.0688 -0.3310 -0.5097
 8939TIP3   OH248307   1.081   3.484   0.195 -0.5239 -0.2966  0.0625
 8939TIP3    H148308   1.054   3.562   0.148 -3.0902 -0.8758  0.4107
 8939TIP3    H248309   1.143   3.515   0.261 -1.8254  1.5727  0.5004
 8940TIP3   OH248310   1.071   3.552  14.643 -0.4530 -0.3316 -0.4628
 8940TIP3    H148311   1.040   3.469  14.679  2.8226 -1.0240  1.2092
 8940TIP3    H248312   1.037   3.619  14.703  0.5480 -0.9899  0.9199
 8941TIP3   OH248313   1.535   4.842   2.594  0.0590  0.3046 -0.1887
 8941TIP3    H148314   1.579   4.757   2.588  0.5760  0.6201 -1.0752
 8941TIP3    H248315   1.488   4.839   2.677  1.4734 -0.1865  0.6263
 8942TIP3   OH248316   3.179   0.885  12.651 -0.1307  0.2351 -0.3487
 8942TIP3    H148317   3.145   0.900  12.739 -1.1208 -1.4282 -0.4173
 8942TIP3    H248318   3.218   0.969  12.626  3.0834 -0.0567  2.9083
 8943TIP3   OH248319   2.609   3.030  13.307  0.5210 -0.3886 -0.9302
 8943TIP3    H148320   2.643   3.026  13.397  0.7000 -0.9489 -1.0213
 8943TIP3    H248321   2.598   3.123  13.290 -0.0465 -0.2977 -0.1192
 8944TIP3   OH248322   6.347   2.117   1.636  0.6877  0.1144 -0.4021
 8944TIP3    H148323   6.314   2.061   1.705  1.8847 -0.1406 -0.0020
 8944TIP3    H248324   6.327   2.206   1.666  0.2517 -0.0343 -0.2455
 8945TIP3   OH248325   6.417   6.571  11.911 -0.0802  0.6675 -0.6221
 8945TIP3    H148326   6.430   6.546  11.819 -0.4871  2.5359 -1.2365
 8945TIP3    H248327   6.401   6.666  11.908  1.8870  1.1752  1.5723
 8946TIP3   OH248328   5.071   4.660   3.887 -0.1263 -0.1149  0.5771
 8946TIP3    H148329   4.987   4.618   3.909  1.3643 -3.2457  0.7851
 8946TIP3    H248330   5.052   4.711   3.808 -2.1168 -1.1047  0.3396
 8947TIP3   OH248331   0.652   0.610   1.535 -0.4339  0.1955 -0.1215
 8947TIP3    H148332   0.720   0.595   1.600  0.8654 -0.2538 -1.5255
 8947TIP3    H248333   0.662   0.703   1.512 -1.1324  0.4484  0.5547
 8948TIP3   OH248334   0.324   6.429   5.482 -0.3126  0.6371  0.4618
 8948TIP3    H148335   0.399   6.489   5.487  1.5194 -1.4859  0.2241
 8948TIP3    H248336   0.274   6.459   5.407  1.1612  1.2244 -0.3390
 8949TIP3   OH248337   0.574   4.746   0.703 -0.5202  0.7729 -0.1108
 8949TIP3    H148338   0.601   4.829   0.664  0.4818  0.9736  0.9657
 8949TIP3    H248339   0.523   4.771   0.780 -1.5427  0.3748 -0.6318
 8950TIP3   OH248340   1.526   0.748  14.417 -0.3466 -0.5763 -0.5924
 8950TIP3    H148341   1.555   0.698  14.341 -0.4664 -0.7394 -0.5304
 8950TIP3    H248342   1.579   0.828  14.415 -0.1825 -0.6889 -0.7112
 8951TIP3   OH248343   4.607   0.189  13.510  0.4531  0.2417  0.0831
 8951TIP3    H148344   4.638   0.245  13.439  2.0269 -0.6513  0.0341
 8951TIP3    H248345   4.533   0.142  13.472  0.3520  0.8322 -0.4868
 8952TIP3   OH248346   2.033   0.118   0.105 -0.2952  0.5094  0.9922
 8952TIP3    H148347   1.987   0.107   0.022 -1.1770  0.5661  1.4612
 8952TIP3    H248348   2.047   0.029   0.137 -0.3845  0.5050  1.0177
 8953TIP3   OH248349   0.422   5.795   4.341  0.3053 -0.2258  0.0404
 8953TIP3    H148350   0.457   5.862   4.282  1.3756  2.0195  2.9961
 8953TIP3    H248351   0.330   5.819   4.352  0.6455  0.7229  0.9592
 8954TIP3   OH248352   0.662   2.005  14.361  0.2036  0.0781 -0.4851
 8954TIP3    H148353   0.754   2.028  14.373 -0.2759  1.2636  1.2957
 8954TIP3    H248354   0.660   1.955  14.279  2.4518 -0.2182 -0.4145
 8955TIP3   OH248355   6.772   0.646   5.992  0.0557  0.3472 -0.1694
 8955TIP3    H148356   6.705   0.644   5.924  0.3615  0.2908 -0.4682
 8955TIP3    H248357   6.854   0.625   5.947  0.3492  0.8810  0.1033
 8956TIP3   OH248358   5.908   2.536   1.084 -0.1305  0.1473 -0.5387
 8956TIP3    H148359   5.836   2.536   1.021  1.5399 -0.5181 -2.5537
 8956TIP3    H248360   5.987   2.546   1.031  1.5730 -2.7181  1.1893
 8957TIP3   OH248361   4.776   1.748   3.700  0.0116  0.0607 -0.7274
 8957TIP3    H148362   4.709   1.684   3.677 -0.4825  0.2490  0.1144
 8957TIP3    H248363   4.780   1.744   3.796 -1.3654  2.5763 -0.4890
 8958TIP3   OH248364   6.479   3.344   2.055 -0.3898  0.2417 -0.2370
 8958TIP3    H148365   6.557   3.390   2.086  0.1189  1.2251 -2.7239
 8958TIP3    H248366   6.475   3.365   1.962 -3.1860 -0.4636 -0.3479
 8959TIP3   OH248367   5.517   6.814   0.401 -0.4329  0.0491  0.6793
 8959TIP3    H148368   5.429   6.806   0.438 -1.3605  0.0560 -1.4130
 8959TIP3    H248369   5.532   6.732   0.355 -0.2140  0.8448 -0.7196
 8960TIP3   OH248370   4.473   1.887   5.719 -0.4075 -0.1545 -0.3280
 8960TIP3    H148371   4.456   1.980   5.710  0.6788  0.1435  0.4429
 8960TIP3    H248372   4.546   1.882   5.780 -0.4018 -1.5102 -0.4125
 8961TIP3   OH248373   4.174   2.682   3.162 -0.2038 -0.1793 -0.2320
 8961TIP3    H148374   4.122   2.750   3.206  1.2099  1.0573 -0.3829
 8961TIP3    H248375   4.243   2.731   3.117  1.4571 -1.7911  0.4473
 8962TIP3   OH248376   1.781   5.862  15.158  0.0621 -0.2181  0.0270
 8962TIP3    H148377   1.799   5.817  15.241  0.6778 -2.2949 -1.1607
 8962TIP3    H248378   1.725   5.801  15.110  1.5788 -0.1078 -1.9784
 8963TIP3   OH248379   3.735   0.731   5.417 -0.1797  0.2215 -0.3791
 8963TIP3    H148380   3.665   0.677   5.456  0.8207  0.0502  1.2776
 8963TIP3    H248381   3.778   0.673   5.355  0.4817 -0.7199  0.9234
 8964TIP3   OH248382   0.257   3.804  13.107 -0.6867 -0.1827  0.0835
 8964TIP3    H148383   0.331   3.819  13.166  0.4532  0.7031 -1.4775
 8964TIP3    H248384   0.243   3.709  13.109  3.5965 -1.1938 -2.9399
 8965TIP3   OH248385   3.240   6.330   4.765  0.4976 -0.0405  0.0376
 8965TIP3    H148386   3.185   6.408   4.760 -0.8179 -0.8881  0.5326
 8965TIP3    H248387   3.221   6.293   4.852  0.2528 -1.4827 -0.6033
 8966TIP3   OH248388   3.872   6.181  16.078  1.2464 -0.2509 -0.0934
 8966TIP3    H148389   3.944   6.144  16.127  1.0078 -2.4200 -1.2457
 8966TIP3    H248390   3.826   6.105  16.041  0.2013  1.1600 -1.9120
 8967TIP3   OH248391   0.051   6.172   0.029  0.4211 -0.5929  0.5139
 8967TIP3    H148392   0.012   6.133   0.107  0.5748  0.3031  1.0561
 8967TIP3    H248393   0.123   6.113   0.006 -0.3161 -1.4634  0.3780
 8968TIP3   OH248394   1.409   3.906   4.822  0.3644 -0.6760  0.3671
 8968TIP3    H148395   1.497   3.886   4.856 -0.6715  1.0113  4.7962
 8968TIP3    H248396   1.419   3.993   4.783  0.4956  0.1028  2.0543
 8969TIP3   OH248397   5.122   3.997  13.771  0.5058  0.5722 -0.1314
 8969TIP3    H148398   5.157   4.024  13.686 -0.4215  0.4699 -0.5661
 8969TIP3    H248399   5.033   3.968  13.751  0.1408  0.9164  0.9399
 8970TIP3   OH248400   1.158   4.633  16.205 -0.0001  0.2117 -0.2513
 8970TIP3    H148401   1.142   4.557  16.262 -1.5121  1.2713  0.7979
 8970TIP3    H248402   1.233   4.676  16.244  0.7923 -0.6373 -0.7810
 8971TIP3   OH248403   3.688   5.916   3.436  0.3817  0.3992  0.6309
 8971TIP3    H148404   3.623   5.847   3.444  0.0249  0.7568  0.8650
 8971TIP3    H248405   3.729   5.901   3.351  0.2671 -0.0616  0.6563
 8972TIP3   OH248406   4.178   0.690  15.588 -0.2860 -0.0085 -0.6234
 8972TIP3    H148407   4.199   0.775  15.627  2.2429 -1.3005  1.0622
 8972TIP3    H248408   4.138   0.640  15.659 -0.2737 -0.7604 -1.1333
 8973TIP3   OH248409   5.077   2.059   2.810 -0.0437  0.4110 -0.2722
 8973TIP3    H148410   5.077   1.972   2.770  1.6932 -0.0370  0.5788
 8973TIP3    H248411   5.016   2.052   2.883  1.8123 -0.9259  1.2836
 8974TIP3   OH248412   0.380   5.023  14.425 -0.1475 -0.8548 -0.3760
 8974TIP3    H148413   0.455   4.974  14.455 -0.7554 -1.2556  0.5302
 8974TIP3    H248414   0.305   4.986  14.472 -1.0767 -1.1486 -1.9919
 8975TIP3   OH248415   0.058   1.833   1.628  0.6040 -1.2099 -0.0215
 8975TIP3    H148416   0.132   1.777   1.652  2.0594  0.2389 -0.9439
 8975TIP3    H248417   0.043   1.814   1.535  1.0680 -0.1488 -0.3282
 8976TIP3   OH248418   0.872   4.208  15.788  0.0056  0.1312 -0.0756
 8976TIP3    H148419   0.960   4.231  15.816 -0.1107  0.2174  0.2167
 8976TIP3    H248420   0.823   4.290  15.791  0.0498  0.1928 -0.7569
 8977TIP3   OH248421   5.458   1.148   2.650  0.5684  0.5887  0.5166
 8977TIP3    H148422   5.527   1.206   2.616 -0.5678  1.9692  0.4598
 8977TIP3    H248423   5.503   1.094   2.714  1.7208  1.4425  0.4787
 8978TIP3   OH248424   0.554   2.645  11.474 -0.0030  0.0698 -0.1227
 8978TIP3    H148425   0.627   2.701  11.448  0.9502 -1.3257 -0.6115
 8978TIP3    H248426   0.595   2.561  11.494 -1.2498 -0.1559  1.7005
 8979TIP3   OH248427   4.252   5.082   0.655 -0.0701  0.7876 -0.0902
 8979TIP3    H148428   4.192   5.029   0.708  0.6194 -0.1897 -0.2549
 8979TIP3    H248429   4.331   5.088   0.707  0.2533  0.6853 -0.5612
 8980TIP3   OH248430   3.305   4.149   0.349  0.0257 -0.3914 -0.1340
 8980TIP3    H148431   3.393   4.126   0.379  0.2795 -0.9703 -1.2409
 8980TIP3    H248432   3.316   4.234   0.306 -0.1759  0.0475  0.6690
 8981TIP3   OH248433   0.200   0.802  16.501 -0.0620 -0.3539  0.1935
 8981TIP3    H148434   0.252   0.869  16.457  1.5790 -1.9473 -0.4097
 8981TIP3    H248435   0.228   0.806  16.593 -0.3624  0.1168  0.2694
 8982TIP3   OH248436   0.157   4.952   2.365  0.0115 -0.5291 -0.2551
 8982TIP3    H148437   0.211   4.874   2.359  0.2529 -0.2593 -3.3569
 8982TIP3    H248438   0.190   5.009   2.296 -3.7435 -0.0757 -1.8997
 8983TIP3   OH248439   5.842   4.625  15.658 -0.1838  0.3697 -0.5246
 8983TIP3    H148440   5.793   4.546  15.635 -1.3689  1.1235 -0.6594
 8983TIP3    H248441   5.797   4.660  15.735 -0.7732  1.8288 -1.4708
 8984TIP3   OH248442   5.726   4.365   3.887  0.0571 -0.5917  0.0383
 8984TIP3    H148443   5.688   4.444   3.925  1.3787  1.0243 -1.7720
 8984TIP3    H248444   5.790   4.335   3.952  0.6217  0.7375  0.1260
 8985TIP3   OH248445   5.066   4.693  15.531 -0.4283  0.3389  0.1367
 8985TIP3    H148446   5.095   4.755  15.465  1.3243 -0.8745 -0.3117
 8985TIP3    H248447   5.098   4.729  15.614  0.7032 -0.0116 -0.1363
 8986TIP3   OH248448   3.120   3.983  11.332  0.0087  0.0593 -0.4758
 8986TIP3    H148449   3.195   3.977  11.273  0.3523  2.5638 -0.4043
 8986TIP3    H248450   3.071   3.901  11.318  1.9512 -0.9775 -1.5771
 8987TIP3   OH248451   4.677   2.527   2.376 -0.5379 -0.1289  0.3056
 8987TIP3    H148452   4.652   2.454   2.319  0.9321  0.0665 -0.6451
 8987TIP3    H248453   4.707   2.595   2.316  2.0712 -0.2916  1.2826
 8988TIP3   OH248454   2.756   6.305  13.710  0.1482 -0.4700  0.3640
 8988TIP3    H148455   2.775   6.319  13.803  2.0859 -0.1924 -0.0265
 8988TIP3    H248456   2.757   6.393  13.672 -0.6606 -0.5791  0.0817
 8989TIP3   OH248457   5.695   4.631   4.395  0.3884  0.0376  0.2699
 8989TIP3    H148458   5.764   4.641   4.329  0.9591 -0.9117  0.7016
 8989TIP3    H248459   5.615   4.661   4.351  1.1201  1.5114 -0.1163
 8990TIP3   OH248460   5.517   1.604   5.773  0.0078  0.2507 -0.0705
 8990TIP3    H148461   5.495   1.681   5.826  0.8746  0.2985  0.2309
 8990TIP3    H248462   5.584   1.635   5.712 -1.1070  0.2422 -1.3505
 8991TIP3   OH248463   2.731   3.497   3.203  0.1129  0.2295  0.0888
 8991TIP3    H148464   2.702   3.416   3.244  0.2670  1.3698  2.6528
 8991TIP3    H248465   2.668   3.513   3.133 -0.3949 -1.6349  0.0614
 8992TIP3   OH248466   0.959   2.230  16.197 -0.5340  0.9196  0.5141
 8992TIP3    H148467   0.989   2.181  16.273  1.4943  0.0219 -0.7855
 8992TIP3    H248468   0.864   2.218  16.196 -0.2705 -1.7050  1.1147
 8993TIP3   OH248469   0.172   6.588   2.051  0.1714  0.6407  0.2660
 8993TIP3    H148470   0.192   6.628   1.967 -0.0024  1.4163  0.5854
 8993TIP3    H248471   0.169   6.661   2.113 -0.6979  0.2063  0.7599
 8994TIP3   OH248472   1.036   2.640  11.217  0.1612  0.2694 -0.0515
 8994TIP3    H148473   1.015   2.561  11.166 -2.2524 -0.7540  2.3294
 8994TIP3    H248474   0.999   2.712  11.166 -1.6225 -0.6572 -0.1296
 8995TIP3   OH248475   0.934   2.272  16.840 -0.4412  0.4861  0.0233
 8995TIP3    H148476   0.897   2.202  16.786  0.5210  0.0079 -0.0315
 8995TIP3    H248477   1.023   2.283  16.807 -0.3729  1.3140  0.4511
 8996TIP3   OH248478   6.397   6.328  10.823  0.2390 -0.0602 -0.3667
 8996TIP3    H148479   6.412   6.295  10.911  1.0256  2.3030  0.4457
 8996TIP3    H248480   6.302   6.340  10.818  0.0308 -1.4763 -0.3813
 8997TIP3   OH248481   6.553   1.777  10.946  0.2022 -0.1806  0.4634
 8997TIP3    H148482   6.523   1.710  10.884 -1.8027  0.1592  0.9986
 8997TIP3    H248483   6.486   1.778  11.014 -0.1795  2.8040  0.1632
 8998TIP3   OH248484   1.175   6.771   1.189  1.0934 -0.5072 -0.0114
 8998TIP3    H148485   1.167   6.793   1.096  0.1234  0.3059  0.2486
 8998TIP3    H248486   1.236   6.836   1.223  0.3727  0.0847  0.1874
 8999TIP3   OH248487   3.239   3.430   0.237 -0.3612  0.7423  0.6512
 8999TIP3    H148488   3.284   3.429   0.322  1.7653  1.4884 -0.4141
 8999TIP3    H248489   3.166   3.491   0.250 -0.4109  0.4186  2.0932
 9000TIP3   OH248490   5.365   2.072   2.653 -0.2064 -0.4267 -0.4626
 9000TIP3    H148491   5.392   2.061   2.745 -1.2128  1.1871  0.0784
 9000TIP3    H248492   5.280   2.116   2.659  0.2284  0.7270 -2.1918
 9001TIP3   OH248493   1.865   0.790  14.210  0.2482  0.5003 -0.6671
 9001TIP3    H148494   1.930   0.738  14.258  1.1401 -0.1465 -2.5072
 9001TIP3    H248495   1.787   0.735  14.209 -0.2973  1.1391  1.2602
 9002TIP3   OH248496   5.521   0.008   3.797 -0.0803  0.0731 -0.2927
 9002TIP3    H148497   5.555  -0.075   3.832  1.5774  1.5777  1.9630
 9002TIP3    H248498   5.592   0.041   3.742 -1.5148 -0.8324 -2.8701
 9003TIP3   OH248499   3.493   1.846   5.252  0.3233  0.3350  0.1138
 9003TIP3    H148500   3.492   1.825   5.346 -0.8597  0.6407  0.1807
 9003TIP3    H248501   3.407   1.818   5.220  1.0176 -0.5569 -1.0759
 9004TIP3   OH248502   4.408   2.842   2.802 -0.0250  0.4890  0.3886
 9004TIP3    H148503   4.449   2.920   2.841  1.4391 -0.5259  0.9752
 9004TIP3    H248504   4.441   2.769   2.855 -1.2546 -0.5573 -0.2360
 9005TIP3   OH248505   0.097   3.776  11.093 -0.0990  0.1640 -0.1813
 9005TIP3    H148506   0.111   3.685  11.067  0.6652  0.1717  0.1648
 9005TIP3    H248507   0.170   3.823  11.052 -0.3555  0.5827 -0.1632
 9006TIP3   OH248508   1.920   3.608  13.613 -0.1127  0.5720  0.0862
 9006TIP3    H148509   1.864   3.620  13.537  0.3587 -0.2496 -0.4029
 9006TIP3    H248510   1.940   3.514  13.614 -0.5262  0.4704  1.5086
 9007TIP3   OH248511   5.686   6.124   3.315 -0.0521 -0.7298  0.4465
 9007TIP3    H148512   5.681   6.046   3.371  1.2595 -1.2836 -0.1618
 9007TIP3    H248513   5.759   6.106   3.256 -0.2467  0.6298 -0.2414
 9008TIP3   OH248514   1.458   0.764  13.579 -0.2411 -0.1216  1.0259
 9008TIP3    H148515   1.521   0.789  13.511 -2.3443  0.7300 -0.7534
 9008TIP3    H248516   1.396   0.706  13.535 -0.8084 -0.8191  2.6530
 9009TIP3   OH248517   5.922   5.577   3.275  0.1777 -0.1375  0.0614
 9009TIP3    H148518   5.973   5.559   3.354 -0.6457 -1.7842  0.2588
 9009TIP3    H248519   5.951   5.664   3.247  1.4565 -0.0938  1.4057
 9010TIP3   OH248520   6.466   4.234  10.952 -1.2536  0.8029 -0.1840
 9010TIP3    H148521   6.392   4.182  10.981 -0.3167 -0.0312  0.8052
 9010TIP3    H248522   6.441   4.325  10.972 -2.9271  0.8008 -1.9884
 9011TIP3   OH248523   3.471   1.031   4.283 -0.3887  0.0295 -0.7048
 9011TIP3    H148524   3.493   0.944   4.314  0.1860  0.4408  0.0753
 9011TIP3    H248525   3.553   1.068   4.251 -0.2235  0.9172  0.6080
 9012TIP3   OH248526   1.609   0.505  12.635  0.0687 -0.1439 -0.3197
 9012TIP3    H148527   1.653   0.589  12.631 -0.6007  0.2257 -0.1355
 9012TIP3    H248528   1.522   0.525  12.671  0.5044 -1.1433  1.3731
 9013TIP3   OH248529   3.221   1.776   5.159 -0.2217 -0.1257 -0.6989
 9013TIP3    H148530   3.148   1.728   5.197  0.6055  0.2100  1.4457
 9013TIP3    H248531   3.196   1.868   5.166  1.0141  0.0972  1.5728
 9014TIP3   OH248532   1.508   2.556  16.873  0.3917 -0.2664 -0.2223
 9014TIP3    H148533   1.573   2.602  16.926  0.2483 -0.1499 -0.1468
 9014TIP3    H248534   1.507   2.603  16.790 -1.5229  1.4560  0.6780
 9015TIP3   OH248535   5.828   2.394  14.604 -0.2591 -0.4057 -0.8218
 9015TIP3    H148536   5.859   2.310  14.570 -0.6948 -1.3840  1.0745
 9015TIP3    H248537   5.740   2.374  14.638 -1.1856  1.2841 -2.0926
 9016TIP3   OH248538   6.046   1.272  16.605  0.2867 -0.4967 -0.4601
 9016TIP3    H148539   5.979   1.278  16.537  0.3243 -0.0931 -0.4650
 9016TIP3    H248540   5.998   1.248  16.684 -0.3957  2.7783  0.2955
 9017TIP3   OH248541   5.378   3.965   2.165 -0.6257 -0.0047 -0.5865
 9017TIP3    H148542   5.441   3.901   2.197  1.0339  2.1838  0.8347
 9017TIP3    H248543   5.413   3.994   2.081  1.9567  3.0761  1.3113
 9018TIP3   OH248544   3.971   4.481   6.708  0.1998  0.4572 -0.3676
 9018TIP3    H148545   3.885   4.464   6.670 -1.3287  1.7737  2.1544
 9018TIP3    H248546   4.002   4.395   6.737 -0.8875  0.1104 -0.1723
 9019TIP3   OH248547   4.150   1.928  13.030  0.1591  0.2052  0.0913
 9019TIP3    H148548   4.079   1.931  12.967 -0.7369 -0.3947  1.0460
 9019TIP3    H248549   4.208   1.859  12.999  0.6914  1.1411 -1.0491
 9020TIP3   OH248550   2.733   2.430  15.965 -0.1657 -0.0336  0.5844
 9020TIP3    H148551   2.761   2.364  15.902  0.7001  0.6728  0.2085
 9020TIP3    H248552   2.786   2.415  16.043 -0.9856 -0.6820  1.0271
 9021TIP3   OH248553   0.904   2.530   1.705 -0.1599 -0.1679  0.4193
 9021TIP3    H148554   0.918   2.470   1.631 -0.5063  0.5332 -0.2274
 9021TIP3    H248555   0.906   2.474   1.782  1.5264 -0.7561 -0.0028
 9022TIP3   OH248556   4.216   0.095  11.756 -0.2789 -0.4600  0.1511
 9022TIP3    H148557   4.215   0.021  11.817 -0.7772 -1.1729 -0.6919
 9022TIP3    H248558   4.127   0.097  11.721  0.1257 -0.3401 -0.8761
 9023TIP3   OH248559   3.468   1.948  13.458 -1.2583 -1.1050  0.2272
 9023TIP3    H148560   3.517   2.018  13.414 -1.9662 -1.8856 -1.9166
 9023TIP3    H248561   3.409   1.993  13.518  1.6993 -0.0992  2.7031
 9024TIP3   OH248562   1.641   2.582  11.724 -0.2488  0.1966  0.0418
 9024TIP3    H148563   1.719   2.566  11.671  0.4255  1.5814  0.5552
 9024TIP3    H248564   1.595   2.652  11.678 -2.2407 -1.8549 -1.2796
 9025TIP3   OH248565   2.867   1.807   4.551  0.3091 -0.0695 -0.7035
 9025TIP3    H148566   2.894   1.734   4.495 -1.0277  0.1379 -1.6578
 9025TIP3    H248567   2.858   1.881   4.490  0.3349  0.5522  0.0415
 9026TIP3   OH248568   6.672   4.255  12.895 -0.2774 -0.3247  0.0879
 9026TIP3    H148569   6.704   4.273  12.984  0.9872 -2.1998  0.0738
 9026TIP3    H248570   6.684   4.161  12.884 -2.9768 -0.6325 -1.1131
 9027TIP3   OH248571   2.725   6.629  16.955 -0.4468  0.3403 -0.5166
 9027TIP3    H148572   2.806   6.673  16.978 -0.2384 -0.5713  0.6103
 9027TIP3    H248573   2.748   6.536  16.952 -0.8415  0.2437 -2.9429
 9028TIP3   OH248574   6.744   5.883  16.144  0.3910  0.4500  0.3700
 9028TIP3    H148575   6.816   5.844  16.194  0.8865  0.7006 -0.1307
 9028TIP3    H248576   6.765   5.862  16.053 -0.1075  0.6358  0.2097
 9029TIP3   OH248577   1.689   6.298   1.311 -0.0274 -0.0468 -0.1705
 9029TIP3    H148578   1.744   6.219   1.316 -0.5031 -0.3690  0.0230
 9029TIP3    H248579   1.654   6.309   1.399 -1.2355 -0.5496 -0.5605
 9030TIP3   OH248580   3.135   5.857   4.554 -0.0193 -0.4153  0.5279
 9030TIP3    H148581   3.052   5.901   4.573  0.7486  0.3603  2.3554
 9030TIP3    H248582   3.145   5.865   4.460 -3.0060 -2.3957 -0.0946
 9031TIP3   OH248583   0.698   6.304   2.433 -0.0668  0.0849  0.2513
 9031TIP3    H148584   0.729   6.239   2.496  1.2611 -1.5967 -1.9984
 9031TIP3    H248585   0.603   6.308   2.447 -0.0617 -1.7618  0.9816
 9032TIP3   OH248586   4.200   2.975  14.550 -0.3190 -0.1630 -0.2644
 9032TIP3    H148587   4.192   3.017  14.636  1.8242 -1.1014  0.4485
 9032TIP3    H248588   4.272   2.913  14.560 -0.1847 -0.4845 -2.6806
 9033TIP3   OH248589   4.369   4.817   4.692  0.1590 -0.0829 -0.1881
 9033TIP3    H148590   4.322   4.854   4.767  0.3692 -0.4681  0.1329
 9033TIP3    H248591   4.347   4.724   4.693  0.4490 -0.1542 -0.3973
 9034TIP3   OH248592   1.284   1.756  16.492 -0.3916 -0.4112  0.1617
 9034TIP3    H148593   1.330   1.832  16.454 -2.2108  0.6695  0.0252
 9034TIP3    H248594   1.298   1.765  16.586  2.1612 -1.8056  0.0161
 9035TIP3   OH248595   1.803   5.734   0.596  0.1065  0.4013  0.3454
 9035TIP3    H148596   1.747   5.811   0.604 -1.6454 -0.5264 -1.8567
 9035TIP3    H248597   1.742   5.660   0.595  1.6294 -0.9162  0.9066
 9036TIP3   OH248598   0.227   3.344  11.494  0.1960 -0.2781 -0.0257
 9036TIP3    H148599   0.261   3.258  11.520  0.8928  0.2089  0.7207
 9036TIP3    H248600   0.158   3.363  11.558 -0.1306 -0.3914 -0.3428
 9037TIP3   OH248601   1.283   5.795  12.878  0.5553 -0.4105 -0.2617
 9037TIP3    H148602   1.188   5.786  12.870  0.2854  0.5104  1.4212
 9037TIP3    H248603   1.301   5.776  12.970  2.1432 -1.4838 -0.7418
 9038TIP3   OH248604   4.704   2.397  16.121 -0.2851 -0.2275  0.0721
 9038TIP3    H148605   4.748   2.428  16.200  2.6055 -1.5830 -0.8781
 9038TIP3    H248606   4.654   2.320  16.149 -0.0590 -0.1370  0.7230
 9039TIP3   OH248607   5.831   3.797  14.524  0.3755  0.2521 -0.2243
 9039TIP3    H148608   5.766   3.729  14.506  2.2058 -0.9951 -2.8664
 9039TIP3    H248609   5.875   3.766  14.604 -0.3196 -0.4581 -0.1007
 9040TIP3   OH248610   5.076   2.353   0.041 -0.0637  0.1916 -0.2971
 9040TIP3    H148611   5.167   2.373   0.018 -0.2387  0.5402 -0.7156
 9040TIP3    H248612   5.080   2.268   0.084  0.4154  0.0132 -0.6806
 9041TIP3   OH248613   0.996   0.204  11.083 -0.8084  0.4721  0.9338
 9041TIP3    H148614   0.917   0.230  11.036 -1.2217 -2.1009  0.0932
 9041TIP3    H248615   1.011   0.113  11.058  1.3369  0.2888  2.5856
 9042TIP3   OH248616   0.185   5.935   0.385  0.6840 -0.1521 -0.3624
 9042TIP3    H148617   0.244   5.875   0.340 -0.7963 -0.7895 -1.5326
 9042TIP3    H248618   0.150   5.884   0.458 -0.8758 -0.9067 -1.5873
 9043TIP3   OH248619   5.622   2.022   5.952 -0.2111 -0.1752 -0.2306
 9043TIP3    H148620   5.700   2.043   6.003 -0.5876 -1.5427  0.9788
 9043TIP3    H248621   5.646   2.043   5.862  2.0776 -1.8328 -0.1022
 9044TIP3   OH248622   1.189   4.735   2.970  0.3814  0.0953 -0.4656
 9044TIP3    H148623   1.203   4.800   3.039  1.6396 -1.0103  0.3693
 9044TIP3    H248624   1.101   4.701   2.986 -0.4208  1.7459 -1.0935
 9045TIP3   OH248625   0.310   4.779   6.599  0.4727  0.4180 -0.0095
 9045TIP3    H148626   0.366   4.828   6.538  1.1351  1.0024  1.0418
 9045TIP3    H248627   0.364   4.704   6.624  0.5943  0.6977  0.5905
 9046TIP3   OH248628   1.478   3.166   2.720  0.0970  0.8346  0.3302
 9046TIP3    H148629   1.534   3.235   2.754 -1.1833  1.9140  0.3423
 9046TIP3    H248630   1.427   3.208   2.651 -0.3787 -0.2267  0.0107
 9047TIP3   OH248631   2.051   6.006   4.671 -0.1585 -0.2043 -0.0864
 9047TIP3    H148632   2.062   6.087   4.720 -2.2304 -0.0830  0.2304
 9047TIP3    H248633   1.965   6.013   4.631 -1.6985 -3.4510  2.2719
 9048TIP3   OH248634   3.019   1.271   2.674 -0.1522 -0.0581  0.5101
 9048TIP3    H148635   3.080   1.319   2.730  0.8131 -1.3649  0.6025
 9048TIP3    H248636   2.941   1.258   2.728  0.6079 -0.9335  1.4151
 9049TIP3   OH248637   2.719   3.641   1.717  0.0496 -0.4824 -0.4148
 9049TIP3    H148638   2.714   3.572   1.651  1.5363  0.4363 -1.5649
 9049TIP3    H248639   2.796   3.692   1.692 -2.0864  2.8566 -0.8589
 9050TIP3   OH248640   3.576   2.742   1.217  0.2776 -0.0779 -0.2659
 9050TIP3    H148641   3.594   2.740   1.122 -0.8685 -0.2274 -0.4848
 9050TIP3    H248642   3.583   2.835   1.240  0.7730 -0.0637 -0.4464
 9051TIP3   OH248643   3.171   2.534   2.266 -0.8136 -0.9359 -0.0511
 9051TIP3    H148644   3.076   2.533   2.257 -0.8954 -2.0298  0.6883
 9051TIP3    H248645   3.200   2.459   2.215 -0.1660  0.3766 -1.6978
 9052TIP3   OH248646   0.985   1.193   2.599 -0.0804 -0.1678  0.6877
 9052TIP3    H148647   1.077   1.206   2.580 -0.2728 -0.0194 -0.1971
 9052TIP3    H248648   0.963   1.109   2.558 -0.6968  0.5430 -0.5045
 9053TIP3   OH248649   0.443   5.177  16.074  0.2059 -0.0159  0.1396
 9053TIP3    H148650   0.366   5.120  16.075 -0.0213  0.2700  1.5199
 9053TIP3    H248651   0.410   5.261  16.041  0.4244 -0.5156 -1.3846
 9054TIP3   OH248652   5.604   5.068  11.619 -0.1655 -0.0221 -0.3927
 9054TIP3    H148653   5.653   5.130  11.565  0.2021 -0.3064 -0.3831
 9054TIP3    H248654   5.513   5.079  11.590  0.1494 -0.9383 -1.8411
 9055TIP3   OH248655   1.693   4.590  16.367 -0.8390 -0.0514 -0.2402
 9055TIP3    H148656   1.631   4.517  16.361 -2.4143  1.3244 -1.3933
 9055TIP3    H248657   1.699   4.625  16.278  0.6901  0.6010  0.0848
 9056TIP3   OH248658   3.711   4.635  11.802  0.2208  0.1657  0.0550
 9056TIP3    H148659   3.710   4.557  11.747 -1.2914 -0.1531  0.4859
 9056TIP3    H248660   3.669   4.703  11.749  1.9467  0.8562 -0.4987
 9057TIP3   OH248661   0.542   5.863  17.062 -0.0059 -0.6791 -0.1546
 9057TIP3    H148662   0.452   5.846  17.033  0.8161 -2.5734 -1.8067
 9057TIP3    H248663   0.540   5.844  17.156 -1.5202  0.3136  0.0633
 9058TIP3   OH248664   1.095   5.568   3.813 -0.3551 -0.1468  0.1269
 9058TIP3    H148665   1.051   5.653   3.816  1.0602  0.7021 -1.2905
 9058TIP3    H248666   1.142   5.562   3.897 -0.1776  0.6475  0.0931
 9059TIP3   OH248667   5.567   6.268   4.132 -0.3350  0.0581  0.4198
 9059TIP3    H148668   5.650   6.308   4.158  0.1396 -1.4061  1.3153
 9059TIP3    H248669   5.515   6.340   4.097  0.6446  1.3325  1.4913
 9060TIP3   OH248670   1.913   6.222  10.625 -0.1249  0.3660  0.4281
 9060TIP3    H148671   1.923   6.307  10.581 -0.3039  0.1566 -0.0182
 9060TIP3    H248672   1.888   6.161  10.555  3.1803 -0.7830  0.0741
 9061TIP3   OH248673   5.810   5.107   2.171  0.1013  0.2977 -0.5401
 9061TIP3    H148674   5.798   5.180   2.110 -0.6913  1.3218  0.7960
 9061TIP3    H248675   5.846   5.037   2.117 -1.1433  0.9508 -2.3255
 9062TIP3   OH248676   5.747   1.592   1.193  0.4608 -0.0174 -0.1108
 9062TIP3    H148677   5.680   1.534   1.227 -0.1970 -0.1312 -1.5334
 9062TIP3    H248678   5.722   1.679   1.225  0.1732 -0.1901  0.1332
 9063TIP3   OH248679   1.550   4.618  16.074 -0.7258 -0.0940 -0.2717
 9063TIP3    H148680   1.634   4.643  16.035 -0.9002  0.6773 -0.1816
 9063TIP3    H248681   1.487   4.630  16.003 -1.0528  1.3710  0.2282
 9064TIP3   OH248682   1.552   5.772  14.352 -0.2138  0.7783  0.0413
 9064TIP3    H148683   1.457   5.764  14.344  0.0545 -3.2552 -1.0554
 9064TIP3    H248684   1.584   5.759  14.263  1.4289 -1.7650  0.9199
 9065TIP3   OH248685   3.522   1.275   0.166 -0.0967  0.1431 -0.0375
 9065TIP3    H148686   3.479   1.190   0.173  1.1820 -0.4141  2.0135
 9065TIP3    H248687   3.603   1.257   0.118 -0.5513  0.5537 -0.9965
 9066TIP3   OH248688   1.148   4.968   4.806  0.0324 -0.1907  0.0176
 9066TIP3    H148689   1.197   5.001   4.731 -0.6942  1.3551  0.1771
 9066TIP3    H248690   1.205   4.985   4.881 -0.2281  0.5005  0.0679
 9067TIP3   OH248691   1.702   1.968  16.726 -0.3413 -0.1566  0.2281
 9067TIP3    H148692   1.768   1.922  16.675 -0.9847 -1.8868  0.8720
 9067TIP3    H248693   1.749   2.004  16.800 -0.0112 -0.8788  0.3792
 9068TIP3   OH248694   1.118   4.909   5.167  0.0911 -0.5850 -0.2040
 9068TIP3    H148695   1.028   4.889   5.191  0.0241 -0.1570 -0.0815
 9068TIP3    H248696   1.157   4.825   5.144  0.5526 -1.2901  2.7062
 9069TIP3   OH248697   2.688   1.353   6.203 -0.3658 -0.2072 -0.3906
 9069TIP3    H148698   2.699   1.447   6.219 -0.5588 -0.2704  0.1123
 9069TIP3    H248699   2.601   1.332   6.238 -0.9598 -0.2812 -1.8239
 9070TIP3   OH248700   3.999   2.884  13.156 -0.0894  0.4482 -0.5324
 9070TIP3    H148701   3.939   2.831  13.207  1.2261 -0.1683  0.4384
 9070TIP3    H248702   4.021   2.830  13.080  0.2694  0.0959 -0.1870
 9071TIP3   OH248703   1.493   1.084   3.808 -0.3484  0.7821 -0.0772
 9071TIP3    H148704   1.437   1.042   3.873  1.2635  0.9473  1.5196
 9071TIP3    H248705   1.582   1.068   3.840  0.5965 -0.0550 -2.8381
 9072TIP3   OH248706   1.175   0.468   0.743  0.2344  0.0279  0.0413
 9072TIP3    H148707   1.166   0.554   0.701  1.7658  0.6590  0.9199
 9072TIP3    H248708   1.159   0.405   0.673 -2.4168  0.9750 -0.3012
 9073TIP3   OH248709   5.645   5.260   3.458  0.0133 -0.0404 -0.0062
 9073TIP3    H148710   5.739   5.263   3.475  0.0649  0.5134 -0.3686
 9073TIP3    H248711   5.632   5.314   3.380 -0.6099 -0.0667  0.0692
 9074TIP3   OH248712   4.752   0.894  11.792  0.1329 -0.2000  0.1254
 9074TIP3    H148713   4.664   0.904  11.828  0.2842 -0.8776  0.7067
 9074TIP3    H248714   4.807   0.950  11.847 -0.1371  1.3243 -1.1067
 9075TIP3   OH248715   1.209   3.106   1.809 -0.1690 -0.3691  0.0860
 9075TIP3    H148716   1.118   3.101   1.780 -0.0263 -0.8088 -0.3099
 9075TIP3    H248717   1.260   3.084   1.731  0.3233  0.8453  0.0428
 9076TIP3   OH248718   6.350   3.087  12.946 -0.1620 -0.4239  0.5905
 9076TIP3    H148719   6.324   3.172  12.982 -0.0924 -0.8583  1.7345
 9076TIP3    H248720   6.367   3.033  13.024  1.1147 -1.0838 -0.1297
 9077TIP3   OH248721   0.151   3.730  14.230 -0.0815 -0.1820  0.4785
 9077TIP3    H148722   0.062   3.754  14.257 -0.7673 -1.1201 -0.8528
 9077TIP3    H248723   0.187   3.684  14.306 -1.1036 -0.6848  0.6740
 9078TIP3   OH248724   0.182   6.365  17.088 -0.1557 -0.1391 -0.4440
 9078TIP3    H148725   0.132   6.306  17.032 -0.9775 -1.3440  1.4656
 9078TIP3    H248726   0.160   6.339  17.177 -2.2695  4.3775  0.6834
 9079TIP3   OH248727   0.943   5.558  16.754 -0.5010 -0.1091  0.2054
 9079TIP3    H148728   0.923   5.479  16.704 -1.3889 -0.2749  0.8100
 9079TIP3    H248729   1.031   5.583  16.725  0.3132 -2.0000  0.8787
 9080TIP3   OH248730   2.576   4.299   2.205  0.3324  0.4881 -0.0825
 9080TIP3    H148731   2.568   4.371   2.142 -0.7699  0.2455 -0.2309
 9080TIP3    H248732   2.657   4.255   2.180 -0.4859 -0.0862 -1.8644
 9081TIP3   OH248733   4.313   4.877  10.848  0.1302  0.4650  0.3244
 9081TIP3    H148734   4.287   4.797  10.893  0.2091  0.7910  0.9773
 9081TIP3    H248735   4.377   4.849  10.783  0.6172  0.0724  0.9615
 9082TIP3   OH248736   5.414   2.506   2.149  0.3597  0.2553 -0.2313
 9082TIP3    H148737   5.329   2.470   2.122  1.2629 -0.5532 -2.2117
 9082TIP3    H248738   5.393   2.587   2.195 -1.4802  0.1533 -0.8311
 9083TIP3   OH248739   1.974   0.793  13.945 -0.0341 -0.1126  0.1615
 9083TIP3    H148740   2.060   0.835  13.950 -0.3629  0.6743 -0.6252
 9083TIP3    H248741   1.939   0.800  14.033  1.2888 -1.7329  0.8776
 9084TIP3   OH248742   2.407   6.316   2.641  0.2117  0.0052 -0.6165
 9084TIP3    H148743   2.324   6.314   2.688  0.8396 -1.4293  0.5296
 9084TIP3    H248744   2.409   6.401   2.598 -2.5631 -0.5299 -2.0359
 9085TIP3   OH248745   1.400   2.462   1.173  0.0251 -0.3565  0.1483
 9085TIP3    H148746   1.483   2.421   1.196  0.7018  1.0434  0.3257
 9085TIP3    H248747   1.337   2.389   1.168  1.0776 -1.3413  0.8095
 9086TIP3   OH248748   3.101   2.548   0.239 -0.0704 -0.2703 -0.4134
 9086TIP3    H148749   3.083   2.603   0.162  1.0689 -0.3123 -0.7217
 9086TIP3    H248750   3.098   2.610   0.313 -0.6733 -0.1425 -0.5366
 9087TIP3   OH248751   0.756   5.377  16.043 -0.0234 -0.5574  0.0004
 9087TIP3    H148752   0.829   5.406  16.098  0.2666 -0.8763 -0.2161
 9087TIP3    H248753   0.683   5.434  16.068  0.2231 -0.4221  0.4127
 9088TIP3   OH248754   3.582   1.809   1.391  0.0896 -0.4638 -0.0055
 9088TIP3    H148755   3.628   1.752   1.452  1.1267 -0.3407 -0.6521
 9088TIP3    H248756   3.625   1.795   1.307  1.1398  2.0536  0.0275
 9089TIP3   OH248757   2.277   6.664   4.887 -0.5748 -0.0965  0.1192
 9089TIP3    H148758   2.208   6.605   4.918 -1.6531  1.7146  1.3841
 9089TIP3    H248759   2.229   6.736   4.845  0.7257 -0.4500 -2.1252
 9090TIP3   OH248760   1.293   4.018   0.094  0.5655  0.2556  0.2128
 9090TIP3    H148761   1.315   4.080   0.025 -4.1007  1.4255 -0.5632
 9090TIP3    H248762   1.293   4.070   0.175  3.1785 -0.4598  0.7744
 9091TIP3   OH248763   1.971   2.994  11.360 -0.1174  0.0521  0.1697
 9091TIP3    H148764   1.970   2.915  11.306  1.2427 -0.1086  0.3553
 9091TIP3    H248765   1.967   2.962  11.450 -1.5583  0.2887  0.2120
 9092TIP3   OH248766   4.042   3.585   4.393  0.1187  0.4938 -0.6673
 9092TIP3    H148767   3.952   3.553   4.384 -0.4267  1.3702  1.1927
 9092TIP3    H248768   4.038   3.676   4.364  0.4443  0.4912 -0.7217
 9093TIP3   OH248769   2.454   1.348   2.135  0.4858 -0.3979  0.2889
 9093TIP3    H148770   2.503   1.423   2.102 -0.6785  0.7035  1.0101
 9093TIP3    H248771   2.379   1.385   2.180  0.2491 -1.9659  1.2871
 9094TIP3   OH248772   0.239   2.732   1.224  0.0782 -0.1608 -0.0321
 9094TIP3    H148773   0.271   2.822   1.235 -2.0671  0.7396 -0.5997
 9094TIP3    H248774   0.273   2.685   1.300  0.7988  1.2614  0.5705
 9095TIP3   OH248775   2.943   1.635   0.311  0.0032 -0.2257 -0.0346
 9095TIP3    H148776   2.934   1.541   0.325 -0.1351 -0.1764  0.2131
 9095TIP3    H248777   2.951   1.672   0.399  0.5325 -0.0526 -0.1501
 9096TIP3   OH248778   3.225   4.186  12.249  0.4095  0.1951 -0.1361
 9096TIP3    H148779   3.179   4.263  12.217  1.1649  0.6621 -0.1217
 9096TIP3    H248780   3.256   4.211  12.336 -0.7698 -0.7161  0.5711
 9097TIP3   OH248781   5.322   0.423  16.591  0.1487 -0.0628  0.4779
 9097TIP3    H148782   5.329   0.519  16.594  1.4323 -0.1605  2.2548
 9097TIP3    H248783   5.362   0.394  16.673 -2.1682 -2.0374  1.0058
 9098TIP3   OH248784   5.161   0.306  13.626 -0.1491  0.2290  0.0946
 9098TIP3    H148785   5.237   0.260  13.590  0.9788  1.2005  1.1036
 9098TIP3    H248786   5.086   0.255  13.599  1.0024 -1.9795  0.8189
 9099TIP3   OH248787   0.761   2.786  11.318  0.8377 -0.5373  0.2187
 9099TIP3    H148788   0.718   2.853  11.265 -2.5060 -1.8547  1.0404
 9099TIP3    H248789   0.779   2.714  11.257 -1.5970 -1.4306  0.4508
 9100TIP3   OH248790   4.751   0.658  16.895  0.1566  0.0984 -0.0693
 9100TIP3    H148791   4.657   0.655  16.877 -0.1030 -0.6911  1.3193
 9100TIP3    H248792   4.786   0.712  16.824 -1.2780  0.0921 -0.8389
 9101TIP3   OH248793   2.215   0.584  16.549  0.0428  0.0890  0.1358
 9101TIP3    H148794   2.237   0.615  16.636 -0.1054  0.5071  0.0270
 9101TIP3    H248795   2.146   0.643  16.519  2.0524  1.8091 -1.4043
 9102TIP3   OH248796   1.458   4.412  14.439 -0.2119 -0.7322 -0.2134
 9102TIP3    H148797   1.550   4.408  14.414  0.2519  2.2469  0.5753
 9102TIP3    H248798   1.411   4.414  14.356  0.9499  3.7265 -1.0069
 9103TIP3   OH248799   0.054   0.769   0.719  0.3919 -0.1718  0.2541
 9103TIP3    H148800   0.064   0.845   0.777  0.4209  1.7224 -2.0565
 9103TIP3    H248801   0.056   0.807   0.631 -1.1862 -2.7182 -0.9744
 9104TIP3   OH248802   5.531   2.508  11.197  0.2720 -0.0957  0.3291
 9104TIP3    H148803   5.456   2.473  11.148 -0.0179  1.7527 -0.6452
 9104TIP3    H248804   5.516   2.602  11.199  2.9102  0.4250 -0.4675
 9105TIP3   OH248805   1.622   1.837   1.108  0.0397  0.0207  0.2156
 9105TIP3    H148806   1.652   1.909   1.053  0.3050 -0.1771  0.0969
 9105TIP3    H248807   1.662   1.852   1.193 -0.9798  0.7461  0.5869
 9106TIP3   OH248808   2.600   5.726   6.368 -0.2866 -0.0768 -0.4720
 9106TIP3    H148809   2.675   5.746   6.424 -0.5643  1.9570 -0.7652
 9106TIP3    H248810   2.628   5.650   6.316  0.8565 -0.4928  0.7211
 9107TIP3   OH248811   5.790   0.348   5.751 -0.2394 -0.0903  0.2519
 9107TIP3    H148812   5.836   0.273   5.789  0.6649  0.5851  0.5203
 9107TIP3    H248813   5.828   0.358   5.664 -2.2744 -1.6074 -0.9055
 9108TIP3   OH248814   5.116   0.085  14.153  0.1675 -0.0652 -0.2100
 9108TIP3    H148815   5.026   0.101  14.126 -0.7160 -1.0296  1.8900
 9108TIP3    H248816   5.149   0.171  14.178  0.0390  0.3804 -1.5035
 9109TIP3   OH248817   4.041   4.899   0.829 -0.1323  0.2172  0.6743
 9109TIP3    H148818   3.967   4.838   0.832 -0.3705  0.5088  0.7998
 9109TIP3    H248819   4.004   4.982   0.857 -0.0884  0.7032 -0.6165
 9110TIP3   OH248820   3.834   0.588   0.612  0.0975  0.4354 -0.5268
 9110TIP3    H148821   3.773   0.543   0.671 -0.5355 -1.2665 -2.3819
 9110TIP3    H248822   3.805   0.679   0.611  0.9757  0.8846  2.8163
 9111TIP3   OH248823   4.901   4.628   5.513  0.0732  0.3611 -0.0860
 9111TIP3    H148824   4.808   4.630   5.532  0.4903  0.1237  2.3028
 9111TIP3    H248825   4.912   4.558   5.449 -1.3810  0.5537 -0.5713
 9112TIP3   OH248826   2.240   4.458  11.342 -0.7937 -0.0117  0.7031
 9112TIP3    H148827   2.321   4.464  11.293  0.3019  1.2020  2.5405
 9112TIP3    H248828   2.173   4.490  11.282  0.2345 -0.0161 -0.4894
 9113TIP3   OH248829   2.116   5.931   1.770  0.3704 -0.5024  0.0907
 9113TIP3    H148830   2.172   5.870   1.817  0.8997 -0.0747  0.0205
 9113TIP3    H248831   2.115   6.010   1.824  1.9735  0.4480 -1.1609
 9114TIP3   OH248832   1.747   3.842  15.640 -0.3245 -0.4397 -0.8083
 9114TIP3    H148833   1.699   3.863  15.720 -0.2502 -2.3709 -0.2001
 9114TIP3    H248834   1.715   3.755  15.615  0.0253 -0.0901 -2.6021
 9115TIP3   OH248835   3.576   2.070   3.636 -0.1486  0.1362 -0.2814
 9115TIP3    H148836   3.492   2.073   3.682 -0.1160 -1.3015 -0.0700
 9115TIP3    H248837   3.628   2.139   3.677 -1.3520  1.3599 -0.7261
 9116TIP3   OH248838   6.414   5.564  14.222  0.7503 -0.1812 -0.5645
 9116TIP3    H148839   6.450   5.529  14.303  2.1517  1.7639 -0.2605
 9116TIP3    H248840   6.474   5.534  14.153  1.9521  1.4582 -0.3041
 9117TIP3   OH248841   1.829   0.193   3.732  0.7997  0.8678  0.5199
 9117TIP3    H148842   1.836   0.235   3.646  0.9843 -1.9293 -0.9519
 9117TIP3    H248843   1.742   0.216   3.763 -0.1862  0.1035 -1.5168
 9118TIP3   OH248844   1.153   5.131   3.263  0.0156 -0.1458 -0.1310
 9118TIP3    H148845   1.077   5.175   3.226 -0.8586 -1.2393  0.3182
 9118TIP3    H248846   1.181   5.188   3.335  1.2538  1.5873 -1.8878
 9119TIP3   OH248847   1.704   1.246   5.798  0.0139 -0.1885  0.1092
 9119TIP3    H148848   1.693   1.340   5.812  0.4726 -0.0803 -0.2271
 9119TIP3    H248849   1.701   1.208   5.886 -3.0403 -0.2135  0.0904
 9120TIP3   OH248850   2.036   2.782  14.577 -0.1623  0.2389 -0.2946
 9120TIP3    H148851   1.948   2.796  14.611  0.5775  2.3670  0.9263
 9120TIP3    H248852   2.085   2.744  14.650  0.1446 -0.1846 -0.7097
 9121TIP3   OH248853   4.940   1.116  16.853  0.4695 -0.5401 -0.2578
 9121TIP3    H148854   4.871   1.149  16.795 -1.0653 -0.9885  1.2533
 9121TIP3    H248855   4.902   1.038  16.893  0.8896  0.5470  2.4714
 9122TIP3   OH248856   0.526   0.045  11.409  0.1119 -0.0495 -0.9628
 9122TIP3    H148857   0.555   0.127  11.370 -0.0922 -0.7118 -2.5943
 9122TIP3    H248858   0.605  -0.009  11.415  0.4249  0.5608  0.9813
 9123TIP3   OH248859   0.835   0.500  16.473  0.0925  0.6661  0.1955
 9123TIP3    H148860   0.795   0.576  16.515 -1.4146  0.2389 -0.4104
 9123TIP3    H248861   0.855   0.530  16.384  0.2718  0.6010  0.2127
 9124TIP3   OH248862   1.521   4.343  11.861 -0.0318  0.0762  0.3620
 9124TIP3    H148863   1.432   4.339  11.896 -0.0076  0.1706  0.4318
 9124TIP3    H248864   1.556   4.426  11.892 -0.3228  0.5900 -0.6270
 9125TIP3   OH248865   3.910   2.756   1.859  0.0608 -0.2458  0.5289
 9125TIP3    H148866   3.864   2.818   1.916  0.7769 -1.8676  3.0718
 9125TIP3    H248867   3.844   2.689   1.838 -0.7091  1.2311 -2.1998
 9126TIP3   OH248868   1.003   6.624   0.184 -0.5647 -0.2545  0.5840
 9126TIP3    H148869   0.962   6.695   0.134 -2.4314 -1.4516  0.3053
 9126TIP3    H248870   0.936   6.555   0.187  0.1423 -0.9416  3.2195
 9127TIP3   OH248871   0.135   4.307  16.590 -0.2159 -1.3875 -0.1930
 9127TIP3    H148872   0.165   4.265  16.510  1.1127  0.6907 -0.8466
 9127TIP3    H248873   0.079   4.379  16.561  2.0875  0.8397  0.5223
 9128TIP3   OH248874   6.784   0.587  17.180  0.6900  0.6858  0.1433
 9128TIP3    H148875   6.767   0.672  17.219  0.6267  0.2884  1.0188
 9128TIP3    H248876   6.717   0.529  17.218  1.5032 -0.0191  0.5364
 9129TIP3   OH248877   2.787   1.688  11.863 -0.1815  0.1329  0.4772
 9129TIP3    H148878   2.861   1.743  11.890  0.0764 -0.8455  1.9207
 9129TIP3    H248879   2.802   1.672  11.770  1.5093 -0.1015  0.7433
 9130TIP3   OH248880   3.831   3.886   4.868 -0.0636  0.4166 -0.0513
 9130TIP3    H148881   3.780   3.895   4.948  1.9530 -1.1474  1.5335
 9130TIP3    H248882   3.779   3.827   4.813 -1.0112  0.6951  0.5184
 9131TIP3   OH248883   3.900   6.225   0.260 -0.1817 -0.2313 -0.3683
 9131TIP3    H148884   3.855   6.258   0.338  0.3229 -0.2667 -0.0589
 9131TIP3    H248885   3.892   6.130   0.266 -1.7049 -0.1817 -1.3010
 9132TIP3   OH248886   6.285   5.083  16.679  0.6143 -0.0714  0.2604
 9132TIP3    H148887   6.198   5.097  16.715  0.1575  0.4128 -0.9668
 9132TIP3    H248888   6.336   5.158  16.710  0.1922  0.4149 -0.2047
 9133TIP3   OH248889   1.885   1.423   2.841 -0.6945  0.0790  0.1531
 9133TIP3    H148890   1.880   1.444   2.747  2.5023 -1.2584 -0.4472
 9133TIP3    H248891   1.966   1.465   2.870 -2.1097  1.2828  2.6341
 9134TIP3   OH248892   0.255   0.118   6.325 -0.9706 -0.0138 -0.0187
 9134TIP3    H148893   0.232   0.091   6.414  0.0577 -0.4308  0.1292
 9134TIP3    H248894   0.170   0.132   6.282 -1.4749  0.4779  1.0981
 9135TIP3   OH248895   3.374   0.076   2.513 -0.1872 -0.0627 -0.1147
 9135TIP3    H148896   3.434   0.141   2.478 -0.0725 -0.3232 -0.4127
 9135TIP3    H248897   3.403   0.062   2.603  0.2876 -0.2847 -0.2972
 9136TIP3   OH248898   2.427   3.173   3.080  0.1902  0.4707  0.4464
 9136TIP3    H148899   2.485   3.103   3.050  1.3365  1.6604 -0.2262
 9136TIP3    H248900   2.483   3.229   3.134 -1.0148  0.2354  2.0297
 9137TIP3   OH248901   3.782   3.967  15.673 -0.3576  0.2713  0.3067
 9137TIP3    H148902   3.814   4.051  15.706 -2.1108  0.6237  1.2754
 9137TIP3    H248903   3.825   3.901  15.728  0.1656  0.6065  0.2948
 9138TIP3   OH248904   6.333   4.332   6.322  0.5832  0.7588 -0.6470
 9138TIP3    H148905   6.368   4.403   6.268 -1.0680  1.4434 -0.8807
 9138TIP3    H248906   6.411   4.292   6.363  1.5281  3.1525  0.0655
 9139TIP3   OH248907   1.536   3.924   5.968 -0.3085 -0.1519  0.8544
 9139TIP3    H148908   1.486   3.907   6.048  0.4516 -1.1672  1.1340
 9139TIP3    H248909   1.525   3.845   5.915 -1.1348  0.6640 -0.2507
 9140TIP3   OH248910   1.618   4.748  13.202 -0.0067 -0.0037 -0.3923
 9140TIP3    H148911   1.536   4.798  13.206 -0.7708 -1.2728  2.4634
 9140TIP3    H248912   1.591   4.659  13.183  0.7780 -0.2960 -0.1770
 9141TIP3   OH248913   4.356   5.221  15.569  0.2054  0.4451 -0.8800
 9141TIP3    H148914   4.439   5.265  15.587  1.1695 -0.6894 -2.2599
 9141TIP3    H248915   4.379   5.130  15.556 -1.3056  0.0521 -1.0674
 9142TIP3   OH248916   5.930   5.708  16.997  0.0843  1.1396 -0.3831
 9142TIP3    H148917   6.015   5.744  17.020 -0.7303  3.0259 -0.1153
 9142TIP3    H248918   5.920   5.728  16.904  0.2328  0.2289 -0.6057
 9143TIP3   OH248919   2.714   5.638   2.456  0.3816  0.9649  0.2079
 9143TIP3    H148920   2.729   5.589   2.375 -1.7129  0.7090 -0.1009
 9143TIP3    H248921   2.770   5.597   2.521 -0.6977 -1.3893 -0.2387
 9144TIP3   OH248922   6.255   3.482  11.991 -0.1984 -0.6794 -0.1467
 9144TIP3    H148923   6.185   3.475  11.926 -0.6018  1.1416  0.0405
 9144TIP3    H248924   6.245   3.569  12.028  0.4318 -1.4364  1.9329
 9145TIP3   OH248925   2.821   2.559   1.919  0.2326 -0.1956 -0.5203
 9145TIP3    H148926   2.860   2.587   2.001 -0.1109 -1.3017  0.0510
 9145TIP3    H248927   2.853   2.621   1.854  1.1269  0.2373  0.3147
 9146TIP3   OH248928   4.417   6.796  13.230 -0.2081 -0.6071  0.0126
 9146TIP3    H148929   4.350   6.751  13.179 -2.0057 -0.1542  1.8353
 9146TIP3    H248930   4.387   6.790  13.320  3.6347 -2.7764  1.3872
 9147TIP3   OH248931   2.752   5.713   0.395 -0.0269 -0.5504 -0.1200
 9147TIP3    H148932   2.803   5.746   0.469 -0.7650 -0.2902  0.2761
 9147TIP3    H248933   2.672   5.678   0.434  0.4703 -2.3474 -0.5735
 9148TIP3   OH248934   5.020   3.648   0.618 -0.4015 -0.0724  0.2839
 9148TIP3    H148935   5.043   3.715   0.554  1.2726 -2.0930 -1.4109
 9148TIP3    H248936   5.010   3.568   0.566 -0.5162 -1.4987  2.3815
 9149TIP3   OH248937   4.068   6.755  12.828 -0.4213  0.4578  0.0390
 9149TIP3    H148938   3.988   6.705  12.815  0.4747 -0.5508 -1.9235
 9149TIP3    H248939   4.107   6.717  12.907 -1.7802  0.8873  0.9468
 9150TIP3   OH248940   5.241   4.217   3.546 -0.3593 -0.8854 -0.1725
 9150TIP3    H148941   5.257   4.302   3.506  0.3596  0.4504  2.6793
 9150TIP3    H248942   5.146   4.206   3.543 -0.3640 -0.6191 -1.7006
 9151TIP3   OH248943   0.418   3.881  10.669  0.3053 -0.4328 -0.2747
 9151TIP3    H148944   0.390   3.964  10.630 -1.0543  0.3896  2.2726
 9151TIP3    H248945   0.341   3.848  10.715  2.2466 -0.1835  3.5490
 9152TIP3   OH248946   4.174   5.049  17.254 -0.1309 -0.2352 -0.2928
 9152TIP3    H148947   4.086   5.035  17.219 -0.6237 -1.4016  1.3184
 9152TIP3    H248948   4.213   4.962  17.258  0.0301 -0.1143  1.6730
 9153TIP3   OH248949   6.376   6.185  17.065  0.2161 -0.7944 -0.2074
 9153TIP3    H148950   6.422   6.144  17.138 -1.2706 -0.8076  0.7521
 9153TIP3    H248951   6.425   6.266  17.049 -0.0152 -0.2812  1.4896
 9154TIP3   OH248952   3.270   5.305   5.228 -0.1438 -0.2267  0.0095
 9154TIP3    H148953   3.343   5.351   5.185  0.7138 -1.5453 -0.0164
 9154TIP3    H248954   3.257   5.352   5.310  0.6945  0.0781 -0.0210
 9155TIP3   OH248955   4.698   1.779   1.255  0.3741  0.2557 -0.2572
 9155TIP3    H148956   4.626   1.775   1.319  0.5549 -1.3142 -0.1150
 9155TIP3    H248957   4.655   1.788   1.170 -0.1176 -2.0480 -0.3172
 9156TIP3   OH248958   6.516   4.002   3.246 -0.4231 -0.1240  0.3889
 9156TIP3    H148959   6.428   3.984   3.216 -0.8652 -0.6233  1.8741
 9156TIP3    H248960   6.517   4.096   3.266 -0.2607  0.1134 -0.6655
 9157TIP3   OH248961   6.187   2.744   1.973 -0.1708  0.4400 -0.3866
 9157TIP3    H148962   6.259   2.693   1.936  0.7489  2.4951 -1.6143
 9157TIP3    H248963   6.187   2.722   2.066  0.7490 -1.0716 -0.7115
 9158TIP3   OH248964   4.503   3.536  17.081 -0.2498  0.0017 -0.4109
 9158TIP3    H148965   4.558   3.591  17.025 -0.9616  0.1697 -0.9491
 9158TIP3    H248966   4.479   3.462  17.026  1.6956 -1.5328  0.6620
 9159TIP3   OH248967   1.250   5.174  13.263  0.0810  0.1871 -0.8002
 9159TIP3    H148968   1.192   5.250  13.260  0.4159  0.5378  0.6730
 9159TIP3    H248969   1.228   5.124  13.185 -2.1826  0.3268 -0.3252
 9160TIP3   OH248970   0.194   1.491  16.262 -0.5159 -0.3489  0.3294
 9160TIP3    H148971   0.286   1.475  16.244 -0.7936 -2.7913  0.7351
 9160TIP3    H248972   0.192   1.577  16.304  1.2924  0.7059 -1.5439
 9161TIP3   OH248973   2.288   2.438  13.525 -0.1894  0.3923  0.3726
 9161TIP3    H148974   2.212   2.416  13.471 -0.4451  0.5653  0.6564
 9161TIP3    H248975   2.256   2.429  13.615  0.0260  0.8096  0.4900
 9162TIP3   OH248976   0.001   4.029   2.358 -0.1579  0.3970  0.1194
 9162TIP3    H148977  -0.033   4.118   2.364  0.1047  0.5798 -0.8993
 9162TIP3    H248978   0.089   4.040   2.321 -1.3401 -0.4563 -3.3557
 9163TIP3   OH248979   4.641   1.508   1.986 -0.0040 -0.0948  0.6023
 9163TIP3    H148980   4.575   1.446   2.017 -0.4372 -1.3904 -2.5098
 9163TIP3    H248981   4.723   1.459   1.990  0.1768  0.2382  1.0436
 9164TIP3   OH248982   1.133   6.131  11.582  0.7659 -0.7842  0.0611
 9164TIP3    H148983   1.082   6.119  11.502 -1.6700  0.2208  1.3584
 9164TIP3    H248984   1.121   6.050  11.631  0.6768 -0.6530  0.2549
 9165TIP3   OH248985   4.108   2.886   2.911 -0.3241 -0.6086 -0.6192
 9165TIP3    H148986   4.094   2.869   3.004 -0.2942  0.1140 -0.4828
 9165TIP3    H248987   4.183   2.945   2.908 -0.7449 -0.0864 -1.0656
 9166TIP3   OH248988   6.544   1.760   0.506  0.2115 -0.0483 -0.0439
 9166TIP3    H148989   6.499   1.834   0.465 -0.3596 -0.6512 -0.5207
 9166TIP3    H248990   6.484   1.730   0.574 -0.7652 -1.7031 -1.5599
 9167TIP3   OH248991   1.457   1.346   3.220  1.0760 -0.5699  0.3188
 9167TIP3    H148992   1.454   1.441   3.216  1.9451 -0.5643 -0.9131
 9167TIP3    H248993   1.382   1.321   3.273 -0.3655  0.6992 -1.0260
 9168TIP3   OH248994   5.626   0.092  12.519 -0.4351  0.0383 -0.0932
 9168TIP3    H148995   5.709   0.065  12.560 -0.2557 -1.3034 -1.2599
 9168TIP3    H248996   5.575   0.130  12.591  0.5878 -0.5262  0.9719
 9169TIP3   OH248997   6.475   1.482   5.818 -0.8454  0.3461 -0.9731
 9169TIP3    H148998   6.433   1.494   5.903  0.7019 -1.3644  0.1168
 9169TIP3    H248999   6.539   1.412   5.832  1.2893  1.7333 -2.8792
 9170TIP3   OH249000   6.121   0.537  15.620 -0.2546  0.1455 -0.4285
 9170TIP3    H149001   6.034   0.539  15.659 -0.8039 -3.2719 -1.1877
 9170TIP3    H249002   6.105   0.536  15.526  0.5676 -0.8431 -0.5698
 9171TIP3   OH249003   4.295   3.560  12.405  0.1396 -0.1952  0.0705
 9171TIP3    H149004   4.284   3.581  12.313  0.2897  1.7683  0.4549
 9171TIP3    H249005   4.235   3.487  12.421 -0.3292 -0.1605 -1.4388
 9172TIP3   OH249006   0.548   5.518  16.181  0.0750 -0.1257  0.1085
 9172TIP3    H149007   0.466   5.483  16.144  0.3184  0.1384 -0.6984
 9172TIP3    H249008   0.520   5.562  16.262 -0.5612 -0.1777 -0.0719
 9173TIP3   OH249009   5.328   1.535  15.989 -0.3249  0.0721  0.1423
 9173TIP3    H149010   5.285   1.450  15.999  0.3591 -0.2254  0.5971
 9173TIP3    H249011   5.421   1.514  15.979 -0.2984  0.6896 -1.1500
 9174TIP3   OH249012   0.566   4.303  13.215 -0.0426  0.0820  0.1292
 9174TIP3    H149013   0.544   4.218  13.252  1.5684 -0.1525  0.6441
 9174TIP3    H249014   0.556   4.292  13.121  0.2148 -0.7111  0.1874
 9175TIP3   OH249015   3.243   1.223  11.542  0.2206 -0.1571 -1.0503
 9175TIP3    H149016   3.193   1.155  11.498 -0.9982  0.3140 -0.4314
 9175TIP3    H249017   3.177   1.285  11.573  1.2707  1.1274 -1.2978
 9176TIP3   OH249018   5.953   3.744  12.547  0.1819 -0.1860 -0.1634
 9176TIP3    H149019   6.013   3.813  12.520  0.9143 -0.3217  1.0576
 9176TIP3    H249020   5.988   3.665  12.505  0.6750 -0.2055  0.2747
 9177TIP3   OH249021   0.075   3.834   6.054  0.2041  0.9070 -0.0636
 9177TIP3    H149022   0.156   3.851   6.006 -0.5061  1.1968 -1.2112
 9177TIP3    H249023   0.008   3.882   6.006 -0.5447  1.2722  1.2876
 9178TIP3   OH249024   0.478   0.592  12.756 -0.2810  0.6613 -0.4950
 9178TIP3    H149025   0.464   0.547  12.673  1.1010  1.1982 -1.0524
 9178TIP3    H249026   0.403   0.651  12.765 -0.4237  0.6204 -1.3656
 9179TIP3   OH249027   6.354   2.633  16.739  0.0182  0.0506  0.1454
 9179TIP3    H149028   6.288   2.580  16.786 -1.5743  0.4354 -1.5380
 9179TIP3    H249029   6.389   2.573  16.673  0.1469  0.3262 -0.0328
 9180TIP3   OH249030   5.289   5.038   2.641 -0.4196  0.1869  0.4893
 9180TIP3    H149031   5.333   5.022   2.724  1.0774 -0.2505 -0.3527
 9180TIP3    H249032   5.279   4.951   2.602  1.4023  0.5511 -0.9751
 9181TIP3   OH249033   3.765   5.537   0.464 -0.4220 -0.0970 -0.2154
 9181TIP3    H149034   3.726   5.527   0.376 -1.3088  2.0914 -0.1253
 9181TIP3    H249035   3.847   5.583   0.448 -0.8935  0.8818  0.1420
 9182TIP3   OH249036   4.398   6.814  12.883  0.1643 -0.0585 -0.5809
 9182TIP3    H149037   4.424   6.762  12.807 -0.0355  0.3182 -0.9088
 9182TIP3    H249038   4.315   6.775  12.912  0.4303 -0.4398 -0.3235
 9183TIP3   OH249039   1.982   4.779  13.974  0.1212  0.0851  0.2427
 9183TIP3    H149040   1.926   4.853  13.950  3.5917  2.1765 -2.3190
 9183TIP3    H249041   2.025   4.807  14.055 -1.1282 -0.7834  1.2525
 9184TIP3   OH249042   5.881   2.323   6.162  0.0329  0.3320  0.2983
 9184TIP3    H149043   5.921   2.408   6.180  0.9718  0.3779 -1.7845
 9184TIP3    H249044   5.855   2.290   6.248  0.1081  2.4861  1.2025
 9185TIP3   OH249045   5.639   6.465  15.427 -0.0902  0.0089  0.0557
 9185TIP3    H149046   5.730   6.449  15.403  0.0921  0.6788  0.2780
 9185TIP3    H249047   5.589   6.435  15.352  0.4298  1.4250 -0.9073
 9186TIP3   OH249048   4.222   4.050  11.650  0.4716  0.6275 -0.0471
 9186TIP3    H149049   4.157   4.104  11.695 -0.9334 -0.2798 -0.9296
 9186TIP3    H249050   4.282   4.023  11.720 -1.4522 -0.4541  1.2945
 9187TIP3   OH249051   3.059   2.383  13.913  0.2814  0.2132 -0.1816
 9187TIP3    H149052   3.015   2.415  13.992 -2.8248  0.3249 -1.8187
 9187TIP3    H249053   3.027   2.439  13.843 -0.1205 -2.2523 -2.1202
 9188TIP3   OH249054   3.057   1.364   6.081 -0.5875 -0.3940 -0.4587
 9188TIP3    H149055   3.070   1.269   6.086 -1.7191 -0.5414 -0.0069
 9188TIP3    H249056   3.122   1.400   6.142 -0.1063 -0.8691 -0.6782
 9189TIP3   OH249057   3.420   2.569  14.094  0.0499  0.1412  0.3835
 9189TIP3    H149058   3.427   2.497  14.031 -0.9040  0.6138 -0.3052
 9189TIP3    H249059   3.328   2.597  14.087  0.5712  1.9154  0.0575
 9190TIP3   OH249060   3.449   0.045  15.560  0.1229 -0.4013 -0.3371
 9190TIP3    H149061   3.400   0.126  15.545 -0.5320 -1.0060 -1.6679
 9190TIP3    H249062   3.411  -0.018  15.498  1.8625 -1.1964 -0.6682
 9191TIP3   OH249063   0.881   3.142   6.349 -0.2235  0.0130  0.5794
 9191TIP3    H149064   0.913   3.196   6.278 -0.3898  0.8748  1.1433
 9191TIP3    H249065   0.808   3.192   6.387 -2.9459 -2.2667 -1.2511
 9192TIP3   OH249066   0.067   0.469   5.052 -0.0621 -0.4404  0.0352
 9192TIP3    H149067   0.060   0.397   4.989 -1.4188 -0.7059  0.4682
 9192TIP3    H249068   0.059   0.428   5.137 -2.0798  0.3143  0.2597
 9193TIP3   OH249069   6.404   2.818   0.246 -0.4311  0.2064  0.3299
 9193TIP3    H149070   6.420   2.725   0.263 -1.4829  0.1481  1.0963
 9193TIP3    H249071   6.328   2.840   0.300 -0.1593  1.5354  0.2118
 9194TIP3   OH249072   1.930   3.979  17.189  0.5121 -0.9444  0.4516
 9194TIP3    H149073   1.863   3.910  17.191  0.4779 -0.9039  2.3578
 9194TIP3    H249074   2.013   3.932  17.187  0.5414 -1.0070 -2.7149
 9195TIP3   OH249075   2.767   1.918   5.118 -0.2146 -0.0603 -0.5736
 9195TIP3    H149076   2.733   1.989   5.172 -0.2934 -0.5655  0.0453
 9195TIP3    H249077   2.862   1.931   5.118 -0.0658 -0.9621  0.9955
 9196TIP3   OH249078   1.504   6.371  16.745 -0.8149  0.1077 -0.2131
 9196TIP3    H149079   1.547   6.447  16.785  2.4843 -1.3256 -0.7471
 9196TIP3    H249080   1.522   6.380  16.652 -1.6573 -0.6244 -0.4575
 9197TIP3   OH249081   1.791   3.811   2.896 -0.1433  0.3499  0.0507
 9197TIP3    H149082   1.740   3.828   2.975  1.7177  1.6104  1.0712
 9197TIP3    H249083   1.807   3.716   2.897 -0.4126  0.3087  1.0180
 9198TIP3   OH249084   6.484   2.137   4.153 -0.0453 -0.5512  0.2264
 9198TIP3    H149085   6.408   2.184   4.119  0.1204  0.1965  0.8557
 9198TIP3    H249086   6.492   2.166   4.244  1.2660 -0.2420  0.0437
 9199TIP3   OH249087   0.590   0.818  15.416 -0.6773 -0.6946 -0.1502
 9199TIP3    H149088   0.662   0.767  15.455 -1.5210 -0.6427  1.5888
 9199TIP3    H249089   0.519   0.811  15.480 -1.5807  0.8107 -0.9422
 9200TIP3   OH249090   5.908   0.067  12.204 -0.4198  0.2826  0.1293
 9200TIP3    H149091   5.986   0.121  12.204 -0.1324 -0.1237  0.9982
 9200TIP3    H249092   5.940  -0.023  12.200 -0.8099  0.0790  1.3576
 9201TIP3   OH249093   4.192   2.532  12.739 -0.3533  0.0294 -0.3810
 9201TIP3    H149094   4.096   2.540  12.740 -0.4454 -0.3612  2.5419
 9201TIP3    H249095   4.223   2.618  12.710 -1.5436  0.1851 -1.3029
 9202TIP3   OH249096   5.976   5.245  12.995 -0.3051  0.8592 -0.5191
 9202TIP3    H149097   5.980   5.207  13.083  1.1198 -1.4790 -1.5090
 9202TIP3    H249098   5.885   5.234  12.969 -1.0076  2.5530  1.0019
 9203TIP3   OH249099   4.935   3.725  16.812  0.0612 -0.4355 -0.9680
 9203TIP3    H149100   4.946   3.638  16.774  1.3644 -1.3742  1.4003
 9203TIP3    H249101   5.023   3.763  16.810 -0.2708  0.3532 -0.8802
 9204TIP3   OH249102   6.624   6.490  12.832  0.0006 -0.1082  1.2182
 9204TIP3    H149103   6.534   6.460  12.814  0.1631 -0.2245  0.5763
 9204TIP3    H249104   6.633   6.481  12.927 -1.1199  1.1625  1.4833
 9205TIP3   OH249105   5.059   4.837  11.001  0.4873 -0.6529  0.0805
 9205TIP3    H149106   4.977   4.852  11.049  2.2903  1.9099  2.7008
 9205TIP3    H249107   5.071   4.916  10.949  0.6262 -1.6756 -1.5233
 9206TIP3   OH249108   2.263   1.377   2.903 -0.0217  0.5192  0.5902
 9206TIP3    H149109   2.202   1.446   2.928 -1.7071 -0.5019 -0.5673
 9206TIP3    H249110   2.211   1.297   2.902  1.9666 -0.9524  2.3827
 9207TIP3   OH249111   1.251   3.995  14.730 -0.2193  0.1714 -0.1116
 9207TIP3    H149112   1.184   4.039  14.678 -1.0928 -0.1661  0.7037
 9207TIP3    H249113   1.233   4.022  14.820  1.5853  1.1656  0.0061
 9208TIP3   OH249114   0.278   6.032  17.181  0.3009 -0.1695 -0.7193
 9208TIP3    H149115   0.227   5.957  17.212 -0.4333  0.6100  0.0286
 9208TIP3    H249116   0.302   6.011  17.091 -1.2838 -0.5936 -1.0578
 9209TIP3   OH249117   0.019   1.774  14.455 -0.3482 -0.1715 -0.2709
 9209TIP3    H149118   0.029   1.690  14.499 -0.4538 -0.4543 -0.7797
 9209TIP3    H249119   0.097   1.824  14.480 -0.2267 -0.4635 -0.0662
 9210TIP3   OH249120   0.021   5.766  12.120 -0.1784 -0.2897 -0.0059
 9210TIP3    H149121  -0.062   5.720  12.127 -0.0468 -0.4595  0.4267
 9210TIP3    H249122   0.044   5.789  12.210  0.4751 -0.6544 -0.0760
 9211TIP3   OH249123   6.721   5.567  14.754  0.0933  0.1033  0.3091
 9211TIP3    H149124   6.777   5.571  14.831 -0.6637  0.6655  0.8488
 9211TIP3    H249125   6.657   5.637  14.767  0.8531  1.2212 -1.5562
 9212TIP3   OH249126   5.389   5.215   3.135 -0.0080 -0.1443  0.5718
 9212TIP3    H149127   5.455   5.207   3.204 -0.2580  0.6916  0.9279
 9212TIP3    H249128   5.306   5.223   3.183 -0.1390  0.8890  0.2048
 9213TIP3   OH249129   4.475   5.959   2.354  0.0760  0.3512 -0.4205
 9213TIP3    H149130   4.523   5.996   2.428  0.7585 -1.0872 -0.1133
 9213TIP3    H249131   4.456   5.869   2.380 -0.8102  0.2071 -1.4807
 9214TIP3   OH249132   1.671   1.809   0.367 -0.1469  0.1121  0.2366
 9214TIP3    H149133   1.699   1.894   0.334  3.1858 -0.6621  0.7330
 9214TIP3    H249134   1.718   1.746   0.313 -1.0431 -1.3743  1.1303
 9215TIP3   OH249135   1.538   3.003   2.944 -0.1899 -0.3310 -0.0255
 9215TIP3    H149136   1.452   2.974   2.914 -0.8078  1.2233  0.1771
 9215TIP3    H249137   1.573   3.055   2.872 -0.0003  0.1548  0.4099
 9216TIP3   OH249138   5.744   6.689   3.647  0.8569 -0.6829  0.2230
 9216TIP3    H149139   5.671   6.627   3.645  0.9214 -0.7720  0.5588
 9216TIP3    H249140   5.742   6.731   3.561  0.8486 -1.1933 -0.0316
 9217TIP3   OH249141   1.595   5.796   3.287 -0.6020  0.1699  0.0754
 9217TIP3    H149142   1.520   5.737   3.279 -0.0316 -0.7063  0.9859
 9217TIP3    H249143   1.608   5.805   3.381  0.8519 -0.2363 -0.0715
 9218TIP3   OH249144   3.408   1.046   0.164  0.1358  0.2877 -0.1968
 9218TIP3    H149145   3.443   0.983   0.102  0.4874  0.2219  0.0671
 9218TIP3    H249146   3.410   1.001   0.248  1.1149  0.9190  0.1260
 9219TIP3   OH249147   6.175   0.380  11.159 -0.0558  0.2910 -0.4396
 9219TIP3    H149148   6.212   0.415  11.239 -0.1672 -0.0040 -0.2574
 9219TIP3    H249149   6.250   0.364  11.102  0.1916 -1.0638  0.2263
 9220TIP3   OH249150   1.793   2.765  16.526 -0.3038 -0.1447 -0.4204
 9220TIP3    H149151   1.718   2.822  16.543 -0.1301 -0.2754  0.9164
 9220TIP3    H249152   1.869   2.816  16.557 -0.0854 -0.8398  0.2293
 9221TIP3   OH249153   3.532   2.182  16.609  0.4395  0.2185  0.1638
 9221TIP3    H149154   3.490   2.230  16.538  1.4633  0.8240 -0.0545
 9221TIP3    H249155   3.620   2.162  16.576  0.8035  0.1812  1.1156
 9222TIP3   OH249156   1.294   0.414   4.091  0.0828 -0.2567 -0.3064
 9222TIP3    H149157   1.308   0.497   4.045 -0.1623  1.5618  2.6185
 9222TIP3    H249158   1.344   0.423   4.172 -0.6101 -2.6544  0.4648
 9223TIP3   OH249159   6.131   6.178  12.942 -0.1986  0.0852 -0.4142
 9223TIP3    H149160   6.055   6.233  12.961  0.2272 -0.1193  2.2129
 9223TIP3    H249161   6.094   6.091  12.928 -0.4950 -0.0883  1.2082
 9224TIP3   OH249162   6.229   5.017  12.902  0.1242  0.4705 -0.0212
 9224TIP3    H149163   6.281   5.007  12.981  0.5746  0.6034 -0.2945
 9224TIP3    H249164   6.145   4.976  12.922  1.0616 -1.6906 -0.3041
 9225TIP3   OH249165   5.052   4.038  11.504 -0.4012  0.1056  0.1181
 9225TIP3    H149166   5.136   4.031  11.458  0.2043 -1.5638  1.3614
 9225TIP3    H249167   5.005   4.107  11.457  1.1265  0.1718 -1.4494
 9226TIP3   OH249168   6.686   5.272   5.182  0.2118  0.9926  0.1341
 9226TIP3    H149169   6.756   5.308   5.126 -0.0947 -0.6603 -1.3854
 9226TIP3    H249170   6.692   5.178   5.170 -0.6757  0.6607  1.9959
 9227TIP3   OH249171   6.526   1.364  13.063 -0.4204  0.0774 -0.4059
 9227TIP3    H149172   6.500   1.395  13.150 -0.8681  0.5541 -0.6998
 9227TIP3    H249173   6.449   1.380  13.008  0.0927  0.4170 -1.0424
 9228TIP3   OH249174   6.652   4.972  14.098 -0.0630 -0.4330 -0.0828
 9228TIP3    H149175   6.681   5.061  14.076  0.3983 -0.4872  0.3017
 9228TIP3    H249176   6.715   4.941  14.163  0.0096 -1.1901 -0.5058
 9229TIP3   OH249177   5.853   4.342   5.263 -0.6734  0.1863 -0.2613
 9229TIP3    H149178   5.868   4.254   5.299 -2.4387 -0.3808 -0.7911
 9229TIP3    H249179   5.815   4.391   5.335 -0.6997  0.1901 -0.2779
 9230TIP3   OH249180   0.572   3.365   3.885 -0.0881  0.0569 -0.2898
 9230TIP3    H149181   0.653   3.374   3.835 -0.3231  1.1096 -0.4942
 9230TIP3    H249182   0.548   3.273   3.875  0.7266 -0.1139 -0.7685
 9231TIP3   OH249183   6.761   6.306   6.225  0.0836 -0.1407  0.1206
 9231TIP3    H149184   6.724   6.260   6.150 -1.5934  2.1349 -0.5770
 9231TIP3    H249185   6.748   6.247   6.299  1.2172 -2.1840 -1.2306
 9232TIP3   OH249186   6.354   4.242  10.575  0.5298 -0.2183 -0.3069
 9232TIP3    H149187   6.421   4.308  10.593 -0.4017  0.2953  1.3785
 9232TIP3    H249188   6.367   4.176  10.643  0.3792 -0.9615 -0.9878
 9233TIP3   OH249189   4.507   2.298   4.657  0.4047  0.6883  0.2023
 9233TIP3    H149190   4.590   2.305   4.608  0.0871 -1.6218 -0.7891
 9233TIP3    H249191   4.529   2.248   4.735 -0.0640  0.0029 -0.1004
 9234TIP3   OH249192   1.568   6.375  11.428 -0.1110  0.4907 -0.0112
 9234TIP3    H149193   1.659   6.346  11.436  0.0899  1.0212 -0.3573
 9234TIP3    H249194   1.527   6.309  11.371 -0.0383  0.0563  0.4315
 9235TIP3   OH249195   5.459   3.695   3.612 -0.1666 -0.4057  0.2370
 9235TIP3    H149196   5.380   3.739   3.582  0.2057  1.4270  1.7423
 9235TIP3    H249197   5.439   3.602   3.603 -2.2812  0.0063  0.0746
 9236TIP3   OH249198   1.447   4.575  10.990 -0.4049 -0.4546 -0.6323
 9236TIP3    H149199   1.373   4.571  11.051 -1.4085 -0.1689 -1.7949
 9236TIP3    H249200   1.441   4.494  10.940  0.6246 -0.8541 -0.1427
 9237TIP3   OH249201   4.095   4.516  15.494  0.4444 -0.3752  0.3714
 9237TIP3    H149202   4.117   4.502  15.402  0.6315 -0.8718  0.4898
 9237TIP3    H249203   4.030   4.448  15.513 -1.4698  1.2113 -0.0583
 9238TIP3   OH249204   4.389   6.420  14.303 -0.1662 -0.6002 -0.4937
 9238TIP3    H149205   4.462   6.432  14.241 -0.7599  2.4336 -0.7962
 9238TIP3    H249206   4.311   6.421  14.247 -0.7340  2.4998  0.1789
 9239TIP3   OH249207   1.708   0.769  11.794 -0.0545 -0.3569 -0.8422
 9239TIP3    H149208   1.633   0.712  11.814  0.2185 -0.4366 -0.0143
 9239TIP3    H249209   1.781   0.729  11.841 -0.0139  1.0868  0.3810
 9240TIP3   OH249210   2.325   0.893  15.894  0.3392  0.3035  0.1925
 9240TIP3    H149211   2.292   0.901  15.984 -0.0264  0.9415  0.0058
 9240TIP3    H249212   2.392   0.960  15.887 -0.9435  1.5401 -0.5853
 9241TIP3   OH249213   5.953   2.610  14.515  0.2513 -0.0493  0.1901
 9241TIP3    H149214   5.883   2.546  14.529 -1.2496  1.3932 -0.4683
 9241TIP3    H249215   5.975   2.642  14.603 -0.9361  0.5247  0.2900
 9242TIP3   OH249216   2.575   1.113   2.391  0.0848  0.0380 -0.3000
 9242TIP3    H149217   2.548   1.127   2.300 -1.0771  0.5439  0.0930
 9242TIP3    H249218   2.499   1.073   2.433  0.7529 -0.5789  0.3625
 9243TIP3   OH249219   1.586   2.363   1.620  0.5751 -0.4723 -0.4646
 9243TIP3    H149220   1.675   2.368   1.585  0.1458 -0.3929 -1.5603
 9243TIP3    H249221   1.531   2.347   1.544 -0.3641 -0.4421  0.1973
 9244TIP3   OH249222   5.042   4.316   0.434  0.6510 -0.5616  0.0129
 9244TIP3    H149223   4.989   4.241   0.460  0.6924 -0.1738  1.3329
 9244TIP3    H249224   5.003   4.346   0.352 -0.8964 -0.5808  0.6953
 9245TIP3   OH249225   4.050   2.382  13.452  0.0386 -0.0185  0.0683
 9245TIP3    H149226   4.138   2.360  13.482  0.3276  0.8780 -0.0855
 9245TIP3    H249227   4.036   2.325  13.375 -0.2355 -1.4449  1.1299
 9246TIP3   OH249228   1.501   0.961  10.237 -0.1166  0.3374  0.2013
 9246TIP3    H149229   1.493   1.049  10.200  1.9518 -0.1350 -1.5833
 9246TIP3    H249230   1.511   0.903  10.161 -1.4025 -1.4819  1.3260
 9247TIP3   OH249231   0.564   4.537   4.747 -0.1209  0.5102  0.0009
 9247TIP3    H149232   0.551   4.549   4.653 -1.5663 -0.5076  0.0506
 9247TIP3    H249233   0.646   4.488   4.754 -1.2406 -1.5868 -0.8883
 9248TIP3   OH249234   6.131   6.180   1.121  0.4412  0.1615  0.4138
 9248TIP3    H149235   6.162   6.269   1.105  1.1164 -0.3269 -1.2549
 9248TIP3    H249236   6.211   6.131   1.143  0.3251 -0.3556 -0.2870
 9249TIP3   OH249237   1.075   6.142  14.965 -0.3881  0.1945 -0.1222
 9249TIP3    H149238   0.993   6.186  14.941 -0.2544 -0.7428 -2.5596
 9249TIP3    H249239   1.104   6.100  14.885 -0.3891 -4.2212  1.9138
 9250TIP3   OH249240   2.128   2.593  16.106 -0.1449  0.3710  0.1082
 9250TIP3    H149241   2.042   2.551  16.107 -0.0535  0.1943  0.4455
 9250TIP3    H249242   2.138   2.623  16.015 -0.1026 -0.5524 -0.1970
 9251TIP3   OH249243   6.719   0.285   6.741 -0.0653 -0.2052  0.3988
 9251TIP3    H149244   6.715   0.379   6.724  1.3295  0.0561  1.3066
 9251TIP3    H249245   6.787   0.276   6.808 -0.1126 -1.8748  0.2632
 9252TIP3   OH249246   6.514   5.665   1.201 -0.1918 -0.1753 -0.2667
 9252TIP3    H149247   6.514   5.592   1.264 -2.6599 -0.9407 -1.0709
 9252TIP3    H249248   6.438   5.717   1.225 -0.5301  0.1331 -1.9505
 9253TIP3   OH249249   4.391   0.674   4.531 -0.6223 -0.5555 -0.3255
 9253TIP3    H149250   4.370   0.613   4.601 -0.3380  0.6239  0.8459
 9253TIP3    H249251   4.449   0.739   4.573 -0.6547  0.3233 -1.5855
 9254TIP3   OH249252   6.554   5.399   5.841 -0.0387  0.2986  0.3948
 9254TIP3    H149253   6.646   5.415   5.820 -0.8786  1.8167 -2.7429
 9254TIP3    H249254   6.535   5.313   5.804  0.3844 -0.7033  2.3560
 9255TIP3   OH249255   1.714   6.234   3.132 -0.2827 -0.0452 -0.5037
 9255TIP3    H149256   1.680   6.291   3.202  0.3069  0.1210 -0.3479
 9255TIP3    H249257   1.774   6.290   3.083  0.3044 -0.5381 -0.3452
 9256TIP3   OH249258   2.301   5.726  16.942  0.3910 -0.2030  0.1487
 9256TIP3    H149259   2.309   5.811  16.984  2.4726 -0.6617  0.7796
 9256TIP3    H249260   2.259   5.745  16.858  2.9434  1.8147 -0.7843
 9257TIP3   OH249261   1.761   6.741  13.407  0.3314 -0.2707  0.1484
 9257TIP3    H149262   1.716   6.816  13.447 -0.9074 -0.5684 -0.6245
 9257TIP3    H249263   1.847   6.739  13.450 -0.5871 -0.0334  2.1245
 9258TIP3   OH249264   6.745   6.137  14.567  0.1037 -0.5752 -0.3626
 9258TIP3    H149265   6.745   6.182  14.482 -0.5485 -0.4776 -0.3121
 9258TIP3    H249266   6.713   6.203  14.628 -2.0431 -1.4482 -0.4781
 9259TIP3   OH249267   4.655   6.728   5.556 -0.1044 -0.3866 -0.2820
 9259TIP3    H149268   4.714   6.658   5.584  0.7427 -0.2105 -1.5721
 9259TIP3    H249269   4.610   6.693   5.479 -1.1239 -0.2146  0.2091
 9260TIP3   OH249270   0.216   5.024  16.077  0.5139 -0.3178  0.5956
 9260TIP3    H149271   0.136   5.044  16.125  0.5690 -0.3506  0.7008
 9260TIP3    H249272   0.193   4.950  16.021  0.2972  0.0622  0.1764
 9261TIP3   OH249273   0.012   0.660  10.609  0.2780  0.6674  0.3125
 9261TIP3    H149274  -0.077   0.689  10.587  0.7025  0.8356 -1.3361
 9261TIP3    H249275   0.018   0.572  10.571  0.1455 -0.2496  2.2807
 9262TIP3   OH249276   4.041   2.184   4.620 -0.0243  0.2306 -0.4185
 9262TIP3    H149277   4.035   2.149   4.531 -1.3787 -1.7589  0.4045
 9262TIP3    H249278   3.995   2.268   4.615 -1.2823 -0.4808 -1.3137
 9263TIP3   OH249279   2.003   2.211  16.727 -0.1151 -0.3188 -0.4573
 9263TIP3    H149280   2.075   2.255  16.772 -0.6236  0.9815 -0.8583
 9263TIP3    H249281   1.969   2.278  16.667 -2.1092 -0.6659  0.2422
 9264TIP3   OH249282   5.018   3.331   5.571 -0.1181 -0.2903 -0.1295
 9264TIP3    H149283   5.096   3.380   5.598 -0.4028 -0.5954  1.3274
 9264TIP3    H249284   5.002   3.360   5.481  0.7951  0.8958  0.0565
 9265TIP3   OH249285   6.718   3.861   2.158 -0.1610 -0.2081 -0.1558
 9265TIP3    H149286   6.650   3.833   2.218  1.5335 -3.5111  0.4574
 9265TIP3    H249287   6.765   3.930   2.206 -1.5562  0.3920  0.3907
 9266TIP3   OH249288   3.026   6.359   0.806 -0.1256  0.3042 -0.4482
 9266TIP3    H149289   2.954   6.375   0.867 -1.0217  1.1798 -1.6896
 9266TIP3    H249290   2.998   6.283   0.755  1.3403 -1.4689  1.2335
 9267TIP3   OH249291   0.109   2.324  15.790  0.1312 -0.4476 -0.2053
 9267TIP3    H149292   0.092   2.365  15.706 -2.3734 -2.2068 -0.6390
 9267TIP3    H249293   0.189   2.273  15.776 -0.7195 -1.4086 -1.8244
 9268TIP3   OH249294   6.465   4.482  14.280 -0.2780  0.1943 -0.0855
 9268TIP3    H149295   6.426   4.556  14.232 -1.6772 -1.5060 -1.7162
 9268TIP3    H249296   6.519   4.437  14.216 -1.6410 -1.7412  0.0260
 9269TIP3   OH249297   6.179   0.438   2.702  0.0068  0.6468 -0.3396
 9269TIP3    H149298   6.240   0.403   2.766 -0.5165  1.7697  0.8159
 9269TIP3    H249299   6.094   0.403   2.727 -0.2180  1.1807 -0.3285
 9270TIP3   OH249300   3.350   4.810   5.609  0.6218  0.0253 -0.2240
 9270TIP3    H149301   3.282   4.749   5.582  0.6664  0.7500 -2.1970
 9270TIP3    H249302   3.319   4.846   5.692 -0.0479 -1.6505  0.2807
 9271TIP3   OH249303   6.117   5.524   5.450  0.3342  0.5113  0.4426
 9271TIP3    H149304   6.034   5.549   5.410  1.1699  1.5949 -0.7283
 9271TIP3    H249305   6.103   5.531   5.544 -0.4663  2.2085  0.2290
 9272TIP3   OH249306   1.642   1.719   5.643 -0.1099  0.3790 -0.8235
 9272TIP3    H149307   1.709   1.786   5.658 -0.8128  0.7404  1.0362
 9272TIP3    H249308   1.627   1.681   5.730 -1.8428 -0.1496 -1.3190
 9273TIP3   OH249309   6.039   3.147  13.010  0.3782  0.1005 -0.2052
 9273TIP3    H149310   6.076   3.220  13.059 -0.6276  1.3479 -1.2310
 9273TIP3    H249311   6.008   3.186  12.928 -1.0148 -1.3008 -0.4019
 9274TIP3   OH249312   5.253   0.196   1.168  0.1029 -0.3854  0.8304
 9274TIP3    H149313   5.221   0.157   1.087 -0.2391 -0.6328  1.0850
 9274TIP3    H249314   5.324   0.139   1.197 -0.2823 -0.7258  1.1105
 9275TIP3   OH249315   6.459   5.268  16.811  0.1219 -0.3692 -0.6775
 9275TIP3    H149316   6.553   5.255  16.803  0.3448  0.0936  0.7565
 9275TIP3    H249317   6.450   5.361  16.833 -0.7689 -0.1311 -1.9336
 9276TIP3   OH249318   2.088   2.100  16.251 -0.0660  0.0326 -0.1744
 9276TIP3    H149319   2.091   2.159  16.176  2.3811  0.3808  0.1288
 9276TIP3    H249320   1.996   2.074  16.257 -0.2736 -0.4612 -3.6061
 9277TIP3   OH249321   0.834   0.975  11.958 -0.1767  0.3183  0.7925
 9277TIP3    H149322   0.764   0.945  12.016 -0.6895 -0.3590 -0.1473
 9277TIP3    H249323   0.873   0.895  11.923  0.1131  0.7038  0.1993
 9278TIP3   OH249324   0.483   0.100  15.326 -0.0577  0.3115  0.2873
 9278TIP3    H149325   0.507   0.036  15.392  0.3209 -0.4337 -0.5555
 9278TIP3    H249326   0.545   0.086  15.255 -2.1959 -0.8924 -1.4808
 9279TIP3   OH249327   1.082   6.601   2.733 -0.5587 -0.0777 -0.1363
 9279TIP3    H149328   1.111   6.541   2.802  1.1889 -0.7333 -1.3735
 9279TIP3    H249329   1.145   6.588   2.662 -1.1123  2.0283 -1.0921
 9280TIP3   OH249330   6.187   5.642  11.390  0.0697  0.3167 -0.1180
 9280TIP3    H149331   6.194   5.720  11.445 -0.0472 -0.1528  0.5791
 9280TIP3    H249332   6.274   5.603  11.392  0.4010  0.9771 -1.3083
 9281TIP3   OH249333   2.388   2.077   0.837 -0.3520 -0.2966  0.0066
 9281TIP3    H149334   2.333   2.149   0.805  0.4294 -0.0052 -0.7069
 9281TIP3    H249335   2.453   2.064   0.768  0.7205 -0.3767  1.0093
 9282TIP3   OH249336   4.843   6.317  14.283 -0.4377 -0.2806  0.0098
 9282TIP3    H149337   4.815   6.241  14.334 -1.5000  0.0143 -0.1061
 9282TIP3    H249338   4.839   6.390  14.345 -0.0812 -0.2113 -0.0503
 9283TIP3   OH249339   2.026   2.719   0.764  0.2807 -0.0791 -0.2096
 9283TIP3    H149340   2.066   2.805   0.778  0.2657 -0.1545  0.3046
 9283TIP3    H249341   1.941   2.738   0.724  0.9000  0.0760 -1.5086
 9284TIP3   OH249342   4.503   5.036  13.410  0.2412 -0.0425 -0.2185
 9284TIP3    H149343   4.482   5.092  13.485 -0.4007  0.0502 -0.4598
 9284TIP3    H249344   4.425   5.041  13.354  1.1522  0.8040 -1.4627
 9285TIP3   OH249345   3.311   1.040  14.669 -0.1514  0.3831 -0.3352
 9285TIP3    H149346   3.377   1.056  14.736 -0.2226  0.6536 -0.3297
 9285TIP3    H249347   3.280   0.951  14.687 -0.9317  0.8281  0.6494
 9286TIP3   OH249348   0.307   3.646  16.701  0.4056  0.2758  0.0695
 9286TIP3    H149349   0.363   3.627  16.625  1.5662  2.4047  0.3305
 9286TIP3    H249350   0.358   3.615  16.776  1.0928  1.8381  0.2736
 9287TIP3   OH249351   6.823   1.376  14.312  0.2922 -0.2456 -0.2855
 9287TIP3    H149352   6.773   1.353  14.391 -2.4394 -0.6022 -1.9570
 9287TIP3    H249353   6.866   1.294  14.286  0.8991 -0.2172  0.6036
 9288TIP3   OH249354   1.455   0.809  16.032  0.2977  0.5706  0.5605
 9288TIP3    H149355   1.400   0.832  16.107 -0.8593 -1.4226  0.4004
 9288TIP3    H249356   1.402   0.747  15.982  2.1039 -0.2434 -0.4413
 9289TIP3   OH249357   2.233   3.021   2.967 -0.2237  0.5561 -0.4179
 9289TIP3    H149358   2.196   3.094   2.917  0.8517  0.0755 -1.9731
 9289TIP3    H249359   2.296   3.062   3.026 -0.4392  0.9913 -0.4886
 9290TIP3   OH249360   4.436   0.023  13.900  0.0465  0.2332  0.6416
 9290TIP3    H149361   4.464  -0.012  13.984 -0.1249 -0.9909  0.2048
 9290TIP3    H249362   4.514   0.019  13.845 -0.2467 -0.4712  0.2733
 9291TIP3   OH249363   1.506   4.589   4.517  0.1362  0.5981 -0.3892
 9291TIP3    H149364   1.529   4.629   4.601 -0.0864 -0.4771  0.1929
 9291TIP3    H249365   1.585   4.601   4.462  0.5190  0.7146  0.1799
 9292TIP3   OH249366   6.529   4.890  16.188 -0.1254 -0.0547  0.5099
 9292TIP3    H149367   6.436   4.899  16.206 -0.0547  0.4838  0.6348
 9292TIP3    H249368   6.535   4.823  16.120 -0.5904 -0.2090  0.6233
 9293TIP3   OH249369   5.136   3.936   4.525 -0.4133  0.3534  0.4280
 9293TIP3    H149370   5.183   3.954   4.607 -1.5314  3.1879  0.5542
 9293TIP3    H249371   5.193   3.971   4.457  0.5109 -1.9989 -0.1214
 9294TIP3   OH249372   0.719   3.724   1.085 -0.1726  0.2232  0.1226
 9294TIP3    H149373   0.707   3.660   1.015  2.8636  0.7629 -1.0147
 9294TIP3    H249374   0.770   3.678   1.152  2.1578  1.3650 -0.7667
 9295TIP3   OH249375   1.270   0.547  17.220 -0.1429 -0.2913  0.0309
 9295TIP3    H149376   1.337   0.580  17.161 -0.5349 -2.7406 -1.9619
 9295TIP3    H249377   1.189   0.587  17.191 -0.3847 -1.7200 -1.4179
 9296TIP3   OH249378   0.063   4.067  12.239  0.0061 -0.0434  0.0215
 9296TIP3    H149379   0.063   4.149  12.289 -1.4465 -0.8505  1.4307
 9296TIP3    H249380   0.066   4.095  12.148 -1.0033  1.6149  0.4453
 9297TIP3   OH249381   6.230   0.019  13.268  0.0128  0.3022 -0.4591
 9297TIP3    H149382   6.318  -0.020  13.261  0.1058  0.4318 -0.0418
 9297TIP3    H249383   6.176  -0.033  13.208  0.2781 -0.0580 -0.3930
 9298TIP3   OH249384   2.624   1.952  11.840 -0.0163  0.2622 -0.2160
 9298TIP3    H149385   2.703   1.915  11.880 -0.9655 -1.3391  0.2692
 9298TIP3    H249386   2.601   2.025  11.898  1.1672  0.8437 -0.4485
 9299TIP3   OH249387   0.902   5.092   6.523 -0.1478 -0.2490 -0.1393
 9299TIP3    H149388   0.898   5.175   6.475 -1.2331  0.7407  1.5785
 9299TIP3    H249389   0.982   5.050   6.491 -0.3898  0.7125 -2.1809
 9300TIP3   OH249390   0.708   4.142   5.169 -0.3002 -0.3540 -0.4052
 9300TIP3    H149391   0.660   4.223   5.188 -1.5222 -1.1605  0.0648
 9300TIP3    H249392   0.793   4.154   5.211  0.2600  1.4105 -1.8767
 9301TIP3   OH249393   1.972   6.389  16.472 -0.1332 -0.0846  0.0968
 9301TIP3    H149394   2.063   6.396  16.443 -0.3621 -0.4851 -0.7563
 9301TIP3    H249395   1.958   6.296  16.485 -0.1781  0.0513  1.0682
 9302TIP3   OH249396   5.804   0.597  12.447  0.4754  0.3460  0.6488
 9302TIP3    H149397   5.768   0.667  12.501 -1.2742 -0.2543  0.3446
 9302TIP3    H249398   5.830   0.640  12.366 -0.7040  0.6755  0.4161
 9303TIP3   OH249399   6.703   3.308  14.205 -0.1661  0.4037 -0.2771
 9303TIP3    H149400   6.615   3.344  14.213 -0.9012 -1.2741 -0.4003
 9303TIP3    H249401   6.747   3.334  14.286 -1.3960 -0.3481  0.6704
 9304TIP3   OH249402   0.794   3.779  16.213 -0.1315  0.0272  0.6166
 9304TIP3    H149403   0.782   3.856  16.157  1.3133 -0.0045  0.2142
 9304TIP3    H249404   0.876   3.740  16.182 -1.2660 -2.2034  0.1990
 9305TIP3   OH249405   2.599   5.692  15.328  0.2428  0.3652 -0.2544
 9305TIP3    H149406   2.610   5.701  15.233  1.1228 -0.8090 -0.2910
 9305TIP3    H249407   2.625   5.602  15.346 -3.7595 -0.8369  0.5486
 9306TIP3   OH249408   5.657   3.461   1.173 -0.0369 -0.5543  0.0342
 9306TIP3    H149409   5.622   3.474   1.085  0.0297  1.7867  0.2730
 9306TIP3    H249410   5.593   3.404   1.216 -1.0389 -0.2532 -0.9976
 9307TIP3   OH249411   2.108   6.145  14.174  0.4835  0.0634 -0.0455
 9307TIP3    H149412   2.070   6.067  14.134 -2.5681 -0.1835  2.9431
 9307TIP3    H249413   2.060   6.218  14.135  1.3274  0.2731 -0.7269
 9308TIP3   OH249414   5.834   2.679  17.145  0.9600  0.7661 -0.0417
 9308TIP3    H149415   5.916   2.667  17.097  2.5990  2.1227  2.2000
 9308TIP3    H249416   5.860   2.721  17.227 -2.1563  2.8246  0.0916
 9309TIP3   OH249417   4.050   2.401  11.315  0.7479 -0.5919 -0.3110
 9309TIP3    H149418   4.018   2.487  11.286 -1.2071 -1.1166  0.1686
 9309TIP3    H249419   4.113   2.422  11.384  2.3069  0.5083 -1.9773
 9310TIP3   OH249420   3.815   5.798  14.089 -0.2194  0.1489 -0.3952
 9310TIP3    H149421   3.864   5.863  14.140 -3.7895  1.8734  1.1587
 9310TIP3    H249422   3.811   5.722  14.147  1.0607 -0.2684 -0.8103
 9311TIP3   OH249423   6.037   3.183  16.060 -0.2164 -0.3818  0.6393
 9311TIP3    H149424   5.944   3.176  16.041  0.0307  0.2742 -1.0866
 9311TIP3    H249425   6.043   3.243  16.133 -1.1281  0.1200  0.3101
 9312TIP3   OH249426   4.273   5.918  15.132 -1.2013 -0.3322 -0.6747
 9312TIP3    H149427   4.250   5.991  15.074  0.1021  0.7461  0.1121
 9312TIP3    H249428   4.255   5.950  15.220 -0.4585 -0.8959 -0.3084
 9313TIP3   OH249429   0.319   6.128   6.101 -0.4392 -0.5170 -0.0344
 9313TIP3    H149430   0.295   6.198   6.041 -0.3564  0.1898  0.7369
 9313TIP3    H249431   0.241   6.073   6.106 -1.0409  0.3574  0.4974
 9314TIP3   OH249432   2.003   4.577   5.293 -0.1627  0.3322  0.2542
 9314TIP3    H149433   2.044   4.589   5.207  0.0016 -1.0060  0.1103
 9314TIP3    H249434   2.022   4.485   5.315  0.5235  0.8833  2.1173
 9315TIP3   OH249435   3.884   1.613  16.839 -0.0165  0.2463 -0.2363
 9315TIP3    H149436   3.819   1.675  16.805 -0.9435 -0.5810 -0.0197
 9315TIP3    H249437   3.875   1.536  16.784 -0.4671 -0.5363  0.8996
 9316TIP3   OH249438   0.631   5.179  16.502 -0.2426  0.1972 -0.0433
 9316TIP3    H149439   0.687   5.131  16.564 -0.9531 -0.1581  0.3348
 9316TIP3    H249440   0.686   5.252  16.472  0.2805  0.1004  0.6480
 9317TIP3   OH249441   2.573   2.349  11.686 -0.3546 -0.3692  1.3871
 9317TIP3    H149442   2.563   2.439  11.654  0.8184 -0.8668 -0.4863
 9317TIP3    H249443   2.666   2.332  11.680 -0.5945 -1.8137  1.5124
 9318TIP3   OH249444   2.885   0.860   4.013  0.1199 -0.3763  0.6168
 9318TIP3    H149445   2.915   0.769   4.010  0.2834 -0.2993 -0.2897
 9318TIP3    H249446   2.933   0.904   3.943 -1.7880 -0.1525 -0.6278
 9319TIP3   OH249447   5.125   6.472  14.504 -0.2659 -0.1108 -0.2044
 9319TIP3    H149448   5.211   6.484  14.545  0.1392  0.3915 -1.1642
 9319TIP3    H249449   5.100   6.560  14.476 -1.3049 -0.1817  0.4523
 9320TIP3   OH249450   3.795   5.033   1.674 -0.3025 -0.2616 -0.3554
 9320TIP3    H149451   3.699   5.043   1.680 -0.4058 -0.7417 -1.1112
 9320TIP3    H249452   3.828   5.122   1.678 -0.8191 -0.0499 -0.6591
 9321TIP3   OH249453   3.855   6.154   3.133  0.0054  0.7055  0.0591
 9321TIP3    H149454   3.797   6.175   3.060 -0.3194 -0.7682 -0.1286
 9321TIP3    H249455   3.816   6.201   3.208  0.7033  2.7404 -0.7823
 9322TIP3   OH249456   6.404   5.866  11.918 -0.2797 -0.1675  0.5270
 9322TIP3    H149457   6.324   5.903  11.955 -0.8490 -0.4352 -0.3795
 9322TIP3    H249458   6.475   5.904  11.969 -1.0542 -1.9868  3.1846
 9323TIP3   OH249459   6.003   2.345   4.342  0.0610  0.1198  0.1469
 9323TIP3    H149460   5.950   2.272   4.310 -0.8871  0.6411  0.4909
 9323TIP3    H249461   5.945   2.421   4.336  0.7848  0.7054  0.5010
 9324TIP3   OH249462   4.547   6.082   5.968  0.2695 -0.1331 -0.7304
 9324TIP3    H149463   4.602   6.046   6.037 -0.8832  2.2660  1.5864
 9324TIP3    H249464   4.549   6.015   5.899  3.7295 -1.3806  0.3900
 9325TIP3   OH249465   5.591   3.363   5.687  0.1255 -0.4919  0.4048
 9325TIP3    H149466   5.523   3.345   5.752 -1.1425  0.4441 -0.5902
 9325TIP3    H249467   5.548   3.347   5.603  1.2365 -0.1452 -0.2538
 9326TIP3   OH249468   6.155   4.498  14.279 -0.2095 -0.1648 -0.4556
 9326TIP3    H149469   6.083   4.559  14.290  0.8353  0.8020  1.5200
 9326TIP3    H249470   6.115   4.411  14.284 -1.2766  0.3532  0.1517
 9327TIP3   OH249471   5.881   3.595  13.814 -0.1393  0.0844  0.0039
 9327TIP3    H149472   5.880   3.511  13.768 -0.8355  0.3690 -0.5128
 9327TIP3    H249473   5.833   3.580  13.895 -1.3635  0.2839 -0.6580
 9328TIP3   OH249474   3.167   5.533  15.039 -0.2364  0.6480 -0.2311
 9328TIP3    H149475   3.180   5.594  14.966 -2.4560 -0.6167 -1.8073
 9328TIP3    H249476   3.250   5.484  15.044  0.0516  0.9170 -1.7944
 9329TIP3   OH249477   4.713   3.525  16.075 -0.1813 -0.1240  0.3922
 9329TIP3    H149478   4.686   3.446  16.028 -2.0121  0.7661 -0.1458
 9329TIP3    H249479   4.735   3.494  16.162  0.1379 -1.3690 -0.1077
 9330TIP3   OH249480   0.196   3.364  17.104  0.0015  0.2619  0.2661
 9330TIP3    H149481   0.179   3.292  17.043  1.1672  0.9538 -0.9339
 9330TIP3    H249482   0.275   3.337  17.151  0.8711  1.0431 -0.7056
 9331TIP3   OH249483   6.743   3.128   3.755 -0.4181  0.1991  0.4367
 9331TIP3    H149484   6.715   3.177   3.678 -0.6141 -0.7711 -0.1227
 9331TIP3    H249485   6.836   3.114   3.742 -0.1985  1.0544  0.9699
 9332TIP3   OH249486   0.692   6.528   0.475  0.0381  0.1277 -0.0460
 9332TIP3    H149487   0.644   6.593   0.424  0.6369  1.6273  1.2379
 9332TIP3    H249488   0.720   6.463   0.410  0.3388  1.6947 -1.5500
 9333TIP3   OH249489   3.740   3.871   5.506 -0.3328 -0.0513 -0.1472
 9333TIP3    H149490   3.827   3.903   5.484 -0.5588 -0.0599 -1.0882
 9333TIP3    H249491   3.755   3.809   5.578  0.1841  1.6076  1.2341
 9334TIP3   OH249492   3.261   6.761  13.726  0.0279 -0.5380 -0.4248
 9334TIP3    H149493   3.166   6.749  13.728  0.0729 -0.8064  0.2428
 9334TIP3    H249494   3.284   6.790  13.814  0.8840 -3.1157  0.2863
 9335TIP3   OH249495   5.919   2.609   3.000  0.5207 -0.0997  0.0710
 9335TIP3    H149496   5.989   2.580   2.942 -1.0094 -3.1219 -0.4368
 9335TIP3    H249497   5.946   2.582   3.087 -0.0059 -1.3447 -0.1367
 9336TIP3   OH249498   1.748   3.523   5.184  0.3682  0.5990 -0.3992
 9336TIP3    H149499   1.791   3.503   5.101 -2.2256 -1.9546 -1.3049
 9336TIP3    H249500   1.759   3.617   5.195  3.3773  0.5596 -2.0417
 9337TIP3   OH249501   2.213   3.048  13.020 -0.0085 -0.0707  0.3403
 9337TIP3    H149502   2.181   2.983  12.959  2.4876 -1.0530 -0.0200
 9337TIP3    H249503   2.210   3.005  13.105  0.7545 -0.3472  0.2356
 9338TIP3   OH249504   6.495   4.062  16.476 -0.1573  0.2785 -0.2803
 9338TIP3    H149505   6.562   4.131  16.471 -0.0285  0.0698 -2.7855
 9338TIP3    H249506   6.412   4.108  16.458 -0.5154  0.2835  1.2897
 9339TIP3   OH249507   1.926   1.421   0.432  0.3054 -0.4776 -0.0467
 9339TIP3    H149508   2.019   1.398   0.432 -0.0379 -2.0088  0.3337
 9339TIP3    H249509   1.921   1.501   0.484  1.5377  0.2874 -1.0405
 9340TIP3   OH249510   0.181   3.438   3.455  0.2931  0.7533 -0.2478
 9340TIP3    H149511   0.136   3.519   3.479  0.1662  0.2615  1.2812
 9340TIP3    H249512   0.184   3.440   3.359 -0.6375  2.0518 -0.2809
 9341TIP3   OH249513   3.508   2.630  13.257 -0.6127  0.5526  0.3591
 9341TIP3    H149514   3.427   2.583  13.236  0.7464 -1.0371 -1.8137
 9341TIP3    H249515   3.482   2.695  13.322 -3.4744 -0.3511  0.2695
 9342TIP3   OH249516   5.855   0.668   1.167 -0.2516 -0.0483  0.0666
 9342TIP3    H149517   5.777   0.702   1.122  0.8207 -0.0343 -1.8608
 9342TIP3    H249518   5.905   0.623   1.099  1.6026  0.1957  1.1994
 9343TIP3   OH249519   4.451   6.314   4.123 -0.3500 -0.0393  0.2607
 9343TIP3    H149520   4.544   6.292   4.124  0.1204  1.7943  0.4651
 9343TIP3    H249521   4.448   6.402   4.086 -1.9643  0.1065  0.6689
 9344TIP3   OH249522   6.598   6.711  14.944  0.0947 -0.1413  0.9628
 9344TIP3    H149523   6.611   6.632  14.996  0.2746 -0.6225  0.2117
 9344TIP3    H249524   6.585   6.678  14.854 -1.1077  0.6111  0.8484
 9345TIP3   OH249525   1.962   4.071  11.851  0.3644  0.1144  0.1525
 9345TIP3    H149526   1.928   4.003  11.793  0.6559  0.6977 -0.7131
 9345TIP3    H249527   2.031   4.114  11.800  1.6971 -0.3425  1.4714
 9346TIP3   OH249528   2.150   2.631  14.762 -0.7736 -0.2662  0.5866
 9346TIP3    H149529   2.183   2.623  14.852  0.3363  1.5191  0.4004
 9346TIP3    H249530   2.203   2.570  14.711  2.3076  2.3675  0.3364
 9347TIP3   OH249531   3.779   6.726  13.855  0.6532  0.3804 -0.5932
 9347TIP3    H149532   3.816   6.641  13.833 -0.2470  0.0344 -0.7987
 9347TIP3    H249533   3.688   6.722  13.825 -0.0955  0.5640  1.4899
 9348TIP3   OH249534   3.142   5.335  11.061 -0.5875  0.2514 -0.0871
 9348TIP3    H149535   3.158   5.266  10.997  0.5620  1.1375 -0.7985
 9348TIP3    H249536   3.192   5.309  11.138 -0.6729 -0.0133 -0.1192
 9349TIP3   OH249537   4.933   6.622   5.498 -0.1192 -0.2780 -0.0769
 9349TIP3    H149538   4.885   6.541   5.484 -2.1241  0.4321  2.0208
 9349TIP3    H249539   4.989   6.605   5.574 -1.0750  0.4323  0.8293
 9350TIP3   OH249540   0.333   4.013   0.397 -0.1548  0.7288  0.2774
 9350TIP3    H149541   0.275   4.003   0.322  1.5431  0.2040 -1.0289
 9350TIP3    H249542   0.396   4.079   0.370  2.2049 -1.4526  0.0370
 9351TIP3   OH249543   1.093   6.202   3.493  0.8694 -0.0217  0.0244
 9351TIP3    H149544   1.142   6.255   3.556 -0.7300  1.5898 -0.0102
 9351TIP3    H249545   1.011   6.182   3.537  0.4031 -0.2935 -0.9498
 9352TIP3   OH249546   0.163   0.263  15.755 -0.2408 -0.0560 -0.4355
 9352TIP3    H149547   0.137   0.265  15.663 -0.6209  2.3542 -0.3534
 9352TIP3    H249548   0.258   0.250  15.753 -0.6483 -4.2548 -0.9118
 9353TIP3   OH249549   0.165   5.888  16.334 -0.3774 -0.1458  0.3985
 9353TIP3    H149550   0.143   5.922  16.421 -0.1451  0.1170  0.3565
 9353TIP3    H249551   0.174   5.966  16.279  1.0571 -0.2062  0.5111
 9354TIP3   OH249552   1.219   1.152   2.869  0.3527 -0.2998 -0.3065
 9354TIP3    H149553   1.271   1.218   2.823 -0.1055  0.0812 -0.2908
 9354TIP3    H249554   1.255   1.068   2.841  0.4237 -0.0612 -0.9530
 9355TIP3   OH249555   2.422   5.616   2.458  0.3902  0.3008 -0.0760
 9355TIP3    H149556   2.510   5.590   2.487 -0.4019  0.0470  2.3119
 9355TIP3    H249557   2.435   5.701   2.416  1.6757  0.7359  1.1098
 9356TIP3   OH249558   0.222   1.578   5.298 -0.4429  0.0640  0.5498
 9356TIP3    H149559   0.295   1.521   5.321 -1.1140 -0.1153  2.4064
 9356TIP3    H249560   0.151   1.552   5.357 -0.7750  2.7966  1.4814
 9357TIP3   OH249561   1.724   5.612   2.083  0.1321  0.1832 -0.0478
 9357TIP3    H149562   1.663   5.545   2.113 -0.9540  0.3360 -1.7738
 9357TIP3    H249563   1.709   5.687   2.142 -0.0461 -0.3995  0.6556
 9358TIP3   OH249564   5.720   2.129  13.397  0.0132 -0.1943  0.0642
 9358TIP3    H149565   5.748   2.116  13.306 -1.5485  0.4441 -0.5492
 9358TIP3    H249566   5.647   2.068  13.409 -0.3279  0.3126  0.6091
 9359TIP3   OH249567   0.989   0.486   4.496  0.2185  0.4157  0.4393
 9359TIP3    H149568   1.052   0.527   4.556 -0.1635  0.8073  0.5800
 9359TIP3    H249569   1.009   0.525   4.411  1.7127 -1.1914 -0.0103
 9360TIP3   OH249570   0.393   3.657  14.110 -0.5326  0.0489 -0.0045
 9360TIP3    H149571   0.432   3.744  14.117  0.9202 -0.6298  0.7518
 9360TIP3    H249572   0.307   3.666  14.152 -0.9813  1.4177 -1.1513
 9361TIP3   OH249573   6.496   3.489   6.054 -0.0360 -0.2834  0.5739
 9361TIP3    H149574   6.560   3.546   6.011  0.1039 -0.4603  0.5482
 9361TIP3    H249575   6.479   3.419   5.992 -0.5411 -0.0397  0.4264
 9362TIP3   OH249576   2.344   0.180   5.747  0.2109 -0.0871  0.1622
 9362TIP3    H149577   2.312   0.257   5.793  1.1464  0.2494  0.2759
 9362TIP3    H249578   2.379   0.123   5.815  1.3462  0.2889 -0.0869
 9363TIP3   OH249579   2.268   0.059  16.416  0.0193  0.5201  0.3696
 9363TIP3    H149580   2.238   0.064  16.325 -3.2930 -0.2908  1.2526
 9363TIP3    H249581   2.190   0.081  16.467  1.4262 -0.2912  3.0280
 9364TIP3   OH249582   6.004   3.722  14.724  0.4475 -0.3686 -0.4714
 9364TIP3    H149583   6.086   3.682  14.695  1.2579  0.3678  0.7218
 9364TIP3    H249584   6.022   3.816  14.725 -0.6806 -0.1322 -0.9748
 9365TIP3   OH249585   2.687   0.128   3.179  0.3435 -0.1032 -0.3071
 9365TIP3    H149586   2.710   0.041   3.212  1.8902  0.1045 -0.7425
 9365TIP3    H249587   2.644   0.112   3.095 -1.9520 -0.5401  0.8622
 9366TIP3   OH249588   1.449   3.201  16.052  0.4455 -0.7157 -0.1573
 9366TIP3    H149589   1.520   3.244  16.099  1.3887 -0.5366 -1.6532
 9366TIP3    H249590   1.494   3.136  15.997 -0.4112  0.1388 -1.9503
 9367TIP3   OH249591   2.379   6.809  12.100 -0.4817 -0.0501 -0.6800
 9367TIP3    H149592   2.445   6.744  12.075  0.0172 -0.3595  1.2290
 9367TIP3    H249593   2.427   6.891  12.105  0.1341 -0.4680  1.8379
 9368TIP3   OH249594   3.527   5.477   4.492 -0.0902 -0.6338  0.4561
 9368TIP3    H149595   3.523   5.569   4.464 -1.2942 -0.7511  0.1852
 9368TIP3    H249596   3.529   5.427   4.410  3.7353 -0.8231  0.5181
 9369TIP3   OH249597   4.817   2.097  11.426 -0.6398  0.0800 -0.3600
 9369TIP3    H149598   4.756   2.129  11.359  0.3549  0.9248 -0.8804
 9369TIP3    H249599   4.880   2.045  11.377 -1.1059 -1.0616  0.2234
 9370TIP3   OH249600   5.335   0.390   2.773 -0.1950 -0.2193 -0.1491
 9370TIP3    H149601   5.386   0.386   2.854 -0.8169 -0.6443  0.2223
 9370TIP3    H249602   5.377   0.325   2.716  0.8667  0.7823 -0.5421
 9371TIP3   OH249603   4.748   4.235  15.703  0.3204 -0.4639 -0.5588
 9371TIP3    H149604   4.674   4.272  15.750  1.1670 -0.0732  0.5204
 9371TIP3    H249605   4.734   4.260  15.611  0.1479  1.3680 -0.0743
 9372TIP3   OH249606   2.400   0.357  14.573 -0.0890 -0.5661  0.1612
 9372TIP3    H149607   2.487   0.396  14.568 -0.7484  0.9105 -0.5783
 9372TIP3    H249608   2.411   0.279  14.626  1.2841  0.7182  1.8825
 9373TIP3   OH249609   0.784   4.527   2.339  0.1276  0.0709 -0.3471
 9373TIP3    H149610   0.863   4.552   2.291 -0.3033  0.7900 -0.6911
 9373TIP3    H249611   0.763   4.603   2.393 -0.0603 -0.3014  0.1141
 9374TIP3   OH249612   1.821   6.036   4.492 -0.4180  0.1035 -0.0955
 9374TIP3    H149613   1.830   5.998   4.404 -1.6061 -0.2502 -0.0890
 9374TIP3    H249614   1.749   6.099   4.483  0.6952  1.4613  0.1946
 9375TIP3   OH249615   4.839   4.411  11.117 -0.6781 -0.3414  0.4154
 9375TIP3    H149616   4.795   4.338  11.074 -4.6565  2.4490 -0.7945
 9375TIP3    H249617   4.854   4.474  11.047  0.2050  1.0756  1.8340
 9376TIP3   OH249618   0.866   1.814  15.805  0.2189  0.7074  0.0430
 9376TIP3    H149619   0.901   1.819  15.894  0.5794 -1.2781  0.0684
 9376TIP3    H249620   0.783   1.861  15.808  1.2290  2.5217  0.8607
 9377TIP3   OH249621   0.157   6.162   2.379  0.0239 -0.0213  0.4396
 9377TIP3    H149622   0.149   6.103   2.454  0.1207 -0.3517  0.1971
 9377TIP3    H249623   0.178   6.247   2.417  0.0817 -0.1878  0.7869
 9378TIP3   OH249624   2.075   1.115  14.543 -0.4178  0.0050 -0.5443
 9378TIP3    H149625   2.168   1.094  14.549  0.2791  2.9227  1.3352
 9378TIP3    H249626   2.066   1.158  14.458 -0.0008 -0.1633 -0.6767
 9379TIP3   OH249627   2.833   1.541   2.635 -0.0836  0.1138  0.4162
 9379TIP3    H149628   2.899   1.571   2.573 -0.4164  0.3441  0.1722
 9379TIP3    H249629   2.812   1.452   2.606 -0.6887  0.4435 -0.1809
 9380TIP3   OH249630   0.196   3.699   0.225  0.4988  0.2198  0.0781
 9380TIP3    H149631   0.165   3.776   0.177 -0.4117  0.6040  1.2271
 9380TIP3    H249632   0.215   3.635   0.157  0.1250  1.0448 -0.8432
 9381TIP3   OH249633   3.163   6.699  12.615  0.4133 -0.3012  0.3458
 9381TIP3    H149634   3.196   6.617  12.580  2.3847 -0.0457  1.4266
 9381TIP3    H249635   3.181   6.763  12.546 -1.6220 -0.8000 -0.7222
 9382TIP3   OH249636   5.680   3.205  13.671 -0.2022 -0.3608  0.6409
 9382TIP3    H149637   5.588   3.197  13.697  0.0812 -0.6335  1.6108
 9382TIP3    H249638   5.707   3.117  13.647 -0.2813 -0.2200  0.0081
 9383TIP3   OH249639   4.597   1.162   0.395 -0.4663  0.0950  0.1208
 9383TIP3    H149640   4.579   1.176   0.488 -0.7775  1.0095 -0.0645
 9383TIP3    H249641   4.582   1.248   0.355  1.3212  0.1618 -0.5198
 9384TIP3   OH249642   5.752   0.711   3.125 -0.2369 -0.3808  0.3308
 9384TIP3    H149643   5.736   0.638   3.185  0.3719  0.0137  0.9773
 9384TIP3    H249644   5.813   0.675   3.060 -1.4126 -1.0103 -0.4692
 9385TIP3   OH249645   0.029   1.343  11.613  0.0020 -0.4707 -0.2776
 9385TIP3    H149646   0.102   1.388  11.571  0.5937 -0.9338  0.2427
 9385TIP3    H249647   0.068   1.297  11.687 -0.6106 -1.7407 -0.7122
 9386TIP3   OH249648   4.691   2.404   1.006  0.6229 -0.1511 -0.1456
 9386TIP3    H149649   4.739   2.369   1.081 -2.9692 -2.1763  1.4263
 9386TIP3    H249650   4.673   2.328   0.951 -0.4234  0.6167 -0.9073
 9387TIP3   OH249651   6.209   3.139   1.018  0.2055 -0.5338  0.4244
 9387TIP3    H149652   6.128   3.131   0.968  0.8468 -2.0594 -0.4320
 9387TIP3    H249653   6.279   3.139   0.952  0.9076  2.1296  1.0403
 9388TIP3   OH249654   5.287   1.110   5.397  0.1585 -0.6711 -0.2332
 9388TIP3    H149655   5.265   1.203   5.403 -3.1511 -1.4083  2.0808
 9388TIP3    H249656   5.321   1.088   5.484 -2.7862 -2.2443  0.6689
 9389TIP3   OH249657   5.125   4.340   4.453  0.1796  0.0650  0.1294
 9389TIP3    H149658   5.170   4.343   4.538  0.6161  1.0763 -0.1202
 9389TIP3    H249659   5.196   4.330   4.390 -0.1210 -0.3402 -0.1509
 9390TIP3   OH249660   1.164   4.432  10.884  0.5010  0.1239  0.1933
 9390TIP3    H149661   1.167   4.340  10.908 -0.9537 -0.2440 -0.9108
 9390TIP3    H249662   1.244   4.447  10.833 -0.2755 -1.1130 -1.4789
 9391TIP3   OH249663   0.562   2.348  14.350 -0.1449 -0.1733 -0.7461
 9391TIP3    H149664   0.473   2.319  14.368  0.8605 -3.1857 -0.0721
 9391TIP3    H249665   0.604   2.353  14.435  0.3341  1.4032 -1.0378
 9392TIP3   OH249666   2.613   3.324  14.500  0.0694 -0.1865  0.8547
 9392TIP3    H149667   2.525   3.311  14.464  0.9163  0.0359 -1.4450
 9392TIP3    H249668   2.659   3.242  14.484  1.2021  0.7342 -0.8752
 9393TIP3   OH249669   4.206   4.807  16.590  0.1149 -0.1556 -0.1782
 9393TIP3    H149670   4.169   4.742  16.530 -2.2804  1.0044 -0.0366
 9393TIP3    H249671   4.184   4.891  16.552 -1.7779  0.6342  2.3909
 9394TIP3   OH249672   6.345   0.036   5.418  0.3242  0.3259  0.2881
 9394TIP3    H149673   6.304   0.123   5.412 -0.0068  0.1496 -0.0475
 9394TIP3    H249674   6.273  -0.025   5.406  0.6604  0.0086 -0.1419
 9395TIP3   OH249675   1.484   5.528  13.913 -0.0545 -0.1275 -0.5205
 9395TIP3    H149676   1.396   5.551  13.943  0.1819 -0.6175  0.6022
 9395TIP3    H249677   1.488   5.432  13.918  0.6788 -0.0876 -0.1607
 9396TIP3   OH249678   2.710   0.468   1.054  0.2948 -0.0933  0.4493
 9396TIP3    H149679   2.774   0.514   0.999  0.5136  0.4914  1.1709
 9396TIP3    H249680   2.628   0.472   1.004  0.5477  0.2087  0.0516
 9397TIP3   OH249681   1.875   1.868  12.720 -0.2287  0.0587 -0.1261
 9397TIP3    H149682   1.860   1.957  12.752  0.0744 -0.1083  0.4860
 9397TIP3    H249683   1.849   1.812  12.792 -0.8387 -0.3754 -0.6678
 9398TIP3   OH249684   4.151   0.093  10.676  0.6740  0.0373  0.2362
 9398TIP3    H149685   4.228   0.145  10.701  0.4238 -0.5990  2.5092
 9398TIP3    H249686   4.168   0.068  10.585  3.4228 -0.5042  0.7978
 9399TIP3   OH249687   4.268   1.099  14.664 -0.2393 -0.4487 -0.5952
 9399TIP3    H149688   4.293   1.181  14.622 -1.3542  2.6590  3.9917
 9399TIP3    H249689   4.193   1.069  14.613 -1.4581  2.9122 -1.0879
 9400TIP3   OH249690   6.474   3.711   0.721  0.7929  0.2442 -0.2339
 9400TIP3    H149691   6.488   3.617   0.709  2.2052  0.3455  0.4920
 9400TIP3    H249692   6.445   3.720   0.811 -0.7984  0.3973 -0.7193
 9401TIP3   OH249693   0.303   5.938  11.516  0.3225 -0.3605 -0.2617
 9401TIP3    H149694   0.308   6.027  11.549  0.0010  0.4415 -2.2090
 9401TIP3    H249695   0.394   5.908  11.512  0.4076 -0.2298  0.6692
 9402TIP3   OH249696   0.391   0.568   4.044  0.4555 -0.2495  0.0500
 9402TIP3    H149697   0.380   0.642   3.984  0.5237  0.3128  0.7182
 9402TIP3    H249698   0.479   0.535   4.024  1.0256  0.7862  0.7521
 9403TIP3   OH249699   0.368   2.771  13.718  0.3723  0.2659 -0.1527
 9403TIP3    H149700   0.432   2.831  13.680  0.4874 -0.0316 -0.4283
 9403TIP3    H249701   0.372   2.789  13.812  0.2547  0.8347 -0.2482
 9404TIP3   OH249702   4.524   0.741  13.206 -0.2582 -0.2171  0.6316
 9404TIP3    H149703   4.534   0.698  13.121 -0.8792  1.8227 -0.5129
 9404TIP3    H249704   4.430   0.756  13.214  0.1012  3.0099 -0.1325
 9405TIP3   OH249705   0.325   2.296  11.525 -0.0138 -0.0226 -0.3788
 9405TIP3    H149706   0.349   2.205  11.544 -4.2813 -1.3756 -0.2824
 9405TIP3    H249707   0.273   2.323  11.601 -1.7005  1.2244 -1.9080
 9406TIP3   OH249708   5.849   2.701   5.405  0.5727 -0.0238 -0.2902
 9406TIP3    H149709   5.807   2.768   5.459  0.6858 -0.3457  0.2043
 9406TIP3    H249710   5.914   2.749   5.354 -0.9405  0.6218 -1.6904
 9407TIP3   OH249711   0.126   6.405   1.128  0.1422 -0.0965 -0.0492
 9407TIP3    H149712   0.161   6.435   1.044 -1.5065 -0.6963 -0.9986
 9407TIP3    H249713   0.146   6.312   1.131 -0.4434 -0.2354 -0.1522
 9408TIP3   OH249714   1.710   1.591  11.220  0.1257 -0.0755  0.6385
 9408TIP3    H149715   1.699   1.597  11.315 -0.1512 -1.7725  0.7585
 9408TIP3    H249716   1.777   1.522  11.209 -0.3876 -0.4278 -0.4010
 9409TIP3   OH249717   4.816   0.834  16.674 -0.1182  0.0916  0.0231
 9409TIP3    H149718   4.802   0.772  16.602  1.6670  0.7207 -0.9209
 9409TIP3    H249719   4.731   0.878  16.684 -0.7041 -0.7642 -0.9620
 9410TIP3   OH249720   0.817   6.573   4.441 -0.5138 -0.0959  0.1354
 9410TIP3    H149721   0.814   6.561   4.535 -0.0333  0.9961  0.3007
 9410TIP3    H249722   0.906   6.548   4.416 -0.5617 -0.1369  0.0030
 9411TIP3   OH249723   3.987   5.056  10.868 -0.2766  0.3486 -0.4242
 9411TIP3    H149724   4.022   5.044  10.779  0.5631 -0.7972  0.0374
 9411TIP3    H249725   3.898   5.023  10.863  0.5079 -1.9273 -0.3172
 9412TIP3   OH249726   3.318   0.488  16.217  0.3787 -0.1973  0.4220
 9412TIP3    H149727   3.313   0.436  16.137  0.5262 -0.0750  0.3346
 9412TIP3    H249728   3.397   0.541  16.207 -0.6480  1.2866 -0.2543
 9413TIP3   OH249729   4.923   2.667   2.480  0.6644 -0.1165 -0.2266
 9413TIP3    H149730   4.849   2.613   2.451 -0.8030  1.0605  1.1560
 9413TIP3    H249731   4.949   2.716   2.402  1.9804 -2.6442 -1.5041
 9414TIP3   OH249732   2.100   3.650  14.623  0.0730  0.0367 -0.0587
 9414TIP3    H149733   2.122   3.733  14.581  0.6718 -0.5576 -0.9709
 9414TIP3    H249734   2.175   3.594  14.605 -0.1881 -0.6131  0.8151
 9415TIP3   OH249735   4.672   6.802   0.509 -0.1416  0.0898 -0.3350
 9415TIP3    H149736   4.589   6.848   0.497  0.7413  1.2694 -2.4597
 9415TIP3    H249737   4.654   6.713   0.481 -0.6096  0.4256 -1.1321
 9416TIP3   OH249738   3.453   6.648   5.999 -0.4910 -0.4223 -0.0136
 9416TIP3    H149739   3.434   6.555   5.985 -0.4544 -0.5243  0.5718
 9416TIP3    H249740   3.543   6.649   6.034 -0.1095 -0.0864 -0.9829
 9417TIP3   OH249741   0.972   6.523   5.167 -0.3710  0.2698  0.2120
 9417TIP3    H149742   0.908   6.462   5.203  0.3816 -0.9503 -0.4611
 9417TIP3    H249743   1.052   6.506   5.217  0.0183  0.2540 -0.4089
 9418TIP3   OH249744   5.256   0.784  12.408  0.3491 -0.3782 -0.2265
 9418TIP3    H149745   5.207   0.703  12.394  0.9806 -0.7336 -0.4693
 9418TIP3    H249746   5.197   0.854  12.381 -0.9814 -0.6012  1.9667
 9419TIP3   OH249747   4.576   3.949  13.922 -0.4849 -0.1344  0.1390
 9419TIP3    H149748   4.576   3.873  13.980  0.4887 -0.7144 -0.6114
 9419TIP3    H249749   4.578   3.913  13.834  0.7887  0.7543 -0.2211
 9420TIP3   OH249750   1.645   0.983   2.668 -0.4861  0.4422 -0.4668
 9420TIP3    H149751   1.669   0.969   2.576  0.8510 -0.0721 -0.0607
 9420TIP3    H249752   1.681   1.069   2.689 -2.3160  1.3647 -0.8831
 9421TIP3   OH249753   1.758   5.461   2.468  0.2910 -0.4757  0.9963
 9421TIP3    H149754   1.849   5.474   2.439  0.1832  0.2219  0.9616
 9421TIP3    H249755   1.708   5.526   2.419 -0.1739 -0.6078  1.2958
 9422TIP3   OH249756   6.703   4.069  14.360  0.0185 -0.1052 -0.3903
 9422TIP3    H149757   6.767   4.042  14.427  0.1310  0.0569 -0.4319
 9422TIP3    H249758   6.747   4.139  14.312 -0.0733 -0.2019 -0.6183
 9423TIP3   OH249759   4.226   5.176   4.016  0.5657  0.3999  0.4336
 9423TIP3    H149760   4.228   5.088   3.978  0.2456  0.4970  0.1898
 9423TIP3    H249761   4.137   5.206   4.001  1.1108  1.4152 -0.9365
 9424TIP3   OH249762   3.743   1.514  12.977 -0.1323  0.4844  0.2981
 9424TIP3    H149763   3.816   1.575  12.966 -0.3715  1.0592  1.6760
 9424TIP3    H249764   3.664   1.569  12.970 -0.3910  0.1124  0.2568
 9425TIP3   OH249765   6.148   3.104   3.820 -0.0287  0.0481  0.2098
 9425TIP3    H149766   6.136   3.013   3.792 -0.1238  0.3105 -0.6128
 9425TIP3    H249767   6.098   3.110   3.901  1.1136 -1.0087  1.0377
 9426TIP3   OH249768   3.571   6.180   1.371  0.4549 -0.0003  0.0640
 9426TIP3    H149769   3.550   6.216   1.457  0.5704  0.4167 -0.0778
 9426TIP3    H249770   3.544   6.248   1.309  1.7115  0.3496 -0.1465
 9427TIP3   OH249771   3.418   1.177  12.161  0.4206 -0.0339  0.1033
 9427TIP3    H149772   3.327   1.192  12.186 -0.0093 -0.8485 -0.8919
 9427TIP3    H249773   3.448   1.261  12.127 -0.4308 -0.1338 -0.9325
 9428TIP3   OH249774   2.385   5.868  12.140  0.0706 -0.4357 -0.1675
 9428TIP3    H149775   2.441   5.942  12.164  0.0420 -0.8910  1.4655
 9428TIP3    H249776   2.445   5.792  12.139  0.0046 -0.4868 -1.3107
 9429TIP3   OH249777   1.796   0.060   5.652  0.1829  0.6604 -0.2485
 9429TIP3    H149778   1.736   0.007   5.599 -0.0488  0.4833  0.1818
 9429TIP3    H249779   1.778   0.033   5.742  0.8411  0.6850 -0.1073
 9430TIP3   OH249780   0.609   6.176  13.093 -0.4872  0.3836 -0.3899
 9430TIP3    H149781   0.595   6.262  13.134  0.8915  0.0461  0.8697
 9430TIP3    H249782   0.700   6.155  13.112 -1.2624 -2.1670  0.8934
 9431TIP3   OH249783   4.831   6.175  16.745 -0.1275  0.0854 -0.1708
 9431TIP3    H149784   4.766   6.105  16.734  1.8398 -2.2075  1.7005
 9431TIP3    H249785   4.914   6.129  16.757  1.5992  2.8430 -0.6897
 9432TIP3   OH249786   3.015   1.720  12.972 -0.0302 -0.5820 -0.0738
 9432TIP3    H149787   3.085   1.746  13.032  0.1955  1.4355 -1.1106
 9432TIP3    H249788   2.987   1.802  12.931 -0.1754 -1.8602 -2.7355
 9433TIP3   OH249789   5.357   5.398  11.996 -0.2070 -0.0627 -0.7653
 9433TIP3    H149790   5.263   5.392  11.978 -0.1269 -2.4552 -0.7630
 9433TIP3    H249791   5.399   5.369  11.915  0.4576 -0.4482 -0.2948
 9434TIP3   OH249792   5.776   0.434   5.468 -0.9152  0.1461  0.2906
 9434TIP3    H149793   5.727   0.354   5.451 -1.1113 -0.2216  2.3769
 9434TIP3    H249794   5.719   0.504   5.437 -0.5164 -0.4927 -2.0589
 9435TIP3   OH249795   1.548   6.592  13.666  0.0356 -0.3515  0.4637
 9435TIP3    H149796   1.519   6.643  13.590  0.5006  0.4781  0.8241
 9435TIP3    H249797   1.515   6.503  13.650 -1.0758  0.1333 -0.0150
 9436TIP3   OH249798   2.719   2.502   4.439 -0.1229  0.1681  0.1628
 9436TIP3    H149799   2.769   2.536   4.512  1.9126 -0.7928 -0.7213
 9436TIP3    H249800   2.650   2.449   4.480 -0.2023  1.1617  1.3839
 9437TIP3   OH249801   3.898   1.102  11.063  0.8965  0.2497 -0.0775
 9437TIP3    H149802   3.812   1.060  11.068 -1.0273  3.8281  0.4664
 9437TIP3    H249803   3.944   1.073  11.141 -1.3314  1.0140  1.6225
 9438TIP3   OH249804   5.190   5.330  11.502 -0.2288  0.1538 -0.3759
 9438TIP3    H149805   5.131   5.265  11.539  0.9720  0.0079  1.3999
 9438TIP3    H249806   5.200   5.396  11.572  1.1084  0.5450 -0.9005
 9439TIP3   OH249807   1.540   1.878  12.860 -0.0586 -0.5167  0.6880
 9439TIP3    H149808   1.619   1.923  12.890 -0.5468 -0.2627  1.6274
 9439TIP3    H249809   1.529   1.805  12.920 -0.7951 -0.2763  0.8596
 9440TIP3   OH249810   5.338   3.994  11.686  0.0990  0.2503  0.0353
 9440TIP3    H149811   5.262   3.967  11.737 -0.1217 -2.0415 -1.3758
 9440TIP3    H249812   5.355   3.921  11.626  2.4632  1.3476 -0.7816
 9441TIP3   OH249813   5.316   5.885  16.455  0.0906  0.4007 -0.1952
 9441TIP3    H149814   5.381   5.954  16.467 -0.1745  0.6036  0.0728
 9441TIP3    H249815   5.361   5.805  16.482  0.4875  0.4224 -0.7618
 9442TIP3   OH249816   2.144   3.379  14.844 -0.1179 -0.7071  0.5686
 9442TIP3    H149817   2.220   3.379  14.786  0.6018  3.2456  1.2347
 9442TIP3    H249818   2.174   3.334  14.923  2.1746  1.9873  1.3792
 9443TIP3   OH249819   2.042   5.717  17.089 -0.4152 -0.2048  0.4660
 9443TIP3    H149820   1.996   5.774  17.028  1.5925 -0.2354 -1.1615
 9443TIP3    H249821   2.122   5.693  17.044 -0.0266 -2.3103  2.1230
 9444TIP3   OH249822   1.084   0.575   4.236 -0.1518 -0.0685 -0.3743
 9444TIP3    H149823   1.169   0.530   4.231  0.0184 -0.0084  1.2392
 9444TIP3    H249824   1.106   0.668   4.240 -0.3875  0.0424 -1.4313
 9445TIP3   OH249825   5.341   2.069   5.141 -0.0274 -0.0682  0.6212
 9445TIP3    H149826   5.272   2.129   5.170 -2.0248 -2.0724  0.2253
 9445TIP3    H249827   5.349   2.084   5.047 -2.4450 -2.1456 -0.0143
 9446TIP3   OH249828   5.350   5.280  16.375 -0.1180  0.7971 -0.4788
 9446TIP3    H149829   5.267   5.282  16.328 -0.9501  0.2099  0.8825
 9446TIP3    H249830   5.338   5.212  16.442  1.0609  1.4741  0.4670
 9447TIP3   OH249831   5.211   4.639   4.773  0.2227 -0.0117 -0.4883
 9447TIP3    H149832   5.160   4.711   4.735  1.0767  0.2455 -1.1854
 9447TIP3    H249833   5.283   4.626   4.711  2.0200  0.8218  1.3322
 9448TIP3   OH249834   4.829   2.434  16.905  0.0232 -0.5303 -0.0359
 9448TIP3    H149835   4.809   2.523  16.934 -0.8781 -0.5023 -0.7305
 9448TIP3    H249836   4.745   2.396  16.880  0.4873 -1.3413 -0.4370
 9449TIP3   OH249837   6.496   1.188  15.229 -0.0705  0.1211  0.2070
 9449TIP3    H149838   6.463   1.278  15.226 -0.8835 -0.1877 -1.1623
 9449TIP3    H249839   6.446   1.146  15.298 -0.9446  0.2678 -0.3274
 9450TIP3   OH249840   1.784   2.513  16.635  0.1717  0.2904  0.0831
 9450TIP3    H149841   1.791   2.516  16.730 -0.6882  1.1389  0.1288
 9450TIP3    H249842   1.774   2.604  16.608  1.8483  0.1996 -0.9601
 9451TIP3   OH249843   4.894   4.459   0.257  0.4413  0.5093  0.4150
 9451TIP3    H149844   4.802   4.481   0.268  0.7708  1.9717  0.4986
 9451TIP3    H249845   4.921   4.506   0.178  1.1741  0.3150  0.5408
 9452TIP3   OH249846   2.571   2.447  10.261 -0.5110 -0.1786  0.0378
 9452TIP3    H149847   2.538   2.367  10.221  0.7551 -1.2534  1.0470
 9452TIP3    H249848   2.520   2.456  10.342  2.2677 -2.5385  2.2546
 9453TIP3   OH249849   2.517   2.664  12.600 -0.3518 -0.2718 -0.0582
 9453TIP3    H149850   2.496   2.714  12.679  0.9613 -0.7955  0.6500
 9453TIP3    H249851   2.524   2.730  12.531  2.6236  0.7914  1.1102
 9454TIP3   OH249852   2.844   2.250   4.684  0.3104 -0.1970 -0.5772
 9454TIP3    H149853   2.845   2.178   4.747  1.8493 -0.7896 -1.2279
 9454TIP3    H249854   2.751   2.270   4.672 -0.0572 -0.8672  0.9555
 9455TIP3   OH249855   3.465   4.858   5.360  0.3252  0.2541 -0.4814
 9455TIP3    H149856   3.420   4.854   5.445 -2.9705 -0.0984 -2.0875
 9455TIP3    H249857   3.481   4.951   5.346  1.6405  0.2610  0.8260
 9456TIP3   OH249858   1.255   4.020   4.164 -0.8763  0.1685  0.0533
 9456TIP3    H149859   1.328   4.045   4.107  0.4625 -0.8301  1.2774
 9456TIP3    H249860   1.204   3.957   4.112 -0.9141  0.8840 -0.8118
 9457TIP3   OH249861   6.619   2.202  16.927  0.5918  0.2394  0.0680
 9457TIP3    H149862   6.681   2.270  16.901  3.0915 -2.3200 -1.2377
 9457TIP3    H249863   6.567   2.185  16.849 -1.2440  1.7318  0.8926
 9458TIP3   OH249864   2.753   3.392   5.520  0.0657 -0.0414 -0.1399
 9458TIP3    H149865   2.822   3.423   5.461 -1.8315  1.5189 -1.6662
 9458TIP3    H249866   2.746   3.459   5.587 -0.0465 -0.1376 -0.0548
 9459TIP3   OH249867   4.508   2.571   4.631 -0.0079  0.8627 -0.0927
 9459TIP3    H149868   4.471   2.486   4.652  0.8234  0.3665 -0.5651
 9459TIP3    H249869   4.599   2.566   4.661  0.4461  1.0750 -1.3435
 9460TIP3   OH249870   1.972   6.812   4.686 -0.3143 -1.0370  0.5241
 9460TIP3    H149871   1.974   6.729   4.735 -0.3753 -0.1043  2.1660
 9460TIP3    H249872   1.879   6.832   4.679 -0.3049 -1.1742 -0.0066
 9461TIP3   OH249873   1.550   3.170   4.417  0.1850  0.1278  0.5934
 9461TIP3    H149874   1.554   3.264   4.396  4.0524  0.2727  1.2665
 9461TIP3    H249875   1.531   3.128   4.334  2.0492  1.3670 -0.5274
 9462TIP3   OH249876   6.519   0.225  13.440  0.1415 -0.5408 -0.1533
 9462TIP3    H149877   6.537   0.160  13.372  1.1221 -1.0702  0.5744
 9462TIP3    H249878   6.571   0.301  13.414  0.7742 -0.8563  0.1500
 9463TIP3   OH249879   4.406   2.246   1.298  0.6504 -0.0510  0.4609
 9463TIP3    H149880   4.327   2.255   1.244  2.3710  2.1953 -1.9038
 9463TIP3    H249881   4.434   2.155   1.284 -1.6967 -1.1047  1.8262
 9464TIP3   OH249882   5.820   6.598   2.518  0.2144  0.5197  0.2355
 9464TIP3    H149883   5.821   6.511   2.557  1.2760  0.1858 -0.4964
 9464TIP3    H249884   5.768   6.588   2.438  0.3804  0.5402  0.1246
 9465TIP3   OH249885   5.340   4.141  11.450  0.1278 -0.4427  0.0497
 9465TIP3    H149886   5.334   4.092  11.533  0.6381 -1.1460 -0.3185
 9465TIP3    H249887   5.422   4.110  11.410 -1.1731 -1.7723 -1.7473
 9466TIP3   OH249888   3.644   5.136  11.157 -0.2257  0.4973  0.2149
 9466TIP3    H149889   3.711   5.067  11.164 -0.7566  0.0480  0.9171
 9466TIP3    H249890   3.694   5.218  11.163  0.3534  0.1834 -0.1338
 9467TIP3   OH249891   2.673   3.828  11.823 -0.3498  0.2739 -0.3098
 9467TIP3    H149892   2.713   3.744  11.847  0.2312  0.7320  0.3847
 9467TIP3    H249893   2.700   3.888  11.893  1.2121  1.6267 -1.9914
 9468TIP3   OH249894   4.257   2.859  17.218  0.1640 -0.0603 -0.1490
 9468TIP3    H149895   4.325   2.925  17.206 -0.6603  0.9539  0.6073
 9468TIP3    H249896   4.218   2.849  17.131  2.2253 -1.7782 -0.9641
 9469TIP3   OH249897   4.750   4.006   0.097  0.0773 -0.2183  0.1288
 9469TIP3    H149898   4.816   4.038   0.159  0.7580 -2.9835  0.9551
 9469TIP3    H249899   4.668   4.009   0.146  0.2882 -0.5792  0.5118
 9470TIP3   OH249900   4.451   0.809   5.893  0.5358  0.3227  0.1255
 9470TIP3    H149901   4.520   0.752   5.859  0.7295  1.0035 -0.6709
 9470TIP3    H249902   4.414   0.761   5.966 -0.7351 -1.8034 -1.7935
 9471TIP3   OH249903   1.963   0.906   1.683  0.1849 -0.6479 -0.2805
 9471TIP3    H149904   1.921   0.987   1.652 -0.7222 -2.0022 -2.8221
 9471TIP3    H249905   1.893   0.858   1.726  0.6277 -0.3012  0.8581
 9472TIP3   OH249906   6.736   6.266  11.464 -0.2502  0.1115  0.2014
 9472TIP3    H149907   6.695   6.331  11.407 -2.5143 -1.3293  0.0670
 9472TIP3    H249908   6.737   6.307  11.550 -2.6046  0.0136  0.3322
 9473TIP3   OH249909   4.794   1.916   4.951  0.6193 -0.0265 -0.0258
 9473TIP3    H149910   4.759   1.925   4.863 -1.2203  1.1120  0.7470
 9473TIP3    H249911   4.766   1.996   4.996  0.1467 -1.2423  1.9909
 9474TIP3   OH249912   4.475   4.275  16.672 -0.0999  0.4705 -0.1142
 9474TIP3    H149913   4.475   4.241  16.762  0.2709 -0.5159 -0.4731
 9474TIP3    H249914   4.421   4.354  16.676 -0.9730 -0.1520  0.7494
 9475TIP3   OH249915   1.731   5.044  13.554  0.0589 -0.4813 -0.2170
 9475TIP3    H149916   1.760   4.967  13.505 -0.6687 -1.5479  0.9854
 9475TIP3    H249917   1.773   5.035  13.639  1.3403  1.3729 -0.5752
 9476TIP3   OH249918   6.636   4.791  12.165  0.0227 -0.4857  0.5893
 9476TIP3    H149919   6.554   4.805  12.213  0.1942 -0.3271  0.8381
 9476TIP3    H249920   6.623   4.709  12.118 -0.4067 -0.2876  0.3574
 9477TIP3   OH249921   6.714   1.682   4.211 -0.0713  0.4161  0.2198
 9477TIP3    H149922   6.651   1.668   4.140 -0.7068  0.9870  0.6667
 9477TIP3    H249923   6.666   1.731   4.277  0.9781  1.2821  0.3652
 9478TIP3   OH249924   5.933   4.363   2.533  0.5736  0.0983 -0.0823
 9478TIP3    H149925   5.898   4.449   2.554 -0.1649 -0.2245  0.0265
 9478TIP3    H249926   6.014   4.382   2.486  0.3022  0.8546 -0.2679
 9479TIP3   OH249927   0.397   2.028  13.934  0.1210  0.4783  0.0947
 9479TIP3    H149928   0.353   2.094  13.881 -0.1761  0.2307  0.0250
 9479TIP3    H249929   0.457   2.077  13.991 -1.5285  1.0052  1.4672
 9480TIP3   OH249930   4.972   3.587  12.162  0.6442  0.5143  0.5807
 9480TIP3    H149931   4.952   3.676  12.193 -0.4900  0.5760 -0.2644
 9480TIP3    H249932   5.067   3.588  12.147  0.8893  1.1129  1.9871
 9481TIP3   OH249933   0.539   3.242  11.157  0.3624  0.0774 -0.3379
 9481TIP3    H149934   0.613   3.226  11.099  1.8634 -1.1824  1.7976
 9481TIP3    H249935   0.465   3.202  11.112  1.8826 -2.7771 -0.5305
 9482TIP3   OH249936   6.000   1.111   1.230 -0.1544  0.6088  0.4131
 9482TIP3    H149937   5.934   1.168   1.191  0.6898  1.4782  0.2300
 9482TIP3    H249938   6.003   1.137   1.322 -0.2238  0.4154  0.4704
 9483TIP3   OH249939   0.868   0.294  16.719 -0.4697 -0.2589  0.4476
 9483TIP3    H149940   0.873   0.260  16.630  0.7710  0.4840  0.2027
 9483TIP3    H249941   0.861   0.217  16.775  0.0148 -0.7884 -0.2170
 9484TIP3   OH249942   4.597   1.165   0.119 -0.0635 -0.2137 -0.8008
 9484TIP3    H149943   4.652   1.241   0.142 -0.5781  0.0017 -0.2583
 9484TIP3    H249944   4.612   1.103   0.190 -1.2815  0.2514 -0.1223
 9485TIP3   OH249945   0.500   0.105   0.517 -0.2161 -0.5441 -0.2103
 9485TIP3    H149946   0.494   0.185   0.569 -0.5160 -0.1520 -0.8224
 9485TIP3    H249947   0.433   0.048   0.553  0.1214 -0.5935  0.3500
 9486TIP3   OH249948   0.549   4.709   0.348 -0.2457 -0.0433 -0.5969
 9486TIP3    H149949   0.638   4.723   0.318 -0.0190 -3.2513 -1.7755
 9486TIP3    H249950   0.551   4.731   0.441  1.1286  2.1721 -1.0967
 9487TIP3   OH249951   2.222   1.958  16.463  0.6150  0.3941 -0.1300
 9487TIP3    H149952   2.268   2.018  16.521  1.2305  0.4565 -0.6691
 9487TIP3    H249953   2.183   2.014  16.396  0.9195  0.2217 -0.4537
 9488TIP3   OH249954   4.371   3.774   2.941  0.6617  0.1357 -0.1423
 9488TIP3    H149955   4.321   3.830   3.001  0.6911 -0.0988  0.1051
 9488TIP3    H249956   4.318   3.695   2.932  1.7362 -0.8372  1.4474
 9489TIP3   OH249957   2.143   4.540   3.036 -0.2863  0.0698 -0.1000
 9489TIP3    H149958   2.130   4.635   3.029  0.9265  0.4305  1.9820
 9489TIP3    H249959   2.103   4.517   3.120  1.8963 -0.7444  0.7778
 9490TIP3   OH249960   6.011   3.186   6.097 -0.1793 -0.4641 -0.2035
 9490TIP3    H149961   6.086   3.222   6.145  0.0884 -1.6906  0.3439
 9490TIP3    H249962   5.947   3.256   6.096  0.4126  0.1061  0.6245
 9491TIP3   OH249963   3.434   6.763   3.199  0.3439  0.2786 -0.2097
 9491TIP3    H149964   3.489   6.727   3.268  0.5939 -0.4633 -0.7855
 9491TIP3    H249965   3.432   6.858   3.216 -0.3435  0.0152  1.3342
 9492TIP3   OH249966   3.267   3.309   2.332 -0.0286 -0.0786 -0.1468
 9492TIP3    H149967   3.194   3.249   2.316  1.4658 -1.6319 -1.5627
 9492TIP3    H249968   3.238   3.393   2.295 -1.4530 -0.3683  0.2512
 9493TIP3   OH249969   4.017   1.800  12.644 -0.3342 -0.5021  0.3631
 9493TIP3    H149970   4.014   1.825  12.552 -1.1217 -0.4296  0.3983
 9493TIP3    H249971   4.001   1.882  12.691 -0.3131 -0.6064  0.5532
 9494TIP3   OH249972   0.234   4.391   0.232 -0.0406  0.2759 -0.4402
 9494TIP3    H149973   0.155   4.344   0.206 -0.3712  1.7563 -2.3476
 9494TIP3    H249974   0.295   4.322   0.260 -0.8638 -1.2024 -2.0735
 9495TIP3   OH249975   3.431   1.446  11.443 -0.2123  0.1278 -0.2035
 9495TIP3    H149976   3.414   1.400  11.525  2.1227  0.5516  0.5972
 9495TIP3    H249977   3.347   1.447  11.398 -1.2050 -1.4802  1.4819
 9496TIP3   OH249978   3.356   3.569   1.306  0.1281 -0.3631 -0.1420
 9496TIP3    H149979   3.270   3.608   1.293  0.6196  1.8305  2.4315
 9496TIP3    H249980   3.338   3.484   1.347 -0.8467 -1.9663 -3.5370
 9497TIP3   OH249981   1.414   6.783   4.678 -0.1756 -0.3711  0.9099
 9497TIP3    H149982   1.439   6.721   4.747  2.3267  0.1547  0.5843
 9497TIP3    H249983   1.375   6.857   4.726 -1.2889 -1.2905  1.4654
 9498TIP3   OH249984   0.889   4.647   3.943 -0.5973  0.1461 -0.0957
 9498TIP3    H149985   0.855   4.558   3.931 -2.5688  0.9156 -0.5957
 9498TIP3    H249986   0.959   4.638   4.008 -1.4318 -1.6268  0.6105
 9499TIP3   OH249987   4.977   4.988  12.580  0.4197 -0.4827  0.2769
 9499TIP3    H149988   4.897   4.939  12.601  0.4712 -0.4441  0.5656
 9499TIP3    H249989   5.012   5.013  12.665  2.1403 -2.7358  0.3124
 9500TIP3   OH249990   3.578   0.808  16.395 -0.0037  0.4436  0.1937
 9500TIP3    H149991   3.643   0.803  16.465  1.4932 -0.6834 -1.2014
 9500TIP3    H249992   3.496   0.782  16.437  1.2267 -2.3021  1.1233
 9501TIP3   OH249993   1.510   2.583   0.948 -0.1599  0.3926 -0.8019
 9501TIP3    H149994   1.453   2.541   1.012  1.8218  1.1940  1.6264
 9501TIP3    H249995   1.453   2.644   0.901 -1.3800  0.9971  1.3503
 9502TIP3   OH249996   5.764   1.895  15.319 -0.1522  0.1225 -0.2295
 9502TIP3    H149997   5.827   1.891  15.248  0.4148 -0.0212  0.2752
 9502TIP3    H249998   5.760   1.987  15.343  1.7618 -0.1505  1.3883
 9503TIP3   OH249999   5.230   3.424   0.586 -0.5142 -0.5979  0.1481
 9503TIP3    H150000   5.303   3.479   0.556 -1.0159  0.5631  1.0067
 9503TIP3    H250001   5.206   3.373   0.508  0.2936  0.0243 -0.5327
 9504TIP3   OH250002   4.367   2.669  13.889  0.0828 -0.2524  0.1439
 9504TIP3    H150003   4.366   2.718  13.807  0.4690  1.3385  1.0495
 9504TIP3    H250004   4.454   2.687  13.926 -0.4134 -0.2045  1.3239
 9505TIP3   OH250005   2.390   6.618  14.807 -0.3286  0.6081  0.3853
 9505TIP3    H150006   2.338   6.646  14.732 -1.4904  1.9027  1.6317
 9505TIP3    H250007   2.369   6.680  14.877  0.7418 -0.5204  1.7906
 9506TIP3   OH250008   5.852   2.943   0.567  0.1952  0.1158 -0.3574
 9506TIP3    H150009   5.860   2.969   0.475 -0.0716 -0.0526 -0.4266
 9506TIP3    H250010   5.842   3.026   0.614  2.0311  0.3461 -0.2932
 9507TIP3   OH250011   6.061   0.010  11.461  0.3598 -0.3362  0.1548
 9507TIP3    H150012   5.996  -0.054  11.432  0.3606 -0.4476  0.3960
 9507TIP3    H250013   6.101   0.042  11.380  0.4997 -0.7845  0.0448
 9508TIP3   OH250014   6.500   3.350   5.710 -0.3095 -0.5531  0.0247
 9508TIP3    H150015   6.577   3.390   5.670 -1.3553  0.2429 -1.2833
 9508TIP3    H250016   6.534   3.305   5.787  1.4482 -0.1898 -0.4853
 9509TIP3   OH250017   2.057   4.529   3.288  0.4107 -0.6209 -0.3092
 9509TIP3    H150018   2.127   4.500   3.346  0.6156  0.1309 -0.1708
 9509TIP3    H250019   1.977   4.520   3.340  0.5405 -0.3775 -0.0680
 9510TIP3   OH250020   3.764   3.773   3.062 -0.3518 -0.3673 -0.0200
 9510TIP3    H150021   3.813   3.709   3.113 -3.2202 -1.0919  2.1176
 9510TIP3    H250022   3.719   3.722   2.995  1.6249  0.2821 -1.9493
 9511TIP3   OH250023   6.691   2.826   1.868 -0.8942  0.4386 -0.3425
 9511TIP3    H150024   6.616   2.879   1.841  0.0209  1.2838 -1.2905
 9511TIP3    H250025   6.731   2.875   1.940 -1.7183 -0.4465  0.7694
 9512TIP3   OH250026   5.917   1.621   3.745  0.1373 -0.8470  0.2027
 9512TIP3    H150027   5.828   1.655   3.758 -0.3861 -1.9650 -0.3453
 9512TIP3    H250028   5.939   1.580   3.829 -0.3172 -1.5611 -0.0211
 9513TIP3   OH250029   1.223   6.369  11.686  0.0269 -0.3858 -0.1546
 9513TIP3    H150030   1.156   6.391  11.751 -1.0329  1.2211 -1.7126
 9513TIP3    H250031   1.192   6.288  11.645  0.0942 -0.7498  0.4991
 9514TIP3   OH250032   5.050   0.408   4.202 -0.1614  0.0849 -0.3707
 9514TIP3    H150033   5.023   0.478   4.142 -3.6604  1.3394  2.2874
 9514TIP3    H250034   5.092   0.454   4.275  1.3855 -1.1193 -0.4396
 9515TIP3   OH250035   5.033   2.577  17.134  0.1423 -0.3394 -0.0068
 9515TIP3    H150036   5.052   2.512  17.201 -0.9906 -0.6121  0.0827
 9515TIP3    H250037   5.118   2.601  17.098  0.6999 -0.7166  1.0335
 9516TIP3   OH250038   4.025   1.453  15.978  0.5322  0.1187  0.3622
 9516TIP3    H150039   3.962   1.385  16.003  0.4316 -0.0147 -0.2347
 9516TIP3    H250040   3.982   1.535  16.000  0.8535 -0.0099  1.5547
 9517TIP3   OH250041   2.292   3.677   0.056 -0.3212 -0.0930  0.7121
 9517TIP3    H150042   2.236   3.735   0.004 -0.0886  0.1790  0.7641
 9517TIP3    H250043   2.373   3.726   0.068  0.1716 -0.7438  0.0938
 9518TIP3   OH250044   0.388   2.279  10.694 -0.4267 -0.0121 -0.5323
 9518TIP3    H150045   0.314   2.286  10.633 -0.3518  0.8114 -0.5420
 9518TIP3    H250046   0.350   2.247  10.775 -0.3620 -2.2294 -1.3016
 9519TIP3   OH250047   2.337   1.823  16.819 -0.0981  0.5868  0.1700
 9519TIP3    H150048   2.364   1.778  16.739  1.2946  0.0314  0.9038
 9519TIP3    H250049   2.410   1.882  16.839 -1.2293  2.0847  0.0549
 9520TIP3   OH250050   4.241   2.231   0.592 -0.1408 -0.0853  0.2791
 9520TIP3    H150051   4.235   2.317   0.634 -1.2939 -0.9638  2.0231
 9520TIP3    H250052   4.333   2.224   0.565 -0.3769  2.3741 -1.5199
 9521TIP3   OH250053   6.122   4.778   2.773  0.4406 -0.1736 -0.2925
 9521TIP3    H150054   6.041   4.794   2.821 -0.0912  0.3223 -1.3156
 9521TIP3    H250055   6.094   4.739   2.690  1.4312 -2.4506  0.3656
 9522TIP3   OH250056   1.610   4.928  12.653 -0.0946  0.1102  0.2739
 9522TIP3    H150057   1.667   4.928  12.576 -1.0023  3.2785 -0.5476
 9522TIP3    H250058   1.670   4.925  12.727  1.1133  1.3830 -0.5838
 9523TIP3   OH250059   3.175   0.731   0.864 -0.1660  0.9646  0.6602
 9523TIP3    H150060   3.141   0.802   0.919  0.1608  0.8399  1.0313
 9523TIP3    H250061   3.122   0.655   0.889 -0.4578  1.0535  0.3250
 9524TIP3   OH250062   6.016   3.219   5.228 -0.2886  0.1801 -0.4604
 9524TIP3    H150063   5.985   3.297   5.182 -1.2201  0.0504 -0.0821
 9524TIP3    H250064   5.936   3.169   5.246 -0.1929  0.9188  2.5865
 9525TIP3   OH250065   2.596   4.618  14.744 -0.2059  0.0311  0.4614
 9525TIP3    H150066   2.672   4.639  14.799  1.4401 -0.7243 -1.4313
 9525TIP3    H250067   2.537   4.570  14.803  1.1668 -0.1628  1.7438
 9526TIP3   OH250068   4.984   6.425   1.992 -0.1970 -0.4780  0.1072
 9526TIP3    H150069   4.901   6.421   2.039  0.5697  0.0810  1.5839
 9526TIP3    H250070   4.994   6.517   1.969 -0.2638 -0.6447 -0.6048
 9527TIP3   OH250071   1.550   3.147   5.261 -0.3986  0.2507  0.1782
 9527TIP3    H150072   1.588   3.109   5.182 -0.7269  0.5902 -0.1440
 9527TIP3    H250073   1.616   3.210   5.291 -0.0778 -0.1924  0.4302
 9528TIP3   OH250074   4.816   0.582  15.559 -0.7836  0.5671 -0.1965
 9528TIP3    H150075   4.738   0.626  15.592 -0.8792 -0.5314  1.1553
 9528TIP3    H250076   4.804   0.490  15.583  0.0128  0.0065 -1.7537
 9529TIP3   OH250077   2.277   3.030   3.978 -0.6422  0.6324  0.3001
 9529TIP3    H150078   2.210   3.088   4.014  0.1711  0.7790  1.6319
 9529TIP3    H250079   2.355   3.047   4.031 -0.0692 -0.9013  0.0023
 9530TIP3   OH250080   5.800   5.585  12.995 -0.0365  0.3530 -0.1897
 9530TIP3    H150081   5.886   5.575  12.953  0.3128 -0.9058  0.7914
 9530TIP3    H250082   5.820   5.613  13.084 -0.6492  0.1046  0.0307
 9531TIP3   OH250083   6.265   6.549  15.260  0.1446  0.0914 -0.1744
 9531TIP3    H150084   6.179   6.589  15.271 -0.0261 -0.1383 -0.6766
 9531TIP3    H250085   6.314   6.611  15.206  0.0791 -0.0852 -0.4391
 9532TIP3   OH250086   6.197   6.062   3.711 -0.4693  0.2213  0.4554
 9532TIP3    H150087   6.281   6.081   3.669 -0.1227 -2.2945 -0.1674
 9532TIP3    H250088   6.206   6.098   3.800  1.3931 -0.2540  0.4995
 9533TIP3   OH250089   1.181   0.096  14.930 -0.2984 -0.0187 -0.2389
 9533TIP3    H150090   1.176   0.008  14.892 -2.3023 -0.2068  0.3447
 9533TIP3    H250091   1.117   0.095  15.001  0.2417  1.6821  0.3180
 9534TIP3   OH250092   0.942   2.759   0.174  0.2829 -0.3795  0.3022
 9534TIP3    H150093   0.990   2.692   0.125 -0.1721  0.9126 -2.0521
 9534TIP3    H250094   0.993   2.771   0.254  2.2456 -1.1511 -0.7622
 9535TIP3   OH250095   3.855   1.160   1.315 -0.1722 -0.0283  0.2420
 9535TIP3    H150096   3.790   1.094   1.338  0.1651 -0.0140  1.2850
 9535TIP3    H250097   3.829   1.190   1.228 -1.5288 -0.0641  0.6177
 9536TIP3   OH250098   6.469   0.309   2.777 -0.4002 -0.1795  0.0160
 9536TIP3    H150099   6.450   0.234   2.721 -1.1504  0.9277 -1.2790
 9536TIP3    H250100   6.493   0.379   2.716  0.2370  0.6581  1.1790
 9537TIP3   OH250101   5.673   0.908   1.804 -0.1175 -0.3459  0.0758
 9537TIP3    H150102   5.721   0.836   1.846  0.7340  0.3490  0.3184
 9537TIP3    H250103   5.614   0.940   1.872 -0.4172 -0.7260  0.0031
 9538TIP3   OH250104   1.256   1.124  16.413  0.8905  0.0190  0.0707
 9538TIP3    H150105   1.324   1.143  16.478 -0.0707  0.2533  1.0320
 9538TIP3    H250106   1.222   1.210  16.388  0.0713 -0.1561  0.5651
 9539TIP3   OH250107   6.166   4.674   4.948  0.0986  0.4774 -0.3091
 9539TIP3    H150108   6.077   4.646   4.966 -0.0632  0.6568 -0.8107
 9539TIP3    H250109   6.184   4.642   4.859  0.8347 -0.2908  0.1061
 9540TIP3   OH250110   1.491   5.084   0.219 -0.8277 -0.7326  0.3678
 9540TIP3    H150111   1.490   5.122   0.131 -0.7074 -1.0507  0.2266
 9540TIP3    H250112   1.398   5.068   0.239 -0.8710 -0.4533  0.3896
 9541TIP3   OH250113   3.192   4.975  13.620 -0.6249 -0.3856  0.1074
 9541TIP3    H150114   3.109   4.957  13.664 -0.8597 -0.4475 -0.3547
 9541TIP3    H250115   3.238   5.036  13.678 -1.4183  0.4286 -0.1034
 9542TIP3   OH250116   6.719   1.599  13.354 -0.3788 -0.3666 -0.3480
 9542TIP3    H150117   6.708   1.679  13.405  1.0632  0.1723 -0.8266
 9542TIP3    H250118   6.811   1.600  13.329 -0.4434 -1.9836 -0.7054
 9543TIP3   OH250119   4.080   6.778  15.213 -0.2348  0.1088  0.0316
 9543TIP3    H150120   4.126   6.703  15.175 -0.9223 -1.0731  1.4099
 9543TIP3    H250121   4.020   6.807  15.144  1.3522  0.6099 -1.1843
 9544TIP3   OH250122   3.161   3.224  13.853  0.2852 -0.0822  0.1252
 9544TIP3    H150123   3.152   3.276  13.934 -1.9727  1.0416 -0.7618
 9544TIP3    H250124   3.219   3.277  13.798 -1.5105  1.3062 -0.5342
 9545TIP3   OH250125   5.732   2.960   4.749 -0.2272 -0.6679  0.0699
 9545TIP3    H150126   5.654   2.907   4.730 -0.2743 -0.1205 -1.4021
 9545TIP3    H250127   5.785   2.953   4.670 -1.3664  3.4086 -1.2842
 9546TIP3   OH250128   5.871   6.747   0.569  0.0811 -0.7965  0.7126
 9546TIP3    H150129   5.828   6.826   0.535  0.2837 -1.8017 -2.1451
 9546TIP3    H250130   5.802   6.682   0.574  0.7270 -1.8060 -1.8481
 9547TIP3   OH250131   1.948   4.802  16.185  0.2285 -0.5588  0.0857
 9547TIP3    H150132   1.989   4.888  16.196  0.7275 -0.5726 -1.5051
 9547TIP3    H250133   1.975   4.753  16.263  1.7330  0.0360 -0.0307
 9548TIP3   OH250134   3.696   1.585   5.397 -0.3085  0.1239 -0.1473
 9548TIP3    H150135   3.693   1.672   5.437  0.3041 -0.2748  0.8056
 9548TIP3    H250136   3.669   1.599   5.306 -0.4651  1.2640  0.0635
 9549TIP3   OH250137   0.648   2.478  16.358 -0.1760 -0.0941 -0.0889
 9549TIP3    H150138   0.739   2.505  16.358 -0.4016  0.6854  0.1688
 9549TIP3    H250139   0.616   2.501  16.446 -0.5138 -0.7249 -0.0392
 9550TIP3   OH250140   0.121   1.985  12.339 -0.1645 -0.0236  0.6764
 9550TIP3    H150141   0.080   1.934  12.408  0.6347  0.5410  1.6083
 9550TIP3    H250142   0.098   1.941  12.258 -3.6694  0.9800  0.9830
 9551TIP3   OH250143   4.327   6.444   3.821  0.2683 -0.3321  0.2106
 9551TIP3    H150144   4.417   6.467   3.799  0.1585  0.1536  0.2395
 9551TIP3    H250145   4.326   6.349   3.827  1.0013 -0.2855  1.1758
 9552TIP3   OH250146   2.214   3.890  17.174  0.2837  0.2735  0.1760
 9552TIP3    H150147   2.251   3.839  17.102 -0.1668  1.0996 -0.6649
 9552TIP3    H250148   2.277   3.961  17.188  0.8508 -0.4105  1.2617
 9553TIP3   OH250149   3.729   5.623  16.237 -0.8810  0.2868 -0.0185
 9553TIP3    H150150   3.777   5.583  16.164  0.8474  0.6011  0.8801
 9553TIP3    H250151   3.707   5.549  16.295  0.7019  0.3621  0.7418
 9554TIP3   OH250152   0.058   6.597  12.200  0.1816 -0.2290 -0.3481
 9554TIP3    H150153  -0.029   6.592  12.160 -0.6068  0.1743  1.2420
 9554TIP3    H250154   0.056   6.531  12.270  0.6284  0.7562  0.6250
 9555TIP3   OH250155   6.018   4.571  10.280  0.1053  1.0434  0.4499
 9555TIP3    H150156   5.938   4.582  10.332 -1.0753  1.4885 -1.3818
 9555TIP3    H250157   6.086   4.616  10.331 -1.1471  2.0950  1.2474
 9556TIP3   OH250158   2.326   1.270   5.459 -0.1899  0.6539 -0.4471
 9556TIP3    H150159   2.294   1.185   5.433 -0.0105  0.8189 -1.2160
 9556TIP3    H250160   2.320   1.270   5.555 -0.0832 -0.2554 -0.4367
 9557TIP3   OH250161   4.222   0.199  14.084  0.5147 -0.1042 -0.4629
 9557TIP3    H150162   4.205   0.181  14.177  0.2526  0.9690 -0.2921
 9557TIP3    H250163   4.315   0.177  14.072  0.3190 -1.1343 -0.1811
 9558TIP3   OH250164   6.232   1.999   1.865 -0.5330 -0.3992 -0.7506
 9558TIP3    H150165   6.169   2.019   1.934  0.9013 -2.0769  1.1618
 9558TIP3    H250166   6.308   1.964   1.912  1.4125  0.5105 -3.0294
 9559TIP3   OH250167   5.048   3.435  14.047  0.3101 -0.1191  0.1166
 9559TIP3    H150168   5.085   3.515  14.086  0.1572 -0.7641  1.6868
 9559TIP3    H250169   4.954   3.444  14.061  0.2950 -0.5701  0.3124
 9560TIP3   OH250170   4.188   5.596   3.741 -0.3211  0.0474  0.5581
 9560TIP3    H150171   4.235   5.602   3.824  1.0000 -1.5220 -0.0086
 9560TIP3    H250172   4.165   5.504   3.733  1.0468 -0.1857 -1.5295
 9561TIP3   OH250173   5.964   2.206   0.873 -0.6009 -0.3442 -0.4221
 9561TIP3    H150174   5.980   2.290   0.829 -1.2479  0.4518  0.7985
 9561TIP3    H250175   6.026   2.205   0.946 -3.3927  1.1473  2.2033
 9562TIP3   OH250176   1.239   2.844   0.582 -0.6215  0.3376 -0.4707
 9562TIP3    H150177   1.303   2.899   0.537  0.1967 -1.0704 -1.0854
 9562TIP3    H250178   1.290   2.798   0.649 -1.4085  0.7223  0.4269
 9563TIP3   OH250179   6.785   4.981  17.131  0.0170  0.1884 -0.0195
 9563TIP3    H150180   6.850   5.045  17.158  0.1204 -0.0924  0.4164
 9563TIP3    H250181   6.823   4.938  17.055 -0.2649  0.9702 -0.6125
 9564TIP3   OH250182   4.660   4.587   2.865 -0.5579  0.2242  0.3765
 9564TIP3    H150183   4.712   4.656   2.824  0.2299  0.0963  1.1098
 9564TIP3    H250184   4.696   4.506   2.831  0.5234  0.0919  1.7261
 9565TIP3   OH250185   4.581   5.455   3.882 -0.1491  0.2598 -0.3776
 9565TIP3    H150186   4.516   5.463   3.952 -0.8668 -0.1750 -0.9904
 9565TIP3    H250187   4.649   5.398   3.918 -0.3848  0.2535  0.0558
 9566TIP3   OH250188   3.352   6.732  16.829 -0.1968 -0.3224 -0.2114
 9566TIP3    H150189   3.437   6.775  16.831 -0.0656 -0.4175 -2.0609
 9566TIP3    H250190   3.358   6.669  16.757 -2.1510  0.4237 -1.1182
 9567TIP3   OH250191   5.442   4.583  16.609  0.8480  0.2426  0.0038
 9567TIP3    H150192   5.391   4.517  16.656 -0.2987  0.5604 -0.7399
 9567TIP3    H250193   5.518   4.600  16.665  1.4413 -2.0617 -0.0406
 9568TIP3   OH250194   2.493   2.827  14.740  0.2686  0.3715 -0.2554
 9568TIP3    H150195   2.503   2.817  14.835 -0.7979 -0.3021 -0.2040
 9568TIP3    H250196   2.440   2.906  14.730  0.4677  0.5011 -0.3080
 9569TIP3   OH250197   6.580   4.212  13.275 -0.0010  0.3774 -0.6344
 9569TIP3    H150198   6.509   4.164  13.232 -1.0553  1.2228  0.1076
 9569TIP3    H250199   6.551   4.303  13.275  0.3415  0.5177  1.0794
 9570TIP3   OH250200   4.307   6.700   5.731  0.3339 -0.3734  0.1259
 9570TIP3    H150201   4.322   6.783   5.686  0.4201 -0.5458 -0.1649
 9570TIP3    H250202   4.230   6.717   5.786  0.2886 -0.1341 -0.0078
 9571TIP3   OH250203   0.456   4.037   1.718 -0.2009 -0.6070 -0.2747
 9571TIP3    H150204   0.456   4.009   1.809 -0.6093  0.4358  0.0606
 9571TIP3    H250205   0.377   3.999   1.680 -0.7110  0.0118  0.1554
 9572TIP3   OH250206   5.858   5.838   4.265 -0.5222  0.2033  0.1310
 9572TIP3    H150207   5.826   5.761   4.218 -0.7528  0.0325  0.5636
 9572TIP3    H250208   5.779   5.883   4.294 -0.3792  0.1321  0.6396
 9573TIP3   OH250209   3.949   3.174  15.143 -0.3981 -0.4870 -0.0013
 9573TIP3    H150210   3.883   3.122  15.097 -0.8945 -0.1608  0.3299
 9573TIP3    H250211   4.033   3.140  15.112 -0.6935 -1.9834  0.7286
 9574TIP3   OH250212   1.708   5.591   0.292 -0.4211 -0.0377 -0.0385
 9574TIP3    H150213   1.705   5.611   0.199 -1.5919  2.9137  0.5304
 9574TIP3    H250214   1.649   5.655   0.333  1.4729  0.0452  2.9177
 9575TIP3   OH250215   5.173   2.651   5.818 -0.0705  0.4071 -0.4379
 9575TIP3    H150216   5.218   2.577   5.859  0.0352 -1.1472 -3.1589
 9575TIP3    H250217   5.236   2.685   5.754 -1.7817 -0.2644 -2.5952
 9576TIP3   OH250218   1.164   4.524   0.614  0.6039 -0.1202 -0.5103
 9576TIP3    H150219   1.241   4.555   0.661 -0.2975 -0.0832  1.0184
 9576TIP3    H250220   1.197   4.455   0.556  2.5172  2.8516 -3.3040
 9577TIP3   OH250221   1.435   1.153  13.213 -0.1795 -0.1741 -0.5536
 9577TIP3    H150222   1.520   1.115  13.189  0.6581  0.3248  1.3478
 9577TIP3    H250223   1.390   1.166  13.130  2.1671  0.8038 -1.7883
 9578TIP3   OH250224   5.833   6.644   0.887  0.0056 -0.2150  0.0710
 9578TIP3    H150225   5.858   6.663   0.977 -1.6730 -0.3259  0.5917
 9578TIP3    H250226   5.798   6.727   0.854  1.3137  0.0440 -0.7710
 9579TIP3   OH250227   0.179   2.556   3.100 -0.5479  0.1660 -0.2936
 9579TIP3    H150228   0.144   2.536   3.187  0.9532  1.2580  0.6026
 9579TIP3    H250229   0.261   2.602   3.116 -0.5410  0.9840 -2.2944
 9580TIP3   OH250230   4.163   0.793   6.258 -0.5663 -0.7051 -0.0711
 9580TIP3    H150231   4.216   0.822   6.332 -2.6032 -0.7101  1.4732
 9580TIP3    H250232   4.150   0.872   6.205 -0.5970 -0.2909  0.5474
 9581TIP3   OH250233   6.457   4.448  15.854  0.3967 -0.0938 -0.1856
 9581TIP3    H150234   6.399   4.373  15.864  1.0469 -0.3605  2.1830
 9581TIP3    H250235   6.451   4.471  15.761 -0.3340 -2.6319 -0.8445
 9582TIP3   OH250236   2.048   5.552  11.060 -0.6765  0.1150 -0.5648
 9582TIP3    H150237   2.019   5.461  11.053 -0.0194 -0.1325 -0.2030
 9582TIP3    H250238   2.106   5.564  10.984 -1.0468  0.3466 -0.8145
 9583TIP3   OH250239   4.858   2.129   1.623  0.1702  0.0192 -0.1388
 9583TIP3    H150240   4.782   2.188   1.620  0.5652  0.5753  0.4198
 9583TIP3    H250241   4.915   2.168   1.690  1.2042 -0.0779 -0.9411
 9584TIP3   OH250242   4.710   1.723  17.063 -0.0267  0.0167 -0.6036
 9584TIP3    H150243   4.641   1.772  17.108  0.5691  0.3902 -0.0804
 9584TIP3    H250244   4.680   1.716  16.973 -1.4835 -1.1896 -0.0618
 9585TIP3   OH250245   2.171   6.360   0.624 -0.5343 -0.5230 -0.3126
 9585TIP3    H150246   2.182   6.271   0.657 -0.7737 -0.2699  0.4783
 9585TIP3    H250247   2.175   6.415   0.703 -0.4217  0.1595 -0.7882
 9586TIP3   OH250248   2.185   4.946  10.464 -0.0215 -0.6383  1.0153
 9586TIP3    H150249   2.257   5.009  10.470 -0.3767 -0.2845  1.6656
 9586TIP3    H250250   2.228   4.862  10.447  0.4660 -0.2541  0.3010
 9587TIP3   OH250251   2.908   2.087  16.364  0.0431 -0.6735  0.3660
 9587TIP3    H150252   2.815   2.063  16.357  0.4982 -2.0679 -1.6658
 9587TIP3    H250253   2.909   2.158  16.429 -2.5384 -0.0113 -0.1919
 9588TIP3   OH250254   3.368   2.053   1.792  0.3042  0.3401 -0.2403
 9588TIP3    H150255   3.402   1.965   1.806  0.4134  0.1580 -1.5076
 9588TIP3    H250256   3.445   2.109   1.794  0.3278  0.3039 -0.1613
 9589TIP3   OH250257   3.574   2.869  11.901 -0.0377  0.0678  0.0339
 9589TIP3    H150258   3.642   2.907  11.957  0.4582 -1.4971  0.5253
 9589TIP3    H250259   3.620   2.843  11.822  0.0176 -1.2399  0.4748
 9590TIP3   OH250260   1.058   0.628  14.532  0.0580 -0.2579 -0.0358
 9590TIP3    H150261   1.124   0.634  14.602 -0.8029  0.7285  0.7325
 9590TIP3    H250262   1.107   0.598  14.456  0.9462 -1.8893  1.1038
 9591TIP3   OH250263   0.963   3.856   4.073  0.0979  0.2185  1.1560
 9591TIP3    H150264   0.894   3.799   4.107 -1.2162  0.4244 -0.9743
 9591TIP3    H250265   0.936   3.944   4.101 -1.9161  0.6076 -1.5977
 9592TIP3   OH250266   0.323   1.922  14.573 -0.1911  0.9222 -0.1060
 9592TIP3    H150267   0.416   1.909  14.589  0.1935  3.4509  0.0698
 9592TIP3    H250268   0.311   1.897  14.481  0.5904  0.3671 -0.0661
 9593TIP3   OH250269   6.258   4.282  12.149 -0.1726  0.2483  0.3793
 9593TIP3    H150270   6.244   4.230  12.070 -1.1159  2.0873 -0.7105
 9593TIP3    H250271   6.214   4.233  12.218 -1.5428 -0.1281 -0.7268
 9594TIP3   OH250272   3.991   1.697  16.411  0.0670 -0.5341 -0.2649
 9594TIP3    H150273   3.965   1.619  16.362 -2.4355 -0.3016  0.5614
 9594TIP3    H250274   3.909   1.737  16.439  1.2557  2.2928 -0.4293
 9595TIP3   OH250275   3.347   6.673  15.363 -0.0930  0.0278 -0.2139
 9595TIP3    H150276   3.411   6.601  15.364 -2.3394 -2.2107  2.6195
 9595TIP3    H250277   3.268   6.634  15.327 -1.1544  1.2714  0.6805
 9596TIP3   OH250278   2.846   5.670  12.161 -0.1219  0.5322  0.5132
 9596TIP3    H150279   2.781   5.668  12.091  0.9431  0.3020 -0.5031
 9596TIP3    H250280   2.925   5.632  12.122  0.7750  1.2417  1.5564
 9597TIP3   OH250281   4.097   5.280   2.748  0.4558  0.6206 -0.2589
 9597TIP3    H150282   4.110   5.373   2.733  0.3510  0.9505  1.4870
 9597TIP3    H250283   4.181   5.240   2.725  0.5456  1.1655 -0.8698
 9598TIP3   OH250284   2.779   3.117   4.389 -0.2698  0.1875  0.1357
 9598TIP3    H150285   2.819   3.029   4.389 -1.3799 -0.3347  0.3506
 9598TIP3    H250286   2.832   3.167   4.327  1.5998 -0.0570  1.4367
 9599TIP3   OH250287   1.195   0.952   3.310 -0.0766 -0.5468 -0.2168
 9599TIP3    H150288   1.187   1.047   3.300  0.7123 -0.5022 -0.6089
 9599TIP3    H250289   1.182   0.918   3.221  2.0760 -0.5801 -0.5820
 9600TIP3   OH250290   2.363   3.653  12.655  0.3318  0.5010 -0.2313
 9600TIP3    H150291   2.312   3.574  12.674  0.9478 -0.4060 -2.0597
 9600TIP3    H250292   2.419   3.665  12.732 -1.0694  0.2425  0.8500
 9601TIP3   OH250293   3.330   6.486   2.671 -0.4660 -0.1503 -0.6009
 9601TIP3    H150294   3.300   6.546   2.740  0.4990  0.1810 -0.4576
 9601TIP3    H250295   3.352   6.406   2.717 -2.6709 -1.0050 -0.9021
 9602TIP3   OH250296   2.977   6.004   2.877 -0.0720  0.2257  0.0683
 9602TIP3    H150297   2.995   6.061   2.952  0.3429  0.6988 -0.3828
 9602TIP3    H250298   2.950   6.064   2.808  0.8663 -0.0594 -0.5663
 9603TIP3   OH250299   3.484   4.281  16.190  0.1881 -0.1488 -0.2669
 9603TIP3    H150300   3.489   4.370  16.225 -0.2891  0.2885 -1.2591
 9603TIP3    H250301   3.482   4.224  16.267 -1.1381  0.7850  0.4265
 9604TIP3   OH250302   5.111   2.602  12.220 -0.0507 -0.6907  0.3172
 9604TIP3    H150303   5.089   2.562  12.304 -1.1562 -0.8624 -0.0397
 9604TIP3    H250304   5.111   2.696  12.238  0.0331 -0.7409  0.5853
 9605TIP3   OH250305   6.285   4.203   1.536 -0.1789 -0.6986  0.4361
 9605TIP3    H150306   6.218   4.166   1.593 -0.0937 -1.1740  0.2281
 9605TIP3    H250307   6.250   4.191   1.448  0.2275 -1.0375  0.3218
 9606TIP3   OH250308   5.308   4.382  14.015  0.1677  0.1872  0.2612
 9606TIP3    H150309   5.402   4.397  14.010  0.3442 -0.0588  2.2346
 9606TIP3    H250310   5.279   4.380  13.923  1.7326  2.3686 -0.3527
 9607TIP3   OH250311   1.101   6.694  11.395 -0.1393 -0.2059  0.0231
 9607TIP3    H150312   1.184   6.711  11.350 -0.0603 -0.2808  0.1391
 9607TIP3    H250313   1.122   6.703  11.488 -0.1330 -0.7731  0.0804
 9608TIP3   OH250314   5.051   2.299  17.063 -0.4778  0.5355  0.0108
 9608TIP3    H150315   5.022   2.287  17.154  0.1518  0.7418  0.2475
 9608TIP3    H250316   4.989   2.361  17.026 -1.2792 -0.2418  0.0287
 9609TIP3   OH250317   0.795   3.845  17.156  0.8879 -0.2657  0.1773
 9609TIP3    H150318   0.883   3.823  17.126  1.7508  1.9959  0.8875
 9609TIP3    H250319   0.803   3.852  17.251  0.3896  1.6481  0.1140
 9610TIP3   OH250320   1.667   6.483   2.364 -0.0321  0.1951 -0.1376
 9610TIP3    H150321   1.751   6.457   2.402  0.6551  0.1579 -1.6248
 9610TIP3    H250322   1.666   6.579   2.373  0.6018  0.2873 -0.9305
 9611TIP3   OH250323   3.289   6.397  14.580  0.2423  0.4114  0.1528
 9611TIP3    H150324   3.209   6.348  14.561  0.8163 -0.1139 -1.0919
 9611TIP3    H250325   3.279   6.479  14.531  0.5181  0.2742 -0.1417
 9612TIP3   OH250326   3.462   5.735   3.378  0.4464  0.7189 -0.6185
 9612TIP3    H150327   3.424   5.796   3.441 -0.6628 -1.0977  0.5381
 9612TIP3    H250328   3.389   5.710   3.321  0.3789 -1.0920  0.2246
 9613TIP3   OH250329   5.329   2.693   0.883 -0.3175  0.3037  0.2196
 9613TIP3    H150330   5.362   2.779   0.909  1.2043 -0.0558 -0.3905
 9613TIP3    H250331   5.359   2.633   0.952 -1.6835  0.2868  0.8343
 9614TIP3   OH250332   2.068   1.144  13.047 -0.1415  0.5677  0.4653
 9614TIP3    H150333   2.072   1.152  13.143 -1.7665 -2.9192  0.9886
 9614TIP3    H250334   1.978   1.167  13.025 -0.5371 -1.1263  0.1836
 9615TIP3   OH250335   1.507   6.691  16.117 -0.4910  0.1469  0.6073
 9615TIP3    H150336   1.589   6.641  16.117  1.8666  3.6487  0.3373
 9615TIP3    H250337   1.482   6.696  16.025  0.6720  1.4538  0.3325
 9616TIP3   OH250338   2.990   0.104   5.031  0.2459  0.1901 -0.5945
 9616TIP3    H150339   2.952   0.048   5.099  2.0100  0.4879  0.7146
 9616TIP3    H250340   2.966   0.193   5.058  1.9769  0.4028  0.3989
 9617TIP3   OH250341   6.220   0.424   3.788  0.3802  0.0320 -0.6456
 9617TIP3    H150342   6.213   0.440   3.694  1.3966  0.4033 -0.6707
 9617TIP3    H250343   6.142   0.467   3.826  0.8011  1.2939 -1.1565
 9618TIP3   OH250344   1.387   6.266   1.238  0.1231  0.8225 -0.0296
 9618TIP3    H150345   1.334   6.343   1.258 -2.2007 -0.7386  0.0973
 9618TIP3    H250346   1.475   6.301   1.225 -0.7363  3.4191  0.5740
 9619TIP3   OH250347   2.159   4.073   5.720  0.4183 -0.4155 -0.0059
 9619TIP3    H150348   2.225   4.062   5.789  0.3834  1.4273  0.3703
 9619TIP3    H250349   2.211   4.093   5.642  0.3704 -0.4223 -0.0390
 9620TIP3   OH250350   1.922   4.386   5.665 -0.0486 -0.7227  0.3339
 9620TIP3    H150351   1.997   4.434   5.631 -2.3294  0.8902 -2.9540
 9620TIP3    H250352   1.879   4.447   5.725 -0.2236 -0.6011  0.0836
 9621TIP3   OH250353   0.175   0.362  14.624  0.2180  0.2258 -0.9496
 9621TIP3    H150354   0.163   0.421  14.549 -2.0228  0.4779 -0.4614
 9621TIP3    H250355   0.102   0.300  14.618  1.6984 -1.6563 -0.6312
 9622TIP3   OH250356   3.884   3.433   3.707 -0.3908 -0.4428  0.6720
 9622TIP3    H150357   3.937   3.445   3.786 -0.8085 -1.2524  1.0791
 9622TIP3    H250358   3.933   3.371   3.654 -1.4926 -2.2230  1.6209
 9623TIP3   OH250359   5.586   0.451  16.496 -0.7448  0.1834 -0.6464
 9623TIP3    H150360   5.574   0.539  16.531  2.0416 -0.4298  2.2792
 9623TIP3    H250361   5.528   0.396  16.549 -1.3353  0.0183 -1.4383
 9624TIP3   OH250362   6.474   3.225  13.954  0.3256 -0.4116 -0.2163
 9624TIP3    H150363   6.387   3.260  13.969 -0.2498 -1.6933 -0.4177
 9624TIP3    H250364   6.524   3.249  14.032 -0.2355  0.2183 -0.0421
 9625TIP3   OH250365   5.912   4.831  12.275  0.3925 -0.4033 -0.3935
 9625TIP3    H150366   5.891   4.859  12.186 -0.7766 -3.1432 -1.0749
 9625TIP3    H250367   5.837   4.859  12.327  0.4036 -0.0990 -0.5365
 9626TIP3   OH250368   1.249   5.478  16.946  0.5937  0.2722 -0.1324
 9626TIP3    H150369   1.283   5.480  16.856 -0.5566  3.2473 -0.6117
 9626TIP3    H250370   1.236   5.570  16.968 -0.6296 -0.4699  2.5434
 9627TIP3   OH250371   3.086   3.259  16.582  0.1981 -0.3269  0.7853
 9627TIP3    H150372   3.004   3.221  16.550  1.0764 -3.7930  2.2047
 9627TIP3    H250373   3.062   3.303  16.664 -0.8399  2.5368 -0.8926
 9628TIP3   OH250374   4.645   6.023   1.732 -0.1200  0.2260  0.0715
 9628TIP3    H150375   4.655   6.089   1.800 -1.0112  0.8456 -0.3836
 9628TIP3    H250376   4.575   5.966   1.763 -0.9598  0.8717 -0.5835
 9629TIP3   OH250377   2.120   1.145  16.665  0.8675 -0.4757 -0.3380
 9629TIP3    H150378   2.156   1.117  16.581 -0.8414 -0.2170 -1.2037
 9629TIP3    H250379   2.188   1.202  16.702  0.7116  1.4320 -2.6957
 9630TIP3   OH250380   4.779   5.752  12.080  0.0580 -0.2736 -0.2156
 9630TIP3    H150381   4.701   5.697  12.085  0.7671 -1.2928 -0.2073
 9630TIP3    H250382   4.787   5.790  12.167 -1.4947  1.3933 -0.7083
 9631TIP3   OH250383   5.030   5.099  12.821 -0.3557  0.3000  0.5619
 9631TIP3    H150384   4.934   5.090  12.815 -0.2666 -1.5556  1.2634
 9631TIP3    H250385   5.044   5.153  12.899 -0.8252  1.6085 -0.2195
 9632TIP3   OH250386   2.754   5.235   3.194  0.1358 -0.4841  0.1261
 9632TIP3    H150387   2.693   5.162   3.188  0.4303 -0.8128  0.9500
 9632TIP3    H250388   2.740   5.285   3.114 -1.3155 -0.4563  0.3788
 9633TIP3   OH250389   0.203   2.913   3.288 -0.0568  0.4401  0.0158
 9633TIP3    H150390   0.135   2.938   3.225 -0.6526  0.3462  0.6125
 9633TIP3    H250391   0.155   2.887   3.366  0.5271 -1.9109 -0.3252
 9634TIP3   OH250392   6.825   6.793   4.118  0.0572  0.2544 -0.2553
 9634TIP3    H150393   6.890   6.733   4.154 -1.0328  1.0380  3.4135
 9634TIP3    H250394   6.751   6.788   4.178 -1.5140  2.6509 -1.7982
 9635TIP3   OH250395   4.320   0.963   3.759  0.0935  0.5516 -0.3093
 9635TIP3    H150396   4.242   0.975   3.813 -0.3251  2.3428 -1.2100
 9635TIP3    H250397   4.392   0.958   3.822 -0.7379 -1.4022  0.5448
 9636TIP3   OH250398   1.080   5.090   4.484  0.0985  0.1866  0.3174
 9636TIP3    H150399   1.080   5.146   4.561 -0.7099  0.9326 -0.2076
 9636TIP3    H250400   1.010   5.026   4.499  0.8722 -0.5742  0.8152
 9637TIP3   OH250401   6.104   3.853   2.012 -0.2607 -0.3402  0.2800
 9637TIP3    H150402   6.030   3.894   1.968 -0.3118 -0.5354  0.1852
 9637TIP3    H250403   6.121   3.910   2.088 -0.0704  0.0816 -0.0750
 9638TIP3   OH250404   4.883   0.150  11.298  0.7802 -0.1227 -0.4689
 9638TIP3    H150405   4.928   0.100  11.366  0.5146  0.1769 -0.0735
 9638TIP3    H250406   4.811   0.193  11.343  2.0829  2.1438 -0.3952
 9639TIP3   OH250407   3.528   6.718  13.731  0.2131 -0.2379  0.0203
 9639TIP3    H150408   3.553   6.655  13.663 -0.7176 -1.3785  0.6954
 9639TIP3    H250409   3.434   6.731  13.718  0.2896  0.6137  0.2400
 9640TIP3   OH250410   2.304   6.493  12.054  0.6179 -0.1397  0.1073
 9640TIP3    H150411   2.381   6.545  12.078  0.5403  1.6110 -2.9320
 9640TIP3    H250412   2.332   6.444  11.976 -1.0521 -0.2071 -0.4759
 9641TIP3   OH250413   0.897   5.294   3.268 -0.2377  0.4362 -0.5834
 9641TIP3    H150414   0.816   5.258   3.306  1.1352 -1.9692  0.2622
 9641TIP3    H250415   0.901   5.255   3.181 -0.1099  0.7676 -0.7259
 9642TIP3   OH250416   5.650   0.341  15.845  0.2345 -0.3498  0.0631
 9642TIP3    H150417   5.618   0.251  15.838  0.3407 -0.4068  0.3046
 9642TIP3    H250418   5.571   0.393  15.858  0.0490 -0.2597 -1.3372
 9643TIP3   OH250419   0.631   1.337   0.012  0.7208  0.2564 -0.2481
 9643TIP3    H150420   0.588   1.280  -0.052 -1.2166  0.5795  0.7046
 9643TIP3    H250421   0.683   1.397  -0.041 -1.5985  1.1627 -1.6731
 9644TIP3   OH250422   6.549   0.669   1.404 -0.4621 -0.5438  0.1352
 9644TIP3    H150423   6.619   0.605   1.418 -2.1383 -2.2940  0.8279
 9644TIP3    H250424   6.595   0.752   1.395  1.7310 -1.6747  0.2073
 9645TIP3   OH250425   2.093   1.296   1.619  0.1779  0.1256 -0.5460
 9645TIP3    H150426   2.100   1.219   1.562 -1.0682  0.3380 -1.0123
 9645TIP3    H250427   2.164   1.285   1.682  0.8559 -0.7175 -1.4237
 9646TIP3   OH250428   0.248   5.681  13.259 -0.3821  0.4017 -0.4225
 9646TIP3    H150429   0.154   5.671  13.247  0.0256 -1.4972 -2.7898
 9646TIP3    H250430   0.274   5.746  13.193  0.1445 -0.1986 -0.8241
 9647TIP3   OH250431   4.068   6.545  15.028 -0.7342 -0.0455  0.1024
 9647TIP3    H150432   4.102   6.591  14.951 -0.9772  0.8753  0.5318
 9647TIP3    H250433   3.998   6.489  14.993 -0.3784 -0.1675 -0.4365
 9648TIP3   OH250434   5.887   1.590  15.593  0.0653 -0.2378 -0.7236
 9648TIP3    H150435   5.817   1.613  15.655  0.6199 -0.4981  0.0178
 9648TIP3    H250436   5.946   1.535  15.644 -0.0871 -1.4832 -1.8337
 9649TIP3   OH250437   1.820   0.179  11.090  0.2267 -0.6967 -0.1059
 9649TIP3    H150438   1.770   0.261  11.086 -0.0805 -0.7512  1.8136
 9649TIP3    H250439   1.850   0.165  11.000  1.4119  2.2072 -0.2786
 9650TIP3   OH250440   3.936   1.023  16.333  0.0212  0.7375 -0.0047
 9650TIP3    H150441   3.881   1.038  16.257  2.1493  1.6703 -1.4877
 9650TIP3    H250442   3.878   0.986  16.399 -1.9616  0.1152 -1.9891
 9651TIP3   OH250443   5.122   2.296  16.364 -0.6994  0.1801  0.5045
 9651TIP3    H150444   5.162   2.287  16.450  0.0468  0.4989  0.1968
 9651TIP3    H250445   5.172   2.366  16.321 -1.5114  0.5095  0.0696
 9652TIP3   OH250446   2.393   4.230   6.218  0.2199 -0.1272  0.6144
 9652TIP3    H150447   2.361   4.287   6.288 -0.4443  1.1583 -0.6791
 9652TIP3    H250448   2.489   4.234   6.226  0.2367  1.8765  0.0771
 9653TIP3   OH250449   5.205   5.531   4.034 -0.3860 -0.2807 -0.3866
 9653TIP3    H150450   5.225   5.598   4.100  1.3220 -0.8669 -0.2811
 9653TIP3    H250451   5.163   5.580   3.963  1.4370  1.0713 -0.6152
 9654TIP3   OH250452   6.776   0.978   4.860  0.5786 -0.5924  0.0440
 9654TIP3    H150453   6.739   0.899   4.821  0.9708 -0.5125 -0.4959
 9654TIP3    H250454   6.783   1.040   4.787 -1.2093  0.5186  0.7369
 9655TIP3   OH250455   0.330   0.519  16.189 -0.9981 -0.1878  0.3377
 9655TIP3    H150456   0.259   0.510  16.253 -0.6374 -0.5594  0.6935
 9655TIP3    H250457   0.313   0.603  16.146 -1.5443 -0.1848  0.5516
 9656TIP3   OH250458   6.074   0.984   0.892 -0.0567  0.6749 -0.0460
 9656TIP3    H150459   6.119   1.024   0.967 -0.2849 -0.4367  0.7013
 9656TIP3    H250460   6.013   1.052   0.862 -1.1563  0.5805  1.8283
 9657TIP3   OH250461   5.799   1.779   1.982 -0.0003  0.3379 -0.4823
 9657TIP3    H150462   5.734   1.727   1.935 -2.1623  2.4729 -0.0541
 9657TIP3    H250463   5.870   1.792   1.918 -0.4442 -1.1245 -1.3313
 9658TIP3   OH250464   4.467   6.158   4.754 -0.0130 -1.1532  0.2623
 9658TIP3    H150465   4.555   6.164   4.715  0.0588 -1.4307  0.3784
 9658TIP3    H250466   4.411   6.204   4.692  0.0183 -2.0185 -0.4420
 9659TIP3   OH250467   6.031   0.836   5.201  0.0255  0.0613  0.1055
 9659TIP3    H150468   6.123   0.824   5.177  0.2035  0.9238  0.3169
 9659TIP3    H250469   6.022   0.789   5.284  0.8197  1.6541  1.1510
 9660TIP3   OH250470   2.350   4.655   1.605  0.1334  0.0602  0.2177
 9660TIP3    H150471   2.259   4.635   1.626  1.0228 -1.7150  2.9624
 9660TIP3    H250472   2.393   4.570   1.600  1.3692  0.7244 -3.0303
 9661TIP3   OH250473   0.555   2.099  12.923 -1.0956  0.1807 -0.3673
 9661TIP3    H150474   0.551   2.175  12.865 -0.0377 -0.5960 -1.5343
 9661TIP3    H250475   0.543   2.024  12.864 -0.0767 -0.6294  0.4251
 9662TIP3   OH250476   4.706   5.038   2.902  0.1252  0.2296 -0.1655
 9662TIP3    H150477   4.789   5.006   2.937  0.1059  0.8538  0.4883
 9662TIP3    H250478   4.721   5.048   2.808  1.1736  1.4440  0.1089
 9663TIP3   OH250479   2.641   0.707  11.503 -0.1845  0.1611  0.7019
 9663TIP3    H150480   2.667   0.765  11.575 -2.1147  0.2456  1.3996
 9663TIP3    H250481   2.616   0.767  11.432  1.8716  0.0756 -0.1396
 9664TIP3   OH250482   1.083   1.796   5.682  0.1760  0.2805  0.0849
 9664TIP3    H150483   1.088   1.886   5.712 -0.4847 -0.5195  2.8543
 9664TIP3    H250484   1.002   1.792   5.630 -1.2337  0.7655  2.1282
 9665TIP3   OH250485   4.801   0.954  16.199 -0.2765 -0.2202  0.0869
 9665TIP3    H150486   4.798   0.961  16.103  0.0728 -1.9875 -0.0822
 9665TIP3    H250487   4.709   0.956  16.226 -0.6305 -3.0333 -0.6163
 9666TIP3   OH250488   4.431   6.033  11.087 -0.2187  0.2971 -0.5677
 9666TIP3    H150489   4.381   5.995  11.014  0.3022  0.2041 -0.8838
 9666TIP3    H250490   4.521   6.006  11.070 -0.0275  0.6548 -0.1275
 9667TIP3   OH250491   6.080   4.305   4.970 -0.0417  0.2847 -0.2806
 9667TIP3    H150492   6.006   4.345   4.924  0.2793  1.2051 -0.0238
 9667TIP3    H250493   6.157   4.328   4.918  0.0365 -1.0215 -0.7764
 9668TIP3   OH250494   3.881   1.450   6.482  0.4979 -0.7170  0.2820
 9668TIP3    H150495   3.942   1.393   6.529  0.6535 -1.3715 -0.7006
 9668TIP3    H250496   3.846   1.396   6.411 -0.9959 -0.2669  0.6238
 9669TIP3   OH250497   6.787   4.162   5.594 -0.3401 -0.7367 -0.1401
 9669TIP3    H150498   6.786   4.228   5.663 -1.7003  3.1799 -3.4944
 9669TIP3    H250499   6.879   4.157   5.568 -0.1118 -0.7828  0.6431
 9670TIP3   OH250500   6.310   5.897  14.374  0.2842 -0.2801 -0.1732
 9670TIP3    H150501   6.216   5.892  14.391  0.4969  2.7717  3.1823
 9670TIP3    H250502   6.317   5.949  14.294 -0.9875  1.5507  0.8344
 9671TIP3   OH250503   3.552   3.927  15.214  0.5558 -0.2605  0.0520
 9671TIP3    H150504   3.646   3.909  15.218  0.3841 -1.3239 -0.3996
 9671TIP3    H250505   3.530   3.958  15.301  0.9909 -1.8009  0.7521
 9672TIP3   OH250506   2.630   3.727   0.739  0.0289 -0.0538  0.0118
 9672TIP3    H150507   2.702   3.752   0.797  0.5914  1.3360 -1.2324
 9672TIP3    H250508   2.663   3.744   0.651 -1.3328 -0.7121 -0.6538
 9673TIP3   OH250509   4.210   5.771   2.330  0.4164  0.7934 -0.4187
 9673TIP3    H150510   4.118   5.757   2.349  0.6313  0.5305  0.4687
 9673TIP3    H250511   4.217   5.865   2.315  0.2074  1.0148  0.7554
 9674TIP3   OH250512   3.012   0.302  16.088  0.3909 -0.3573 -0.0688
 9674TIP3    H150513   3.015   0.345  16.003 -0.2677 -1.8535 -0.8808
 9674TIP3    H250514   3.018   0.208  16.068  0.6919 -0.7195  1.5666
 9675TIP3   OH250515   6.226   3.111  15.386  0.0721 -0.2149 -0.1652
 9675TIP3    H150516   6.183   3.056  15.450  1.5062  0.6220  1.6186
 9675TIP3    H250517   6.319   3.093  15.398  0.5455  2.0405  0.0222
 9676TIP3   OH250518   1.047   4.556  11.953 -0.3746 -0.3193 -0.0693
 9676TIP3    H150519   1.141   4.537  11.942  0.2316  1.3666  1.6076
 9676TIP3    H250520   1.016   4.571  11.864  1.0461 -0.5379 -0.6425
 9677TIP3   OH250521   0.605   5.661   2.784 -0.0151  0.1360  0.2000
 9677TIP3    H150522   0.544   5.712   2.731 -0.4891 -0.9303 -0.3152
 9677TIP3    H250523   0.551   5.594   2.826  0.7276 -0.6074  0.0176
 9678TIP3   OH250524   1.897   0.353  13.893  0.3776 -0.5409 -0.0866
 9678TIP3    H150525   1.826   0.293  13.913  0.8460 -2.3933 -3.2100
 9678TIP3    H250526   1.939   0.315  13.815  0.8971  3.6754 -2.1744
 9679TIP3   OH250527   2.346   1.507  10.266 -0.0547 -0.3958  0.1276
 9679TIP3    H150528   2.277   1.517  10.332  0.4381  1.0850  0.4662
 9679TIP3    H250529   2.347   1.590  10.219  0.1551 -1.1372 -1.2399
 9680TIP3   OH250530   3.921   3.888  11.340  0.3546 -0.2314  0.8443
 9680TIP3    H150531   3.847   3.829  11.327 -1.1210  1.1341  2.6336
 9680TIP3    H250532   3.977   3.843  11.404 -0.1259 -0.2319  1.2646
 9681TIP3   OH250533   0.124   0.181  11.436  0.4142 -0.2790 -0.1613
 9681TIP3    H150534   0.129   0.132  11.518  3.0518 -0.3578 -0.2885
 9681TIP3    H250535   0.035   0.165  11.404  0.5677 -3.5568  0.6973
 9682TIP3   OH250536   0.832   5.909   0.406  0.3269  0.7637  0.1071
 9682TIP3    H150537   0.769   5.875   0.342 -0.2851  1.2297  0.4592
 9682TIP3    H250538   0.779   5.956   0.470  1.1005  1.8913 -0.0482
 9683TIP3   OH250539   5.711   0.090  17.206  0.3048  0.1725 -0.3939
 9683TIP3    H150540   5.788   0.146  17.211  1.3149 -1.2249  0.9016
 9683TIP3    H250541   5.660   0.111  17.284  1.1368 -1.2590  0.5798
 9684TIP3   OH250542   1.888   3.343   0.123  0.0083 -0.0929  0.7250
 9684TIP3    H150543   1.967   3.320   0.073 -1.0261 -0.0961 -1.0039
 9684TIP3    H250544   1.911   3.326   0.214  2.6459  1.7605  0.5044
 9685TIP3   OH250545   6.150   5.358  17.050 -0.6672 -0.1410  0.4938
 9685TIP3    H150546   6.234   5.314  17.061 -0.5097  0.1802  0.5751
 9685TIP3    H250547   6.132   5.397  17.136 -0.5299  0.4428  0.2604
 9686TIP3   OH250548   1.581   2.879  12.034  0.1239  0.2408 -0.3145
 9686TIP3    H150549   1.494   2.886  12.074  0.0564 -2.2290  0.1227
 9686TIP3    H250550   1.638   2.851  12.105  1.2412  1.5733 -0.6677
 9687TIP3   OH250551   0.527   0.144  16.730 -0.0678 -0.3297 -0.0775
 9687TIP3    H150552   0.439   0.110  16.744  0.3036 -1.7907 -0.9529
 9687TIP3    H250553   0.584   0.068  16.743  0.9127  0.1999 -1.0583
 9688TIP3   OH250554   6.191   6.100  11.973 -0.1349 -0.0425  0.2485
 9688TIP3    H150555   6.180   6.066  12.062  0.3416 -2.2136 -0.4792
 9688TIP3    H250556   6.136   6.044  11.919  2.9135 -1.6417 -1.4110
 9689TIP3   OH250557   3.736   3.567  14.002 -0.5854 -0.9913 -0.3220
 9689TIP3    H150558   3.817   3.583  14.048 -0.7005 -1.4205  0.0403
 9689TIP3    H250559   3.669   3.611  14.054 -0.7784 -1.8683  0.1879
 9690TIP3   OH250560   6.051   2.929  13.426  0.1555 -0.8175 -0.2235
 9690TIP3    H150561   6.060   3.021  13.401  1.1836 -0.1240  2.3612
 9690TIP3    H250562   6.128   2.886  13.390 -0.0960 -0.5780 -1.0588
 9691TIP3   OH250563   6.125   0.078  11.206 -0.7684 -0.5590  0.7943
 9691TIP3    H150564   6.110   0.168  11.176 -2.3389 -0.8269  0.7046
 9691TIP3    H250565   6.197   0.046  11.151  0.1056  0.7563  1.1130
 9692TIP3   OH250566   5.601   0.433  12.653 -0.2944  0.2020  0.0456
 9692TIP3    H150567   5.529   0.493  12.675 -1.1025 -0.3300 -1.0734
 9692TIP3    H250568   5.602   0.370  12.725 -0.3485  0.7410  0.5266
 9693TIP3   OH250569   2.226   4.319  16.892 -0.0652 -0.0963  0.0196
 9693TIP3    H150570   2.245   4.287  16.804 -0.3668 -2.2577  0.6958
 9693TIP3    H250571   2.271   4.404  16.897 -0.3809  0.2694 -2.3205
 9694TIP3   OH250572   6.432   1.323  12.751  0.3479 -0.4183  0.1235
 9694TIP3    H150573   6.384   1.369  12.821 -0.9137 -1.2572 -0.1555
 9694TIP3    H250574   6.377   1.247  12.731  0.4011  0.0796 -2.1591
 9695TIP3   OH250575   5.889   0.353   2.810 -0.0441  0.2185  0.3400
 9695TIP3    H150576   5.811   0.298   2.800 -0.0313  0.2838 -0.1061
 9695TIP3    H250577   5.854   0.438   2.836 -0.0798  0.0728  0.7783
 9696TIP3   OH250578   3.358   5.584   3.686 -0.0549  0.2248 -0.1054
 9696TIP3    H150579   3.294   5.611   3.752 -0.2829 -0.4828 -0.0341
 9696TIP3    H250580   3.305   5.559   3.610  0.2193  1.6062 -0.7984
 9697TIP3   OH250581   4.452   4.884   2.156 -0.5589  0.0746  0.0658
 9697TIP3    H150582   4.397   4.961   2.168 -1.4374 -0.5293  0.0528
 9697TIP3    H250583   4.522   4.894   2.221 -1.2188  0.4007  0.7399
 9698TIP3   OH250584   0.440   5.882  12.457  0.3717  0.0092 -0.0798
 9698TIP3    H150585   0.530   5.889  12.425 -0.0988  1.2933 -1.2199
 9698TIP3    H250586   0.389   5.937  12.398 -0.9942  0.2157  1.2229
 9699TIP3   OH250587   0.083   0.746  11.557 -0.1978 -0.3490  0.4500
 9699TIP3    H150588   0.102   0.736  11.650 -0.0950 -0.6469  0.3970
 9699TIP3    H250589   0.164   0.719  11.513 -0.5845 -1.1796  0.2353
 9700TIP3   OH250590   6.640   2.595  15.838 -0.5289  0.2503 -0.0069
 9700TIP3    H150591   6.711   2.647  15.875 -1.1751  0.8037  0.4686
 9700TIP3    H250592   6.561   2.646  15.854 -0.8380  0.5289 -2.2167
 9701TIP3   OH250593   1.989   6.250  14.553  0.7161  0.3132 -0.2111
 9701TIP3    H150594   1.942   6.248  14.636  1.0510  0.7853 -0.0055
 9701TIP3    H250595   1.991   6.158  14.524 -0.9106  0.3733 -0.5738
 9702TIP3   OH250596   2.110   2.790  15.042 -0.8163 -0.3281  0.0490
 9702TIP3    H150597   2.068   2.860  15.091 -2.6451 -1.9214  0.8765
 9702TIP3    H250598   2.038   2.736  15.009  0.4934 -2.0714 -0.1454
 9703TIP3   OH250599   2.313   5.768   0.673  0.1857 -0.1777  0.2436
 9703TIP3    H150600   2.231   5.776   0.624 -1.1458  1.4088  2.5452
 9703TIP3    H250601   2.344   5.858   0.682  0.5759 -0.4527  1.9535
 9704TIP3   OH250602   2.711   5.380  12.002  0.3411 -0.1924 -0.1576
 9704TIP3    H150603   2.641   5.425  11.956  0.6927 -1.2566 -1.8612
 9704TIP3    H250604   2.685   5.381  12.094 -2.0649 -0.8285 -0.7627
 9705TIP3   OH250605   4.238   0.816  12.890 -0.2018  0.5893  0.1178
 9705TIP3    H150606   4.317   0.829  12.943  1.1841 -0.7022 -1.5239
 9705TIP3    H250607   4.221   0.901  12.850 -0.3350  1.1610  1.3432
 9706TIP3   OH250608   1.035   4.498   5.937 -0.5682  0.3539  0.3925
 9706TIP3    H150609   1.110   4.550   5.909  0.5905 -1.2821  0.3196
 9706TIP3    H250610   1.047   4.487   6.032  0.6547 -1.8967  0.0401
 9707TIP3   OH250611   2.292   4.736   1.137  0.2647 -0.1658 -0.2024
 9707TIP3    H150612   2.366   4.698   1.184 -0.8469 -2.0627  0.1328
 9707TIP3    H250613   2.320   4.740   1.046 -0.1974 -3.8734 -0.6742
 9708TIP3   OH250614   3.562   4.858   2.309 -0.1170 -0.2184 -0.7586
 9708TIP3    H150615   3.489   4.807   2.345  1.0453 -2.1468 -0.9639
 9708TIP3    H250616   3.607   4.894   2.386 -0.8131  0.3087 -0.5942
 9709TIP3   OH250617   2.489   6.222   4.320  0.1596 -0.2712  0.1009
 9709TIP3    H150618   2.480   6.317   4.313 -0.9716 -0.3938 -0.3124
 9709TIP3    H250619   2.408   6.187   4.282  0.6063 -1.4037  0.1480
 9710TIP3   OH250620   4.642   5.776   3.096  0.3111 -0.3365 -0.1258
 9710TIP3    H150621   4.682   5.833   3.162  0.0693 -1.3052  0.8908
 9710TIP3    H250622   4.567   5.826   3.063  1.2317  0.7263 -0.6996
 9711TIP3   OH250623   2.525   3.835  15.374 -0.7144 -0.5194  0.5183
 9711TIP3    H150624   2.603   3.812  15.324 -0.4628  0.5985  0.3680
 9711TIP3    H250625   2.481   3.751  15.390 -0.9921 -0.8992 -1.8748
 9712TIP3   OH250626   3.021   1.985   5.218  0.0605  0.1039 -0.2987
 9712TIP3    H150627   3.072   1.982   5.299 -0.8172  0.1043  0.2586
 9712TIP3    H250628   2.970   2.065   5.225  1.3806  1.1285 -1.7253
 9713TIP3   OH250629   3.954   3.523   1.686 -0.2465 -0.1325  0.3828
 9713TIP3    H150630   3.963   3.556   1.776 -1.1445 -0.1449  0.4912
 9713TIP3    H250631   4.044   3.513   1.655  0.0722  0.2738  1.1341
 9714TIP3   OH250632   3.417   5.073   0.580 -0.4007 -0.2028 -0.3991
 9714TIP3    H150633   3.326   5.095   0.558  0.1227  1.4009 -1.0906
 9714TIP3    H250634   3.432   4.989   0.537 -0.6305  0.9790 -2.9710
 9715TIP3   OH250635   3.474   4.397  10.649  0.0766 -0.3424  0.2748
 9715TIP3    H150636   3.416   4.336  10.694 -0.4093 -0.5529 -0.6127
 9715TIP3    H250637   3.417   4.471  10.625  0.0893 -0.6552 -0.8092
 9716TIP3   OH250638   6.586   4.205   1.258  0.0765 -0.0755 -0.1337
 9716TIP3    H150639   6.562   4.272   1.323  1.1510 -0.2673  0.4959
 9716TIP3    H250640   6.554   4.123   1.296 -0.5451 -0.0207 -0.5307
 9717TIP3   OH250641   2.288   2.669  13.878 -0.0590 -0.1488 -0.3510
 9717TIP3    H150642   2.331   2.584  13.882  0.4239  0.1124  2.1916
 9717TIP3    H250643   2.208   2.658  13.929  0.1205  0.9546  0.2063
 9718TIP3   OH250644   0.063   3.213   5.744  0.0925  0.2745  0.5120
 9718TIP3    H150645   0.024   3.200   5.657  1.6325  1.7159 -0.4570
 9718TIP3    H250646   0.158   3.217   5.727  0.7554 -2.6749  2.7030
 9719TIP3   OH250647   4.626   5.360   0.503 -0.0666  0.5936 -0.3275
 9719TIP3    H150648   4.654   5.440   0.547 -0.7978  1.3757 -1.2488
 9719TIP3    H250649   4.706   5.309   0.492  0.4912  1.4295 -0.2108
 9720TIP3   OH250650   4.982   4.139   4.306 -0.4632  0.6039  0.0382
 9720TIP3    H150651   5.010   4.207   4.367 -0.6149  1.0755 -0.4114
 9720TIP3    H250652   4.905   4.100   4.347 -0.6142  0.9748  0.1124
 9721TIP3   OH250653   0.248   4.620  16.553  0.1944  1.2593  0.3436
 9721TIP3    H150654   0.338   4.637  16.583  1.0402 -0.1836 -1.2291
 9721TIP3    H250655   0.252   4.632  16.458 -1.7230  2.8279  0.3949
 9722TIP3   OH250656   3.090   0.962  12.891 -0.2793  0.2705  0.2615
 9722TIP3    H150657   3.086   0.890  12.954 -1.2547  0.1028  0.0207
 9722TIP3    H250658   3.021   1.022  12.919  0.9003  1.4283  0.8117
 9723TIP3   OH250659   4.808   6.535  14.440  0.1032  0.8627 -0.1877
 9723TIP3    H150660   4.723   6.495  14.456 -0.7102  2.4565 -0.2598
 9723TIP3    H250661   4.813   6.607  14.503  1.8370  0.2199  0.4651
 9724TIP3   OH250662   6.246   4.481  12.475 -0.1411  0.0905  0.3381
 9724TIP3    H150663   6.313   4.548  12.488  0.4821 -0.3870 -0.2694
 9724TIP3    H250664   6.198   4.509  12.397  1.6650 -1.3144 -1.3950
 9725TIP3   OH250665   1.787   5.187  14.265 -0.0075  0.1920 -0.2778
 9725TIP3    H150666   1.702   5.219  14.293 -0.1879 -0.5567  0.0516
 9725TIP3    H250667   1.771   5.097  14.237  0.9778 -0.5733  1.4479
 9726TIP3   OH250668   5.869   2.593   4.374 -0.3809  0.5053  0.1807
 9726TIP3    H150669   5.903   2.584   4.463 -0.5851  0.4602  0.2535
 9726TIP3    H250670   5.803   2.662   4.380 -2.4296 -1.4128  0.6437
 9727TIP3   OH250671   1.619   3.343  16.574 -0.4422  0.1811 -0.1975
 9727TIP3    H150672   1.681   3.271  16.584  0.0041  0.8173  2.6502
 9727TIP3    H250673   1.594   3.341  16.482  1.6497 -1.8567 -0.8187
 9728TIP3   OH250674   2.065   3.429   5.504 -0.1596  0.2139  0.0757
 9728TIP3    H150675   1.983   3.478   5.494  1.0341  2.0367 -1.1079
 9728TIP3    H250676   2.037   3.337   5.507 -2.2881  0.8208  0.2790
 9729TIP3   OH250677   2.360   6.550   2.853  0.0941  0.2969 -0.0154
 9729TIP3    H150678   2.443   6.594   2.835  0.5411 -1.2456 -2.0877
 9729TIP3    H250679   2.382   6.482   2.916  0.3389  0.0891 -0.3249
 9730TIP3   OH250680   5.669   4.664  10.997  0.2216 -0.0985  0.1347
 9730TIP3    H150681   5.754   4.701  10.976  0.1355  0.7744  1.2200
 9730TIP3    H250682   5.610   4.696  10.929  1.0571 -2.1909 -1.7176
 9731TIP3   OH250683   2.600   6.231  11.657 -0.6120 -0.0845  0.5081
 9731TIP3    H150684   2.638   6.184  11.731 -1.5246 -2.0094 -0.1681
 9731TIP3    H250685   2.507   6.207  11.659 -1.0110  1.2810 -0.2234
 9732TIP3   OH250686   1.394   6.425   2.602  0.1396  0.6022  0.3537
 9732TIP3    H150687   1.347   6.347   2.631  0.5882  0.1563 -0.1020
 9732TIP3    H250688   1.473   6.391   2.560 -0.6753  1.1839 -1.7615
 9733TIP3   OH250689   0.111   4.830   0.407 -0.3756 -0.1997  0.2693
 9733TIP3    H150690   0.176   4.762   0.389 -2.0241 -1.9609  0.7439
 9733TIP3    H250691   0.075   4.852   0.321 -0.5600 -0.6696  0.2245
 9734TIP3   OH250692   6.141   4.871  15.366  0.1376  0.3096  0.1147
 9734TIP3    H150693   6.104   4.832  15.445  0.3838 -0.3845 -0.1061
 9734TIP3    H250694   6.113   4.813  15.295  0.3009  0.6741 -0.2545
 9735TIP3   OH250695   3.457   1.668   5.735 -0.3166  0.2979 -0.0151
 9735TIP3    H150696   3.396   1.643   5.804  1.5909  1.3366  2.1807
 9735TIP3    H250697   3.540   1.625   5.759  0.4723  0.8974 -1.5281
 9736TIP3   OH250698   0.098   6.121   0.967 -0.8037  0.0418  0.4049
 9736TIP3    H150699   0.035   6.076   0.911  0.3072 -0.5228 -0.4124
 9736TIP3    H250700   0.050   6.137   1.049 -2.2732  0.4217 -0.5050
 9737TIP3   OH250701   4.036   0.776   5.109 -0.0791  0.0422  0.1792
 9737TIP3    H150702   4.083   0.807   5.187  1.0341 -1.3917  0.1234
 9737TIP3    H250703   3.954   0.742   5.143 -0.1355  0.5363  0.5653
 9738TIP3   OH250704   2.748   4.508   2.898 -0.0676 -0.3773 -0.5981
 9738TIP3    H150705   2.834   4.483   2.932 -0.9121  0.0848  2.0235
 9738TIP3    H250706   2.768   4.556   2.817  2.1533 -0.0912  0.0539
 9739TIP3   OH250707   5.663   3.461   2.675 -0.1274  0.5931  0.4852
 9739TIP3    H150708   5.706   3.546   2.662  0.2750  0.4516  0.8400
 9739TIP3    H250709   5.629   3.465   2.765  1.9887 -0.4865  1.4306
 9740TIP3   OH250710   5.298   2.130   0.598  0.2698  0.0764  0.1819
 9740TIP3    H150711   5.214   2.087   0.615 -0.3497  1.8457  1.9391
 9740TIP3    H250712   5.358   2.091   0.662  0.0463  0.7699  0.8391
 9741TIP3   OH250713   3.245   3.580   5.483  0.0072  0.1443  0.4703
 9741TIP3    H150714   3.333   3.543   5.480 -0.1387 -0.1627 -0.3642
 9741TIP3    H250715   3.236   3.615   5.572  1.4387  1.3411  0.1824
 9742TIP3   OH250716   4.150   3.434   6.092 -0.1286 -0.0360  0.7617
 9742TIP3    H150717   4.074   3.483   6.060  0.2127  0.7681  1.1347
 9742TIP3    H250718   4.180   3.485   6.168  1.6445  0.4681 -0.2179
 9743TIP3   OH250719   6.084   5.973  14.917 -0.2812 -0.1886  0.3057
 9743TIP3    H150720   6.026   5.903  14.947 -2.9985  1.3165 -1.0641
 9743TIP3    H250721   6.071   5.977  14.822  1.3286  0.9023  0.0831
 9744TIP3   OH250722   1.395   4.706  14.787  0.1514  0.2681 -0.2788
 9744TIP3    H150723   1.418   4.754  14.708 -2.3178 -0.0457 -1.2755
 9744TIP3    H250724   1.437   4.620  14.777  2.3794  1.2195  0.2711
 9745TIP3   OH250725   5.692   0.486   3.319 -0.5073  0.1814  0.1900
 9745TIP3    H150726   5.599   0.504   3.306 -0.0020  1.7915 -1.5705
 9745TIP3    H250727   5.722   0.552   3.381 -0.3783  0.1580  0.1543
 9746TIP3   OH250728   1.816   2.632  15.063 -0.3115  0.1922 -0.2329
 9746TIP3    H150729   1.803   2.553  15.010  1.8522 -0.4537  0.1194
 9746TIP3    H250730   1.748   2.627  15.130 -2.1301  0.2370 -1.9546
 9747TIP3   OH250731   3.336   2.013  13.147  0.0552  0.0672  0.0055
 9747TIP3    H150732   3.334   1.940  13.085  2.0168 -0.1126  0.0888
 9747TIP3    H250733   3.354   1.972  13.232  2.0838  0.6443 -0.0827
 9748TIP3   OH250734   1.762   5.003  12.374  0.5258  0.5273  0.2809
 9748TIP3    H150735   1.806   4.956  12.303  0.1232 -0.7497  0.8464
 9748TIP3    H250736   1.827   5.007  12.444  0.6661  1.1089  0.1203
 9749TIP3   OH250737   4.365   0.545   5.508 -0.1046 -0.2794  0.0264
 9749TIP3    H150738   4.441   0.499   5.472  1.0445 -0.2531  2.2721
 9749TIP3    H250739   4.334   0.489   5.580 -0.3082  1.1585  1.1021
 9750TIP3   OH250740   5.315   0.902   1.679 -0.1695  0.0047 -0.4760
 9750TIP3    H150741   5.309   0.994   1.706 -1.2234 -0.5994  1.4704
 9750TIP3    H250742   5.231   0.883   1.638 -0.2124 -0.2964 -0.2485
 9751TIP3   OH250743   1.553   3.082  16.387 -0.0448 -0.3560  0.6182
 9751TIP3    H150744   1.639   3.124  16.385  0.5341 -1.4718  0.9518
 9751TIP3    H250745   1.492   3.150  16.360  0.9025  0.5619  0.7201
 9752TIP3   OH250746   2.103   2.816   4.062  0.7328 -0.0270 -0.7741
 9752TIP3    H150747   2.156   2.839   4.139 -0.7577  0.5654  0.1267
 9752TIP3    H250748   2.153   2.748   4.018  2.9990  1.6055 -0.8702
 9753TIP3   OH250749   3.162   3.263  16.121  0.4458 -0.0939 -0.7901
 9753TIP3    H150750   3.073   3.231  16.106 -0.3309 -0.1129  2.9392
 9753TIP3    H250751   3.219   3.196  16.084 -1.1374 -1.9835  0.0317
 9754TIP3   OH250752   5.673   1.028  12.364 -0.2116 -0.3432 -0.2912
 9754TIP3    H150753   5.724   1.086  12.307  1.8610 -4.0015 -2.5369
 9754TIP3    H250754   5.585   1.027  12.326 -0.4585  1.5936  0.1253
 9755TIP3   OH250755   5.795   2.894  13.517  0.0797 -0.1386  0.0515
 9755TIP3    H150756   5.776   2.805  13.547  1.6200 -1.1495 -1.7620
 9755TIP3    H250757   5.888   2.893  13.496  0.1596  1.9640  0.0925
 9756TIP3   OH250758   0.794   1.729  13.847 -0.0667 -0.3365 -0.1756
 9756TIP3    H150759   0.721   1.790  13.848 -1.6661 -2.1668  0.0257
 9756TIP3    H250760   0.870   1.783  13.822 -1.4547  1.6092 -0.4224
 9757TIP3   OH250761   2.818   3.840   4.379  1.1507 -0.0427 -0.2196
 9757TIP3    H150762   2.822   3.844   4.283  0.8204 -1.7900 -0.3422
 9757TIP3    H250763   2.848   3.751   4.400  1.0730  0.2754  1.2874
 9758TIP3   OH250764   1.784   1.747   3.785  0.4334 -0.2871  0.4798
 9758TIP3    H150765   1.813   1.656   3.785  0.7656 -0.2247 -1.3540
 9758TIP3    H250766   1.764   1.766   3.877 -1.4676 -2.7863  0.7007
 9759TIP3   OH250767   0.036   4.138   4.322  0.0426 -0.4450 -0.2332
 9759TIP3    H150768   0.012   4.047   4.310  2.1688 -1.0914 -0.0383
 9759TIP3    H250769   0.090   4.138   4.401  0.0663  0.9858 -0.2198
 9760TIP3   OH250770   0.101   2.258  15.080 -1.0116  0.7074  0.1699
 9760TIP3    H150771   0.084   2.311  15.002  0.8909 -0.8153 -1.3791
 9760TIP3    H250772   0.132   2.175  15.047  1.4421  0.5239  2.5527
 9761TIP3   OH250773   3.282   4.114  16.018  0.2006  0.5910  0.6162
 9761TIP3    H150774   3.332   4.144  16.094  0.4550 -0.1124  0.7261
 9761TIP3    H250775   3.191   4.115  16.046  0.1417  1.8093  0.4372
 9762TIP3   OH250776   2.299   2.881  16.904  0.4221  0.3768  0.3960
 9762TIP3    H150777   2.221   2.863  16.956 -0.2660  0.7487 -0.4699
 9762TIP3    H250778   2.354   2.936  16.960 -1.3330  2.7068 -0.0490
 9763TIP3   OH250779   4.146   4.706   0.100 -0.1958  0.3497 -0.8613
 9763TIP3    H150780   4.219   4.677   0.045  1.0200  0.1532  0.7590
 9763TIP3    H250781   4.187   4.766   0.163 -1.1160 -0.8955  1.0167
 9764TIP3   OH250782   5.609   1.309   0.584  0.6606 -0.3882  0.2491
 9764TIP3    H150783   5.608   1.380   0.648 -0.1060 -0.7017  0.6050
 9764TIP3    H250784   5.685   1.326   0.530 -0.6670  1.9332 -1.0375
 9765TIP3   OH250785   4.827   3.152   4.555 -0.0001  0.1477 -0.1714
 9765TIP3    H150786   4.799   3.097   4.481 -0.6031  1.2356 -0.7749
 9765TIP3    H250787   4.746   3.193   4.586  0.0244 -1.2694  1.9535
 9766TIP3   OH250788   2.472   5.365  15.069 -0.1522  0.6786 -0.2482
 9766TIP3    H150789   2.501   5.283  15.109 -0.3244  0.4149 -0.6570
 9766TIP3    H250790   2.420   5.338  14.994 -2.0946  1.1142  0.8728
 9767TIP3   OH250791   6.151   2.033   1.473  0.0467 -0.2678 -0.5436
 9767TIP3    H150792   6.071   2.059   1.520 -0.2623 -1.6511 -0.2508
 9767TIP3    H250793   6.222   2.075   1.522 -0.3757 -0.5801  0.3711
 9768TIP3   OH250794   4.749   0.536  10.666  0.4093  0.0095  0.4949
 9768TIP3    H150795   4.836   0.573  10.648  0.0458  1.0052  0.7335
 9768TIP3    H250796   4.694   0.612  10.683 -0.7622 -0.5258 -0.6912
 9769TIP3   OH250797   4.286   0.678  12.239 -0.0987 -0.4595 -0.4295
 9769TIP3    H150798   4.206   0.630  12.217  0.6586 -1.3450 -1.3100
 9769TIP3    H250799   4.357   0.625  12.204  0.9337  0.0229  0.8507
 9770TIP3   OH250800   1.037   3.353   6.222  0.2605  0.0780  0.0215
 9770TIP3    H150801   1.076   3.377   6.306 -0.6493 -0.3561  0.5808
 9770TIP3    H250802   1.030   3.436   6.175 -0.1781  0.4957  0.7930
 9771TIP3   OH250803   1.150   2.536   3.557 -0.8274 -0.3808  0.2344
 9771TIP3    H150804   1.151   2.462   3.618 -0.1292 -0.3701  0.2441
 9771TIP3    H250805   1.231   2.526   3.506 -1.1947 -0.1565 -0.4126
 9772TIP3   OH250806   5.841   3.497  11.343 -0.4970 -0.3900 -0.5147
 9772TIP3    H150807   5.864   3.417  11.390 -0.7690 -0.2728 -0.1751
 9772TIP3    H250808   5.868   3.481  11.253 -0.5342 -0.8574 -0.4440
 9773TIP3   OH250809   3.091   0.043  17.236  0.1292 -0.9180  0.2772
 9773TIP3    H150810   3.098   0.125  17.286 -1.4460 -0.3908 -0.2770
 9773TIP3    H250811   3.049  -0.018  17.296  1.7882 -1.5191  0.8686
 9774TIP3   OH250812   3.044   6.192   1.831  0.0673 -0.0059  0.5825
 9774TIP3    H150813   3.128   6.157   1.800 -1.8370 -2.6289 -2.2121
 9774TIP3    H250814   3.013   6.247   1.759 -0.6131  1.0397  1.6386
 9775TIP3   OH250815   4.826   3.418   5.888 -0.1350 -0.3495  0.9522
 9775TIP3    H150816   4.738   3.412   5.851  0.8826 -1.9370 -1.4906
 9775TIP3    H250817   4.825   3.358   5.963 -1.2268 -0.0010  1.2250
 9776TIP3   OH250818   0.484   1.380   5.293  0.3416 -0.3683 -0.0768
 9776TIP3    H150819   0.501   1.457   5.348 -1.2722  0.2445 -0.3896
 9776TIP3    H250820   0.407   1.339   5.332 -1.0772  0.2978 -2.0198
 9777TIP3   OH250821   6.301   6.140   3.061 -0.0536  0.2543 -0.2326
 9777TIP3    H150822   6.206   6.135   3.077  0.1954 -1.4465  1.0560
 9777TIP3    H250823   6.334   6.193   3.134 -0.0117  1.0145 -0.7919
 9778TIP3   OH250824   3.727   5.266  15.958  0.0820  0.5282 -0.6409
 9778TIP3    H150825   3.788   5.268  15.884  1.2599 -2.0335  0.1735
 9778TIP3    H250826   3.772   5.215  16.025 -2.5351 -0.5977  0.3819
 9779TIP3   OH250827   0.594   3.146  16.937  0.2849 -0.6062  0.4292
 9779TIP3    H150828   0.672   3.148  16.881 -0.0939 -2.3129 -0.2067
 9779TIP3    H250829   0.524   3.116  16.880 -0.9791  1.3362  0.8789
 9780TIP3   OH250830   2.114   2.135   2.214  0.0085 -0.2770  0.4909
 9780TIP3    H150831   2.163   2.200   2.164 -1.4195  1.3984  1.1827
 9780TIP3    H250832   2.121   2.055   2.163  0.4794  0.8071 -1.2177
 9781TIP3   OH250833   0.530   5.443  14.591  0.3355  0.0274  0.7496
 9781TIP3    H150834   0.527   5.535  14.568  0.8045 -0.0989  0.1628
 9781TIP3    H250835   0.468   5.401  14.530  2.6260 -0.5146 -1.3995
 9782TIP3   OH250836   1.486   4.741   3.047 -0.3975 -0.0441 -0.5218
 9782TIP3    H150837   1.418   4.783   3.100 -0.4505  0.4230 -0.9505
 9782TIP3    H250838   1.491   4.795   2.968  0.8504  0.2481 -0.2700
 9783TIP3   OH250839   3.784   1.401  16.651 -0.3848 -0.3851  0.5010
 9783TIP3    H150840   3.764   1.376  16.741  0.6531 -0.4235  0.7267
 9783TIP3    H250841   3.705   1.447  16.621 -1.4014 -1.8210  0.8571
 9784TIP3   OH250842   1.511   3.291  14.117 -0.6750 -0.1189  0.2816
 9784TIP3    H150843   1.443   3.341  14.163  0.6154  2.2018 -0.1506
 9784TIP3    H250844   1.560   3.247  14.187 -0.9152  0.4743  0.8349
 9785TIP3   OH250845   0.690   0.598  13.494  0.1862  0.6191 -0.2529
 9785TIP3    H150846   0.683   0.662  13.565 -1.4580  1.9476 -1.5399
 9785TIP3    H250847   0.780   0.566  13.500  0.4176  1.4895  1.7338
 9786TIP3   OH250848   5.903   4.185  12.480 -0.5589  0.0719  0.1295
 9786TIP3    H150849   5.832   4.237  12.444 -1.4350 -0.5598  0.9029
 9786TIP3    H250850   5.865   4.143  12.557 -0.3491 -2.8334 -1.2252
 9787TIP3   OH250851   5.430   4.447  11.658  0.3789  0.0892  0.5562
 9787TIP3    H150852   5.494   4.503  11.613  1.5087 -0.6825  1.1395
 9787TIP3    H250853   5.366   4.425  11.591  1.5224 -0.2769 -0.4615
 9788TIP3   OH250854   4.511   5.198  12.978  0.4320 -0.2715 -0.3292
 9788TIP3    H150855   4.424   5.169  12.950  0.0856 -0.8877  1.2341
 9788TIP3    H250856   4.509   5.293  12.970 -0.6273 -0.2272  0.2548
 9789TIP3   OH250857   4.416   4.609  11.504 -0.4897  0.0158  0.1950
 9789TIP3    H150858   4.487   4.660  11.465 -1.4441  0.4867 -0.9929
 9789TIP3    H250859   4.460   4.548  11.563  1.0123 -0.3974 -1.2654
 9790TIP3   OH250860   3.524   4.004   6.087  0.5323  0.2039  0.0980
 9790TIP3    H150861   3.513   4.096   6.062 -0.2841  0.5876  1.7508
 9790TIP3    H250862   3.554   4.008   6.177  2.8111 -1.1329 -0.5283
 9791TIP3   OH250863   4.010   3.666   5.129  0.8696 -0.0910  0.5565
 9791TIP3    H150864   4.073   3.639   5.196  1.5215 -1.5794 -0.5983
 9791TIP3    H250865   4.012   3.762   5.132  2.0237 -0.1177  1.6146
 9792TIP3   OH250866   3.531   5.714  14.227 -0.1757 -0.2900 -0.1461
 9792TIP3    H150867   3.540   5.673  14.141  1.0426 -0.5245  0.0799
 9792TIP3    H250868   3.437   5.711  14.245 -0.2268 -2.1345 -0.5513
 9793TIP3   OH250869   5.398   0.198   5.626 -0.7622 -0.2012  0.0976
 9793TIP3    H150870   5.397   0.167   5.717  0.6986  0.2000  0.2701
 9793TIP3    H250871   5.305   0.212   5.605 -1.2384 -1.6978  1.0236
 9794TIP3   OH250872   2.609   4.741   4.984 -0.5376  1.2761 -0.8287
 9794TIP3    H150873   2.604   4.750   4.889  1.2611  0.0105 -1.0827
 9794TIP3    H250874   2.602   4.831   5.017  1.3578  2.0249 -2.3131
 9795TIP3   OH250875   4.528   3.412  14.091 -0.1913  0.3164 -0.3650
 9795TIP3    H150876   4.529   3.417  14.186  0.3941  0.9779 -0.3965
 9795TIP3    H250877   4.584   3.338  14.070 -1.5422 -0.7959 -0.1605
 9796TIP3   OH250878   0.227   3.157  16.055  0.2884  0.6563 -0.0308
 9796TIP3    H150879   0.197   3.237  16.098  0.5709 -0.5437  2.6559
 9796TIP3    H250880   0.171   3.088  16.091  0.8590 -0.5358 -1.3027
 9797TIP3   OH250881   5.578   1.424   1.301  0.4864  0.4757  0.5474
 9797TIP3    H150882   5.582   1.425   1.397  3.4579 -2.0678  0.6273
 9797TIP3    H250883   5.485   1.419   1.281 -0.3012  2.2991  3.2084
 9798TIP3   OH250884   5.982   1.226  12.900  0.1776 -0.8217  0.2244
 9798TIP3    H150885   6.011   1.143  12.861  0.2645 -0.3299 -0.7728
 9798TIP3    H250886   6.043   1.291  12.867  0.2420 -0.3743  1.1794
 9799TIP3   OH250887   3.519   0.457  12.075  0.5437 -0.4826  0.4110
 9799TIP3    H150888   3.549   0.547  12.066  0.7031 -0.6580 -1.0694
 9799TIP3    H250889   3.429   0.458  12.044  0.5936 -0.8601  0.2464
 9800TIP3   OH250890   2.714   0.595  11.842  0.1316  0.2304 -0.1111
 9800TIP3    H150891   2.638   0.607  11.899  0.2773  3.2667 -0.4124
 9800TIP3    H250892   2.694   0.647  11.764  1.0519 -1.7683 -1.7737
 9801TIP3   OH250893   2.998   6.239   2.716  0.3337 -0.0731 -0.0205
 9801TIP3    H150894   3.065   6.276   2.659 -0.0113 -0.3885 -0.6303
 9801TIP3    H250895   2.934   6.310   2.726 -0.4326 -0.5348 -1.3586
 9802TIP3   OH250896   0.844   4.752   6.340  0.0297 -0.3640 -0.0192
 9802TIP3    H150897   0.807   4.672   6.304  0.9910 -0.7137 -0.2504
 9802TIP3    H250898   0.938   4.736   6.343  0.0969  0.1778  1.3716
 9803TIP3   OH250899   0.199   6.373   0.633  0.3526 -0.4645  0.0154
 9803TIP3    H150900   0.141   6.303   0.603 -0.0656 -0.7121  1.3277
 9803TIP3    H250901   0.230   6.415   0.553 -0.9145 -0.9157 -0.7323
 9804TIP3   OH250902   4.182   0.338   2.022  0.1475  0.6705  0.1022
 9804TIP3    H150903   4.119   0.383   2.077 -0.3171  1.0941 -0.7558
 9804TIP3    H250904   4.134   0.261   1.989 -0.1071  1.2657 -0.9580
 9805TIP3   OH250905   4.060   4.702   4.800  0.4688  0.2141 -0.0913
 9805TIP3    H150906   4.040   4.613   4.828 -0.8774  1.6324  4.1208
 9805TIP3    H250907   3.980   4.732   4.756  0.2583 -0.0609  0.1090
 9806TIP3   OH250908   1.697   4.446  12.478  0.1622 -0.4463 -0.6732
 9806TIP3    H150909   1.682   4.422  12.570  1.0291  0.4482 -0.2735
 9806TIP3    H250910   1.716   4.362  12.435 -1.9987 -1.1036 -0.4357
 9807TIP3   OH250911   2.206   4.698  13.775  0.2306  0.1809 -0.5825
 9807TIP3    H150912   2.149   4.692  13.699  0.6486  0.9510 -0.9627
 9807TIP3    H250913   2.148   4.724  13.847 -1.0131 -4.3456  0.3722
 9808TIP3   OH250914   6.076   4.548   3.218  0.3377 -0.2964  0.4046
 9808TIP3    H150915   5.982   4.567   3.218  0.4203  0.2091 -1.2294
 9808TIP3    H250916   6.086   4.471   3.163  0.9111 -0.2039  0.3699
 9809TIP3   OH250917   1.851   0.644  15.171  0.7108 -0.1645 -0.0027
 9809TIP3    H150918   1.759   0.668  15.155  0.5892 -0.7264 -0.1866
 9809TIP3    H250919   1.893   0.652  15.085  0.0262 -3.3218 -0.7556
 9810TIP3   OH250920   4.508   5.038   4.657 -0.9341 -0.5989  0.4763
 9810TIP3    H150921   4.455   4.960   4.641 -0.7466 -0.6696  0.1837
 9810TIP3    H250922   4.558   5.018   4.735 -0.4468 -1.0069  0.0659
 9811TIP3   OH250923   4.436   0.997  14.875  0.8179  0.3064  0.2982
 9811TIP3    H150924   4.405   0.913  14.909  0.3986 -0.4197 -1.7464
 9811TIP3    H250925   4.383   1.013  14.797  0.4197  2.8351  1.0019
 9812TIP3   OH250926   1.762   3.559   2.569 -0.1254 -0.2341  0.3014
 9812TIP3    H150927   1.759   3.636   2.511 -0.8530  0.8249  1.6702
 9812TIP3    H250928   1.795   3.594   2.652  0.6481 -1.6570  0.6124
 9813TIP3   OH250929   1.495   2.196  14.069 -0.3906  0.0913 -0.6565
 9813TIP3    H150930   1.567   2.145  14.107 -0.5834  0.9324  0.9130
 9813TIP3    H250931   1.434   2.209  14.141 -0.9509  1.4632 -1.3373
 9814TIP3   OH250932   2.363   4.404  12.266 -0.3582 -0.7736  0.8044
 9814TIP3    H150933   2.287   4.349  12.248  1.2328 -2.2918 -2.0128
 9814TIP3    H250934   2.410   4.357  12.335  0.0826 -2.1403 -0.3603
 9815TIP3   OH250935   3.175   2.113  16.632  0.3778  0.0772  0.1756
 9815TIP3    H150936   3.264   2.146  16.621  0.5249 -0.5259 -0.5104
 9815TIP3    H250937   3.119   2.180  16.594  0.5085  0.6247  0.9304
 9816TIP3   OH250938   6.429   6.798   2.899  1.0018 -0.8410  0.4497
 9816TIP3    H150939   6.343   6.834   2.923  1.5827  0.8604  0.1184
 9816TIP3    H250940   6.412   6.742   2.824  0.0366 -1.3340  1.0237
 9817TIP3   OH250941   0.357   2.238  17.021  0.1830  0.1123 -0.0660
 9817TIP3    H150942   0.375   2.306  16.955  1.6151 -1.0924 -0.9752
 9817TIP3    H250943   0.442   2.198  17.038 -0.7207 -1.9988 -0.1862
 9818TIP3   OH250944   3.848   0.426   4.712  0.3900  0.2349  0.1005
 9818TIP3    H150945   3.918   0.479   4.675  0.0361  0.8996  0.3761
 9818TIP3    H250946   3.893   0.350   4.751  0.8523  0.0971 -0.6921
 9819TIP3   OH250947   3.014   1.146   5.404 -0.1721 -0.9496  0.1628
 9819TIP3    H150948   3.064   1.228   5.402 -1.1118 -0.2062  3.0539
 9819TIP3    H250949   2.923   1.173   5.410 -0.4632 -2.1395  1.9195
 9820TIP3   OH250950   6.000   4.543   2.868 -0.4154  0.3513  0.9833
 9820TIP3    H150951   5.923   4.573   2.819 -0.2690 -1.2269 -0.2799
 9820TIP3    H250952   6.068   4.608   2.848 -1.0329  1.0320  1.0528
 9821TIP3   OH250953   0.842   2.470  11.694  0.1800 -0.4811 -0.4829
 9821TIP3    H150954   0.853   2.558  11.731  1.4889 -0.9322  0.2396
 9821TIP3    H250955   0.899   2.469  11.617 -0.5613 -0.4144 -1.0556
 9822TIP3   OH250956   3.820   6.669   3.469 -0.2936  0.1834  0.0148
 9822TIP3    H150957   3.730   6.701   3.460 -0.5229 -0.7564 -1.2330
 9822TIP3    H250958   3.814   6.574   3.457  1.0039  0.2378 -1.4868
 9823TIP3   OH250959   1.791   5.245  13.936  0.0885 -0.1457  0.0735
 9823TIP3    H150960   1.715   5.260  13.992 -0.8693 -2.1096 -0.5957
 9823TIP3    H250961   1.864   5.287  13.982 -1.3251  1.5193  0.8781
 9824TIP3   OH250962   3.197   6.167   0.992 -0.1265 -0.5665  0.2890
 9824TIP3    H150963   3.239   6.244   0.953  0.3163 -1.4524 -1.0598
 9824TIP3    H250964   3.160   6.120   0.917 -0.2889 -1.7249  1.0738
 9825TIP3   OH250965   4.201   6.133  14.944  0.3915  0.0728  0.2768
 9825TIP3    H150966   4.238   6.117  14.856 -0.7576  0.6551 -0.3261
 9825TIP3    H250967   4.245   6.212  14.974 -1.0099  1.3449 -0.8551
 9826TIP3   OH250968   1.708   2.117  14.880 -0.3298  0.1636 -0.3277
 9826TIP3    H150969   1.787   2.069  14.905 -0.4596  0.6761  1.2032
 9826TIP3    H250970   1.711   2.197  14.933 -1.4444  0.5928 -0.8819
 9827TIP3   OH250971   6.656   6.363   0.935  0.3459  0.4929  0.3149
 9827TIP3    H150972   6.740   6.407   0.921 -0.0904  1.4405  0.5780
 9827TIP3    H250973   6.657   6.336   1.026  0.0481  1.2455  0.5552
 9828TIP3   OH250974   1.148   0.149   4.973 -0.1395  0.1700  0.5398
 9828TIP3    H150975   1.143   0.177   4.882 -0.0984  0.4870  0.6325
 9828TIP3    H250976   1.187   0.224   5.019 -0.0822 -0.0188  0.8028
 9829TIP3   OH250977   5.032   4.111  15.442  0.1950 -0.3497 -0.1088
 9829TIP3    H150978   5.032   4.201  15.475 -1.2929  0.0319 -1.0638
 9829TIP3    H250979   5.090   4.114  15.366  4.7924 -1.5380  2.9482
 9830TIP3   OH250980   1.091   2.409  15.084 -0.7612  0.4150  0.2775
 9830TIP3    H150981   1.025   2.340  15.076 -0.2958 -0.0153  0.1449
 9830TIP3    H250982   1.129   2.416  14.997 -1.1846  1.2247  0.1504
 9831TIP3   OH250983   1.276   2.483  11.870 -0.7077 -0.0426  0.0326
 9831TIP3    H150984   1.293   2.519  11.783 -1.1311 -0.2693 -0.1506
 9831TIP3    H250985   1.214   2.545  11.909  1.8358  1.8076  1.4182
 9832TIP3   OH250986   6.225   4.165  11.891 -0.4259  0.1309  0.0315
 9832TIP3    H150987   6.164   4.141  11.820 -1.0406 -0.2343  0.6689
 9832TIP3    H250988   6.309   4.178  11.847 -1.3735  2.6928 -1.1774
 9833TIP3   OH250989   4.534   2.311  16.808  0.9546  0.3748  0.1873
 9833TIP3    H150990   4.617   2.269  16.785  1.7013  2.1088 -0.5130
 9833TIP3    H250991   4.529   2.303  16.903  1.0220 -1.3118  0.0675
 9834TIP3   OH250992   5.469   0.121   4.702  0.5689  0.2200  0.1554
 9834TIP3    H150993   5.504   0.116   4.613  2.3105  1.2486  0.7211
 9834TIP3    H250994   5.544   0.146   4.756 -0.6838  0.7822  1.7420
 9835TIP3   OH250995   3.628   5.818  12.513  0.0721  0.7876  0.4480
 9835TIP3    H150996   3.623   5.787  12.422  1.7585  0.0399  0.5757
 9835TIP3    H250997   3.720   5.842  12.525 -0.3820  2.0915  1.5948
 9836TIP3   OH250998   6.738   6.538  16.858  0.0158 -0.9448  0.5353
 9836TIP3    H150999   6.792   6.586  16.921  0.9224 -0.1659 -0.7838
 9836TIP3    H251000   6.797   6.519  16.786 -1.3659 -0.4895 -0.7641
 9837TIP3   OH251001   2.201   2.276   6.152 -0.0818 -0.0690  0.7006
 9837TIP3    H151002   2.289   2.304   6.176 -0.5597  0.4024  1.9551
 9837TIP3    H251003   2.152   2.275   6.234 -1.8296  1.7974 -0.2301
 9838TIP3   OH251004   2.322   1.087  10.824  0.0479 -0.0673  0.3203
 9838TIP3    H151005   2.322   1.004  10.870  0.8220  0.4626  1.3221
 9838TIP3    H251006   2.270   1.071  10.745 -3.2455 -0.4345  2.3604
 9839TIP3   OH251007   2.452   0.812  16.815  0.3734  0.0091  0.9851
 9839TIP3    H151008   2.438   0.864  16.736 -0.4133  0.7751  1.6128
 9839TIP3    H251009   2.547   0.803  16.821  0.4212 -0.9831 -0.6232
 9840TIP3   OH251010   2.900   2.086  15.460  0.1893 -0.0253 -0.3521
 9840TIP3    H151011   2.972   2.144  15.485  1.0598 -1.9744  2.0862
 9840TIP3    H251012   2.824   2.122  15.506  0.1638  0.5085 -0.7923
 9841TIP3   OH251013   6.129   0.193   3.492 -0.6060  0.2084  0.4538
 9841TIP3    H151014   6.205   0.252   3.491 -1.1528  0.9529  1.2864
 9841TIP3    H251015   6.079   0.220   3.568 -1.2619 -0.8646  0.4223
 9842TIP3   OH251016   6.561   4.850  15.022 -0.6997 -0.7967  0.0714
 9842TIP3    H151017   6.503   4.776  15.038 -0.8742 -0.2799  2.1267
 9842TIP3    H251018   6.567   4.856  14.927 -0.9891 -3.1932 -0.1538
 9843TIP3   OH251019   0.120   4.046  11.897  0.3326  0.1342  0.1864
 9843TIP3    H151020   0.113   4.102  11.819 -2.0235 -0.3367 -0.0166
 9843TIP3    H251021   0.163   4.102  11.962 -0.9357  1.8169 -0.3475
 9844TIP3   OH251022   1.121   5.535  14.550 -0.5452 -0.0808  0.4562
 9844TIP3    H151023   1.160   5.503  14.631  1.1673 -0.8519 -0.5999
 9844TIP3    H251024   1.046   5.478  14.535 -0.4202 -0.4240  1.1002
 9845TIP3   OH251025   4.291   5.447  15.858  0.1682  0.3457  0.0958
 9845TIP3    H151026   4.350   5.372  15.862  1.4129  1.2339 -0.9007
 9845TIP3    H251027   4.302   5.490  15.943 -0.1588 -0.2879  0.4706
 9846TIP3   OH251028   4.042   2.192   5.208 -0.1728 -0.7303  0.6775
 9846TIP3    H151029   3.983   2.236   5.269 -0.1701  0.0047  0.1710
 9846TIP3    H251030   3.985   2.141   5.151 -0.2917 -0.3168  0.4240
 9847TIP3   OH251031   6.752   6.241   1.705  0.1005  0.2715 -0.1008
 9847TIP3    H151032   6.689   6.257   1.776 -0.3731  0.1854 -0.4918
 9847TIP3    H251033   6.754   6.323   1.657  0.3666  0.3061 -0.0285
 9848TIP3   OH251034   5.598   3.347   6.452 -0.1687 -0.3252  0.2577
 9848TIP3    H151035   5.577   3.426   6.502 -0.5670  1.0048 -1.8748
 9848TIP3    H251036   5.676   3.311   6.494  0.2801  1.4486  1.0056
 9849TIP3   OH251037   0.439   1.270   1.919 -0.8203 -0.3977 -0.2012
 9849TIP3    H151038   0.376   1.300   1.985 -0.1465 -0.4933  0.4988
 9849TIP3    H251039   0.404   1.186   1.890 -1.4752 -0.0451 -0.4631
 9850TIP3   OH251040   2.649   4.096   5.556  1.1331 -0.1724  0.3127
 9850TIP3    H151041   2.666   4.129   5.468 -0.9620  1.4814  0.4375
 9850TIP3    H251042   2.661   4.002   5.550  3.6402  0.1499 -1.0450
 9851TIP3   OH251043   5.345   0.070  11.808  0.3442 -0.0111 -1.1642
 9851TIP3    H151044   5.359  -0.009  11.859 -0.2279  0.9197  0.5120
 9851TIP3    H251045   5.424   0.123  11.823 -1.3596  1.9288  2.0527
 9852TIP3   OH251046   0.676   2.366  13.969  0.2622 -0.3585 -0.0421
 9852TIP3    H151047   0.744   2.384  13.904 -0.2721 -1.5997 -0.9708
 9852TIP3    H251048   0.724   2.360  14.052  1.1406 -0.1679 -0.5173
 9853TIP3   OH251049   6.145   4.323  16.816 -0.0399 -0.1167  0.3944
 9853TIP3    H151050   6.119   4.359  16.901 -0.1255 -1.9209  1.1776
 9853TIP3    H251051   6.232   4.359  16.801  0.2388 -0.2365  1.5594
 9854TIP3   OH251052   3.013   5.126   5.308 -0.7907 -0.3476 -0.2906
 9854TIP3    H151053   3.089   5.127   5.250 -1.1609 -0.4041 -0.7829
 9854TIP3    H251054   3.043   5.170   5.387 -0.3893  0.0771 -0.6683
 9855TIP3   OH251055   5.519   5.868  16.087  0.0416 -0.1514 -0.2268
 9855TIP3    H151056   5.451   5.931  16.112 -0.8940 -0.7542 -1.1480
 9855TIP3    H251057   5.519   5.872  15.991  0.2796 -1.2270 -0.2737
 9856TIP3   OH251058   3.589   5.099  16.800 -0.7051  0.3369  0.0411
 9856TIP3    H151059   3.530   5.159  16.755  0.0788  0.0343 -1.4282
 9856TIP3    H251060   3.652   5.072  16.734 -0.7055 -1.6930  0.8000
 9857TIP3   OH251061   2.670   3.412   1.893 -0.4401  0.1161 -0.2671
 9857TIP3    H151062   2.748   3.357   1.891 -0.2209  0.2631  2.0665
 9857TIP3    H251063   2.690   3.484   1.834  1.1947  0.1345  0.2564
 9858TIP3   OH251064   4.709   1.069   2.225  0.6495 -0.3891 -0.4765
 9858TIP3    H151065   4.749   1.061   2.138 -2.8830  0.6655 -2.3563
 9858TIP3    H251066   4.671   0.982   2.242  1.4968 -0.6522  0.1729
 9859TIP3   OH251067   6.155   4.667   5.389 -0.2099 -0.4612 -0.1547
 9859TIP3    H151068   6.138   4.580   5.425  1.9575 -1.0769 -0.4957
 9859TIP3    H251069   6.106   4.727   5.445 -1.1197 -1.8350  0.5475
 9860TIP3   OH251070   4.024   0.174  12.722  0.0614  0.0469  0.2274
 9860TIP3    H151071   4.085   0.235  12.762  1.5309 -0.2530 -1.4491
 9860TIP3    H251072   4.039   0.092  12.769 -0.0883  0.3307  0.7780
 9861TIP3   OH251073   5.843   4.998  15.230 -1.0262 -0.3046  0.0504
 9861TIP3    H151074   5.841   4.911  15.270  0.6471  0.4701  2.0113
 9861TIP3    H251075   5.903   4.989  15.156  1.0730 -0.3946  1.6414
 9862TIP3   OH251076   0.674   3.964   4.488  0.0681  0.5270 -0.4327
 9862TIP3    H151077   0.588   3.958   4.531  0.0252  0.7336 -0.4886
 9862TIP3    H251078   0.700   3.873   4.474  0.4416  0.4251  0.7527
 9863TIP3   OH251079   1.453   1.953   5.681  0.2377  0.2175  0.7498
 9863TIP3    H151080   1.515   1.881   5.689  1.1855  0.8305 -0.6985
 9863TIP3    H251081   1.407   1.954   5.765  0.2770 -1.9693  0.8451
 9864TIP3   OH251082   0.166   3.528  10.934 -0.5949  0.3654  0.0728
 9864TIP3    H151083   0.170   3.460  11.000 -0.3172  0.6428  0.3487
 9864TIP3    H251084   0.209   3.490  10.857 -0.5827  0.1770  0.1747
 9865TIP3   OH251085   3.604   4.037  11.750  0.2806  0.6438 -0.4281
 9865TIP3    H151086   3.543   4.111  11.751  0.4334  0.7774 -0.7481
 9865TIP3    H251087   3.573   3.982  11.678  0.2198  0.4364 -0.2468
 9866TIP3   OH251088   0.162   0.732   1.134 -0.2371 -0.1342  0.2735
 9866TIP3    H151089   0.215   0.766   1.063  0.3778 -0.0548  0.7572
 9866TIP3    H251090   0.104   0.804   1.158 -1.0808 -0.4503 -0.7262
 9867TIP3   OH251091   4.137   4.378   4.276  0.2371 -0.0727 -0.2422
 9867TIP3    H151092   4.088   4.327   4.212 -1.6833  0.9915  0.3058
 9867TIP3    H251093   4.087   4.370   4.357  0.7915  1.2912  0.2733
 9868TIP3   OH251094   2.979   0.415  12.431 -0.2703 -0.2385  0.5838
 9868TIP3    H151095   2.917   0.480  12.398 -1.0639 -0.6349  1.2611
 9868TIP3    H251096   3.059   0.464  12.446 -0.4937  0.3396 -0.0483
 9869TIP3   OH251097   3.451   5.061  11.800  0.0053 -0.1724 -0.4092
 9869TIP3    H151098   3.530   5.110  11.823 -0.3637  0.0280  0.4462
 9869TIP3    H251099   3.385   5.092  11.861 -1.0735  0.5356 -1.8628
 9870TIP3   OH251100   3.140   6.380  10.504  0.0353 -0.2846 -1.0270
 9870TIP3    H151101   3.068   6.412  10.559 -0.2069  0.6543 -1.8533
 9870TIP3    H251102   3.097   6.325  10.438 -0.0715  0.8634 -1.9718
 9871TIP3   OH251103   4.344   0.191   4.359  0.4810 -0.5153 -1.2646
 9871TIP3    H151104   4.386   0.106   4.343  0.2086 -0.6525 -1.2678
 9871TIP3    H251105   4.410   0.243   4.405  0.9610 -0.4291 -2.0327
 9872TIP3   OH251106   4.025   2.187  14.143  0.0505  0.0713 -0.5748
 9872TIP3    H151107   4.103   2.191  14.197 -0.9171 -0.1286  0.8811
 9872TIP3    H251108   4.040   2.252  14.074  0.4508  1.8360  1.0989
 9873TIP3   OH251109   4.483   4.746   3.991 -0.0020 -0.0880  0.1516
 9873TIP3    H151110   4.538   4.804   4.043  1.6277  0.5507 -2.1166
 9873TIP3    H251111   4.481   4.664   4.040  1.5631  0.4328  1.1462
 9874TIP3   OH251112   5.726   2.037  12.154  0.0655  0.1974 -0.5583
 9874TIP3    H151113   5.798   1.989  12.196 -0.1255 -1.6623 -2.2077
 9874TIP3    H251114   5.710   1.989  12.073 -1.9921  1.5202 -0.9931
 9875TIP3   OH251115   0.247   3.500   0.691 -0.3445 -0.1073 -0.3221
 9875TIP3    H151116   0.168   3.516   0.743  1.7880  0.2563  3.1819
 9875TIP3    H251117   0.290   3.586   0.687  0.8994 -0.6976 -0.1678
 9876TIP3   OH251118   0.290   6.362  16.513 -0.0753 -0.3199 -0.8328
 9876TIP3    H151119   0.359   6.426  16.497  0.6358 -1.0797 -0.8699
 9876TIP3    H251120   0.281   6.314  16.431 -1.1814  0.2629 -1.0697
 9877TIP3   OH251121   2.037   3.228   1.682 -0.1561 -0.0617 -0.1474
 9877TIP3    H151122   2.065   3.141   1.652  1.5488  0.6941 -0.8864
 9877TIP3    H251123   2.054   3.286   1.608 -1.0690  0.9575  0.4093
 9878TIP3   OH251124   0.280   2.688  12.255  0.0801  0.0757  0.0510
 9878TIP3    H151125   0.307   2.777  12.232 -0.6943  0.0894 -0.8917
 9878TIP3    H251126   0.184   2.693  12.262 -0.5820 -1.4809 -4.3445
 9879TIP3   OH251127   2.534   5.190  16.053  0.2271  0.1212  0.6550
 9879TIP3    H151128   2.442   5.217  16.049  0.3475  0.4799  0.1543
 9879TIP3    H251129   2.583   5.273  16.056  0.5706 -0.0445 -0.0898
 9880TIP3   OH251130   2.233   1.882  17.241  0.3970 -0.4034  0.8415
 9880TIP3    H151131   2.173   1.919  17.176 -0.6696 -2.1971  0.7424
 9880TIP3    H251132   2.314   1.932  17.231 -1.0635  2.1372  1.0236
 9881TIP3   OH251133   1.570   4.344  15.240  0.1875  0.0966 -0.3948
 9881TIP3    H151134   1.512   4.330  15.165 -0.0068  2.1133 -0.6567
 9881TIP3    H251135   1.616   4.260  15.250 -0.9182 -0.7270 -1.7556
 9882TIP3   OH251136   2.764   4.656  13.981 -0.8774 -0.1699  0.7809
 9882TIP3    H151137   2.786   4.593  13.912  1.2893  0.4738  0.8344
 9882TIP3    H251138   2.803   4.619  14.061 -0.2117  0.8537  0.9488
 9883TIP3   OH251139   5.410   5.037   4.480 -0.5266 -0.0602  0.0257
 9883TIP3    H151140   5.460   4.982   4.541 -1.4013 -0.6836  0.1992
 9883TIP3    H251141   5.473   5.101   4.449  0.0023  0.1549  1.4512
 9884TIP3   OH251142   6.343   3.137  16.404 -0.0864 -0.4638 -0.1099
 9884TIP3    H151143   6.266   3.082  16.411  0.3881 -0.9616  1.4530
 9884TIP3    H251144   6.413   3.086  16.444  0.5935  0.8414  0.4228
 9885TIP3   OH251145   2.055   6.192   2.972  0.9570 -0.7069  0.4911
 9885TIP3    H151146   2.075   6.234   2.888 -1.4718 -1.8991 -0.7893
 9885TIP3    H251147   2.040   6.265   3.032 -0.8985  0.3012 -1.0862
 9886TIP3   OH251148   1.140   6.676   3.662  0.0218  0.1336 -0.1079
 9886TIP3    H151149   1.104   6.589   3.679 -0.8485  0.6184  0.6235
 9886TIP3    H251150   1.228   6.672   3.700 -0.3724 -0.1348  0.8361
 9887TIP3   OH251151   1.309   4.192  16.567 -0.8730  0.4327 -0.6704
 9887TIP3    H151152   1.380   4.129  16.580 -0.4270  0.4500 -2.6859
 9887TIP3    H251153   1.331   4.265  16.624 -0.6884 -0.6650  0.6961
 9888TIP3   OH251154   4.536   6.598  13.389 -0.7914 -0.2904 -0.0063
 9888TIP3    H151155   4.549   6.627  13.479  0.9011  1.3610 -0.7096
 9888TIP3    H251156   4.496   6.673  13.345 -2.3660 -1.3613 -0.5018
 9889TIP3   OH251157   2.493   5.883  16.225 -0.5005  0.3985 -0.0274
 9889TIP3    H151158   2.514   5.965  16.179 -0.9691  0.9626  0.7407
 9889TIP3    H251159   2.575   5.858  16.267 -0.8408  1.6549  1.5115
 9890TIP3   OH251160   4.042   4.943   1.999  0.7359 -0.3221 -0.2917
 9890TIP3    H151161   3.978   4.909   2.062  1.5220 -1.6058 -0.1574
 9890TIP3    H251162   3.998   4.933   1.914  0.5909 -0.8345 -0.1652
 9891TIP3   OH251163   3.652   2.751   2.135 -0.1583  0.7391  0.7188
 9891TIP3    H151164   3.669   2.843   2.157 -0.2328  0.7269  0.8258
 9891TIP3    H251165   3.732   2.705   2.159  0.3238  0.9566 -0.4144
 9892TIP3   OH251166   0.130   2.767  11.828 -0.3402 -0.8522  0.6132
 9892TIP3    H151167   0.221   2.738  11.820  0.6089  2.0871 -0.3122
 9892TIP3    H251168   0.134   2.849  11.877 -2.5949 -0.9717  1.1182
 9893TIP3   OH251169   1.068   4.512   2.277  0.3681 -0.1802 -0.2408
 9893TIP3    H151170   1.097   4.602   2.290  0.6037 -0.2651 -0.1875
 9893TIP3    H251171   1.103   4.487   2.192  2.5858 -1.1260  0.8844
 9894TIP3   OH251172   2.099   0.044  14.917 -0.6655 -0.0731  0.4484
 9894TIP3    H151173   2.128   0.015  14.830  1.3415 -1.1501  1.4076
 9894TIP3    H251174   2.014   0.085  14.901 -1.2821 -1.9615 -1.7431
 9895TIP3   OH251175   3.132   2.460  16.416 -0.5760 -0.2230  0.1511
 9895TIP3    H151176   3.107   2.407  16.340  0.0280  0.7066 -0.7243
 9895TIP3    H251177   3.085   2.542  16.404 -1.1073 -0.3534  1.2283
 9896TIP3   OH251178   2.215   3.528  16.856  0.1112 -0.2973  0.4319
 9896TIP3    H151179   2.188   3.588  16.787  1.8058  0.3931  0.3298
 9896TIP3    H251180   2.222   3.443  16.813 -0.3049 -0.1779  0.1184
 9897TIP3   OH251181   2.470   0.454  16.388  0.7080 -0.2695 -0.0197
 9897TIP3    H151182   2.491   0.535  16.342  0.7706  0.0307  0.5195
 9897TIP3    H251183   2.419   0.483  16.464 -1.5415 -0.9325 -1.1784
 9898TIP3   OH251184   4.877   0.116   2.740 -0.1956 -0.2015  0.5022
 9898TIP3    H151185   4.939   0.051   2.773  0.1022 -0.0793  0.1902
 9898TIP3    H251186   4.923   0.199   2.748  0.6307 -0.3608 -1.9591
 9899TIP3   OH251187   0.379   6.141   1.285 -0.0645  0.0979  0.1789
 9899TIP3    H151188   0.316   6.103   1.347  2.4457 -3.6165  0.8391
 9899TIP3    H251189   0.349   6.111   1.199 -0.5580  0.5714  0.1778
 9900TIP3   OH251190   0.751   2.315   3.103  0.0326  0.0671  0.1567
 9900TIP3    H151191   0.797   2.275   3.178  0.6199 -0.7112 -0.5944
 9900TIP3    H251192   0.701   2.243   3.065 -3.1335  1.1898  1.8473
 9901TIP3   OH251193   2.777   4.627  12.109  0.2290 -0.0215 -0.4283
 9901TIP3    H151194   2.781   4.671  12.194  0.1795  1.0347 -0.9584
 9901TIP3    H251195   2.776   4.533  12.130 -4.1024  0.1414  0.9886
 9902TIP3   OH251196   1.063   4.233   0.502  0.1432 -0.0601  0.2719
 9902TIP3    H151197   0.970   4.210   0.507 -0.5928  2.1308 -1.4666
 9902TIP3    H251198   1.107   4.149   0.486 -1.6570 -1.0135 -0.0179
 9903TIP3   OH251199   0.959   0.963  15.013  0.0593  0.0980  0.3978
 9903TIP3    H151200   0.908   0.908  15.072 -2.1665  0.5972 -0.9390
 9903TIP3    H251201   0.923   1.051  15.026  0.9877  0.5790 -0.1909
 9904TIP3   OH251202   2.651   1.862  16.824  0.2760  0.5520  0.4324
 9904TIP3    H151203   2.745   1.861  16.809 -0.0696  1.3258 -2.3607
 9904TIP3    H251204   2.613   1.820  16.747 -1.7107  0.8729  1.1537
 9905TIP3   OH251205   6.064   3.716  11.718  0.0974  0.2705  0.4379
 9905TIP3    H151206   5.999   3.655  11.753  1.4228 -0.0693  2.4952
 9905TIP3    H251207   6.124   3.661  11.669  2.5640 -0.6895  4.0950
 9906TIP3   OH251208   4.321   1.882   5.286 -0.1310  0.2127 -0.1983
 9906TIP3    H151209   4.242   1.840   5.253  0.7821 -0.4895 -1.6220
 9906TIP3    H251210   4.291   1.964   5.324 -1.5723 -0.1935 -0.3944
 9907TIP3   OH251211   4.307   4.444  11.857 -0.1503  0.1981  0.0482
 9907TIP3    H151212   4.256   4.521  11.881  0.2433 -0.2822  2.7255
 9907TIP3    H251213   4.382   4.478  11.809 -0.9368  1.2743 -0.4622
 9908TIP3   OH251214   6.728   5.543  13.472  1.1613  0.5064  0.6914
 9908TIP3    H151215   6.632   5.549  13.475  1.0652 -0.8742  0.6800
 9908TIP3    H251216   6.754   5.614  13.413 -0.1694 -1.6455 -2.7757
 9909TIP3   OH251217   6.639   5.424   2.857 -0.1882  0.0983  0.4681
 9909TIP3    H151218   6.647   5.503   2.911 -2.0172  1.1224 -0.6762
 9909TIP3    H251219   6.715   5.371   2.881  1.1945  2.2681  1.1565
 9910TIP3   OH251220   5.448   0.268   6.244  0.1603 -0.4909 -0.0089
 9910TIP3    H151221   5.379   0.239   6.184  0.8826 -0.5255 -0.8536
 9910TIP3    H251222   5.406   0.337   6.296 -0.7545 -1.1043  0.1007
 9911TIP3   OH251223   0.549   0.211  14.060  0.6114  0.2407  0.7782
 9911TIP3    H151224   0.597   0.243  13.984  1.0089  0.5897  1.1711
 9911TIP3    H251225   0.501   0.287  14.093 -1.4223 -0.4146 -0.4702
 9912TIP3   OH251226   2.249   3.975  16.098  0.0326 -0.1502 -0.5119
 9912TIP3    H151227   2.262   4.069  16.088  2.3089 -0.2366  0.8115
 9912TIP3    H251228   2.182   3.952  16.033 -0.1604  2.2675 -1.2380
 9913TIP3   OH251229   1.277   2.691   6.164 -0.1086 -0.2288  0.2911
 9913TIP3    H151230   1.337   2.726   6.230  1.4562 -0.0235 -1.1728
 9913TIP3    H251231   1.227   2.767   6.135 -0.1258 -0.1405  0.5446
 9914TIP3   OH251232   1.804   5.683  14.394 -0.1326 -0.2672 -0.1944
 9914TIP3    H151233   1.845   5.765  14.366 -2.0188  1.1468  0.8784
 9914TIP3    H251234   1.710   5.704  14.399 -0.5852 -2.2631  0.9241
 9915TIP3   OH251235   3.173   2.378   5.967  0.5812  0.0933  0.3873
 9915TIP3    H151236   3.205   2.429   6.041 -0.4285 -0.6736  1.3803
 9915TIP3    H251237   3.088   2.417   5.946  1.3995  1.1228 -1.2265
 9916TIP3   OH251238   2.344   5.789  12.514  0.2274 -0.2998 -0.5400
 9916TIP3    H151239   2.428   5.790  12.558  0.2494 -1.5746 -0.5220
 9916TIP3    H251240   2.280   5.771  12.583  0.2718 -2.4138 -0.9728
 9917TIP3   OH251241   6.796   3.683  10.791  0.1352  0.4502 -0.1122
 9917TIP3    H151242   6.790   3.659  10.699  0.5392 -0.2646  0.0399
 9917TIP3    H251243   6.867   3.629  10.826  0.2284  0.9670  0.5393
 9918TIP3   OH251244   3.611   0.804  13.116  0.3691 -0.2226 -0.1053
 9918TIP3    H151245   3.518   0.787  13.131  0.7520 -0.2188  2.6442
 9918TIP3    H251246   3.636   0.740  13.049 -1.3281 -1.0789  0.0171
 9919TIP3   OH251247   2.236   3.454   2.652 -0.0231  0.1733 -0.2118
 9919TIP3    H151248   2.331   3.465   2.658 -0.0927  0.0788  1.4918
 9919TIP3    H251249   2.201   3.542   2.659 -0.0924  0.1440 -0.1957
 9920TIP3   OH251250   1.161   5.666  15.180  0.1982  0.0565  0.6761
 9920TIP3    H151251   1.149   5.759  15.162  0.2593  0.3389  2.0082
 9920TIP3    H251252   1.239   5.642  15.129 -0.7262  0.3198 -0.9552
 9921TIP3   OH251253   6.037   5.002  15.038 -0.0916  0.5796  0.0851
 9921TIP3    H151254   6.117   5.013  14.986  0.1831 -1.0059  0.1450
 9921TIP3    H251255   5.966   5.007  14.973  0.2716 -1.9134 -0.5907
 9922TIP3   OH251256   3.674   2.819  14.830 -0.5276 -0.2487 -0.7146
 9922TIP3    H151257   3.766   2.798  14.815 -0.1420 -0.3228  1.4432
 9922TIP3    H251258   3.626   2.751  14.782  0.5763 -1.4337 -0.1937
 9923TIP3   OH251259   4.697   3.547  12.147  0.1986 -0.0091  0.1390
 9923TIP3    H151260   4.793   3.541  12.146  0.2821  0.5587  1.8556
 9923TIP3    H251261   4.680   3.642  12.150 -0.4201 -0.1134 -0.0725
 9924TIP3   OH251262   3.184   6.362  15.878  0.0001 -0.5066 -0.1423
 9924TIP3    H151263   3.182   6.457  15.870 -0.8941 -0.5531 -0.6397
 9924TIP3    H251264   3.238   6.333  15.805  1.5116 -0.3222  0.8591
 9925TIP3   OH251265   3.541   0.773  11.037  0.5001  0.5070 -0.1601
 9925TIP3    H151266   3.562   0.833  10.966  3.0818  0.3886  0.4063
 9925TIP3    H251267   3.623   0.765  11.087 -0.9110 -0.2626  2.1920
 9926TIP3   OH251268   0.213   1.765  10.986 -0.0826  0.1437 -0.1154
 9926TIP3    H151269   0.178   1.855  10.984  0.2446  0.2640 -0.7005
 9926TIP3    H251270   0.149   1.715  10.935  0.5782  0.3708 -1.2198
 9927TIP3   OH251271   0.403   4.775   2.343 -0.2910  0.4427  0.5339
 9927TIP3    H151272   0.497   4.768   2.359 -0.3426 -0.1403  0.5910
 9927TIP3    H251273   0.394   4.852   2.287  0.4493 -0.7556 -1.3015
 9928TIP3   OH251274   1.909   4.625  14.271 -0.2885  0.1098  0.3597
 9928TIP3    H151275   1.953   4.569  14.206 -0.4679 -0.0374  0.3616
 9928TIP3    H251276   1.946   4.712  14.257 -1.8418  0.5527 -1.4046
 9929TIP3   OH251277   0.236   6.254   3.569  0.1470  0.2963 -0.3898
 9929TIP3    H151278   0.219   6.175   3.621  0.6125  0.4967  0.0684
 9929TIP3    H251279   0.150   6.294   3.558  0.2668  1.4119  2.0935
 9930TIP3   OH251280   1.490   5.262   3.606 -0.2008 -0.2056  0.5488
 9930TIP3    H151281   1.513   5.355   3.598  0.7129 -0.3413  1.3928
 9930TIP3    H251282   1.560   5.217   3.559  0.1175 -0.5188  1.2987
 9931TIP3   OH251283   3.632   3.591   0.310  0.1447  0.7271 -0.3285
 9931TIP3    H151284   3.559   3.590   0.248  1.2632 -0.4957 -1.7012
 9931TIP3    H251285   3.609   3.525   0.376 -0.3511  0.9252 -0.3032
 9932TIP3   OH251286   4.892   5.094  13.369 -0.3755  0.2934  0.0806
 9932TIP3    H151287   4.972   5.070  13.322 -1.2399 -0.1398 -1.2314
 9932TIP3    H251288   4.912   5.177  13.411  1.0525 -0.2475  0.5302
 9933TIP3   OH251289   5.556   4.335  14.170 -0.2153  0.0700  0.2932
 9933TIP3    H151290   5.635   4.304  14.214 -0.6552  2.1223  2.7531
 9933TIP3    H251291   5.555   4.429  14.184 -1.3246  0.6615 -2.8028
 9934TIP3   OH251292   5.423   0.879   1.377  0.3843  0.1134  0.1359
 9934TIP3    H151293   5.505   0.839   1.405  0.3050  0.2105  0.5088
 9934TIP3    H251294   5.362   0.862   1.449 -0.3440 -1.2415 -0.7489
 9935TIP3   OH251295   4.503   6.531  14.084 -0.2825 -0.2241  0.5213
 9935TIP3    H151296   4.589   6.554  14.048 -0.0277  0.0926  1.3030
 9935TIP3    H251297   4.482   6.447  14.044  0.6624 -0.5952  0.7673
 9936TIP3   OH251298   5.911   3.664  16.143 -0.5939  0.2941  0.2410
 9936TIP3    H151299   5.868   3.729  16.089 -0.6131  0.0188 -0.0750
 9936TIP3    H251300   5.926   3.590  16.085 -0.8093 -0.0872  0.6645
 9937TIP3   OH251301   0.952   0.234  16.008 -0.8114 -0.9184  0.0421
 9937TIP3    H151302   1.007   0.263  15.935 -0.1769  0.7463  1.1216
 9937TIP3    H251303   0.985   0.146  16.029  1.3418 -0.0777  0.4806
 9938TIP3   OH251304   3.499   4.840  14.847 -0.1061 -0.0689  0.4695
 9938TIP3    H151305   3.481   4.815  14.756  1.3212 -0.1195  0.1694
 9938TIP3    H251306   3.592   4.822  14.858 -0.2755 -0.1311  1.9810
 9939TIP3   OH251307   3.440   3.475  14.077 -0.5170 -0.6651 -0.1514
 9939TIP3    H151308   3.389   3.489  13.997 -0.5260 -0.7332 -0.1572
 9939TIP3    H251309   3.452   3.563  14.113  1.4359 -0.3606 -1.4250
 9940TIP3   OH251310   5.980   2.234   5.660  0.2239 -0.0345 -0.0159
 9940TIP3    H151311   6.062   2.198   5.628  0.5501  1.2526 -0.6959
 9940TIP3    H251312   5.979   2.325   5.629 -0.6876  0.4753  1.3638
 9941TIP3   OH251313   5.708   1.418  11.138  0.4631  0.0179  0.1119
 9941TIP3    H151314   5.658   1.391  11.062 -0.2888  2.5367 -0.3727
 9941TIP3    H251315   5.744   1.504  11.115  0.5607  0.6848  2.4108
 9942TIP3   OH251316   5.825   2.542  11.079 -0.3615 -0.2243 -0.0889
 9942TIP3    H151317   5.882   2.611  11.046 -0.0094 -1.2150 -1.6145
 9942TIP3    H251318   5.739   2.564  11.046 -0.6910  0.6308  1.2431
 9943TIP3   OH251319   1.876   0.226   3.315 -0.4460 -0.0132 -0.3076
 9943TIP3    H151320   1.809   0.161   3.336  0.6165 -2.1785 -2.9667
 9943TIP3    H251321   1.828   0.297   3.271 -1.0197 -2.0088 -3.1462
 9944TIP3   OH251322   1.529   6.806   0.192 -0.5865  0.4291  0.0872
 9944TIP3    H151323   1.515   6.795   0.098  0.2826 -0.1041  0.0095
 9944TIP3    H251324   1.604   6.750   0.212 -0.2309  1.1767  0.9423
 9945TIP3   OH251325   4.352   0.192  16.434 -0.4789  0.2833 -0.1569
 9945TIP3    H151326   4.306   0.185  16.350  0.2553 -2.0096 -0.4314
 9945TIP3    H251327   4.343   0.284  16.459 -1.1374  0.9091 -2.4932
 9946TIP3   OH251328   6.033   5.142  14.307 -0.6611 -0.0903  0.4623
 9946TIP3    H151329   6.122   5.177  14.317  0.0085 -0.7267 -2.3326
 9946TIP3    H251330   5.976   5.214  14.334  0.7237  1.5085 -0.6570
 9947TIP3   OH251331   4.274   4.774   0.653  0.1398  0.2244 -0.4867
 9947TIP3    H151332   4.318   4.853   0.621  1.4942 -0.5716 -0.6534
 9947TIP3    H251333   4.289   4.775   0.747  1.4600 -0.5854 -0.6698
 9948TIP3   OH251334   1.667   5.584  11.577  0.7124 -0.2775  0.2388
 9948TIP3    H151335   1.602   5.624  11.634 -0.0192  0.5543 -1.1083
 9948TIP3    H251336   1.751   5.617  11.608  0.4696 -0.9256  1.6560
 9949TIP3   OH251337   3.611   2.811  12.895  0.5490  0.6189  0.3433
 9949TIP3    H151338   3.611   2.717  12.918 -1.2167  0.9523  2.0730
 9949TIP3    H251339   3.572   2.853  12.972  0.1887  2.6444 -0.8920
 9950TIP3   OH251340   3.265   4.864  12.653  0.0030  0.6072 -0.5197
 9950TIP3    H151341   3.239   4.883  12.562 -0.5592  1.7713 -0.1325
 9950TIP3    H251342   3.279   4.769  12.654 -0.0484  0.5616 -1.8069
 9951TIP3   OH251343   1.966   6.370  13.269  0.1540  0.4289 -0.3049
 9951TIP3    H151344   2.028   6.400  13.202  0.4174  0.8300  0.1145
 9951TIP3    H251345   1.957   6.444  13.328 -0.5713  0.2991 -0.2460
 9952TIP3   OH251346   5.534   2.265  13.651  0.4956 -0.1071 -0.3378
 9952TIP3    H151347   5.623   2.276  13.683  0.3965 -0.1350 -0.0478
 9952TIP3    H251348   5.541   2.205  13.577  0.8099  0.4489 -0.7662
 9953TIP3   OH251349   6.612   6.790  17.121 -0.0812 -0.4078 -0.2289
 9953TIP3    H151350   6.637   6.863  17.177 -0.5797 -1.7611  1.8928
 9953TIP3    H251351   6.692   6.737  17.114 -0.4910 -1.1851  0.7822
 9954TIP3   OH251352   2.878   0.608   2.801 -0.0172 -0.1184 -0.0670
 9954TIP3    H151353   2.849   0.694   2.832  1.4305  0.0515  0.9142
 9954TIP3    H251354   2.797   0.555   2.798 -0.9758  1.3411 -1.0219
 9955TIP3   OH251355   4.922   3.474   0.432  0.0619  0.0356 -0.3576
 9955TIP3    H151356   4.984   3.433   0.373  0.2459 -0.6320  0.2754
 9955TIP3    H251357   4.879   3.400   0.476 -1.0755  0.4930 -0.6870
 9956TIP3   OH251358   6.519   4.324   5.791  0.2805  0.3528 -0.0446
 9956TIP3    H151359   6.547   4.295   5.878  0.6595  0.9070  0.0270
 9956TIP3    H251360   6.431   4.289   5.781  0.2624  0.2270  0.5360
 9957TIP3   OH251361   1.677   3.250  14.669 -0.3075 -0.3816  0.1588
 9957TIP3    H151362   1.622   3.310  14.719 -1.5793 -1.6882  0.4093
 9957TIP3    H251363   1.765   3.287  14.673 -0.3109 -0.4780  3.4637
 9958TIP3   OH251364   3.928   5.877   0.963  0.1590 -0.7704 -0.2089
 9958TIP3    H151365   3.876   5.913   0.891 -0.9200  0.1405  0.9585
 9958TIP3    H251366   3.936   5.950   1.025  0.0815 -1.8205  1.0976
 9959TIP3   OH251367   3.064   4.769   1.960 -0.2298  0.0853 -0.1628
 9959TIP3    H151368   3.047   4.849   2.009 -1.8260 -0.5857  0.4213
 9959TIP3    H251369   3.108   4.799   1.880  0.9231  1.3391  0.8841
 9960TIP3   OH251370   3.009   0.285  16.988 -0.0823 -0.2305  0.4631
 9960TIP3    H151371   3.080   0.298  17.051  1.0898 -2.1491 -0.3662
 9960TIP3    H251372   3.050   0.238  16.915 -2.2186 -1.5492  0.0200
 9961TIP3   OH251373   2.733   3.747  12.203 -0.2923 -0.3032 -0.2649
 9961TIP3    H151374   2.773   3.714  12.123 -0.4032 -0.3838 -0.2885
 9961TIP3    H251375   2.803   3.747  12.268 -0.6616 -2.2268  0.2155
 9962TIP3   OH251376   1.636   1.276   1.141  0.5560 -0.9833  0.1506
 9962TIP3    H151377   1.656   1.186   1.116  2.3009 -0.7091  0.4146
 9962TIP3    H251378   1.698   1.295   1.212 -0.2788  0.1957  0.6028
 9963TIP3   OH251379   3.227   3.425  15.524 -0.0452 -0.2174 -0.5842
 9963TIP3    H151380   3.274   3.413  15.442  0.8730  0.6263 -0.2058
 9963TIP3    H251381   3.214   3.337  15.557 -0.9990 -0.6114 -1.9348
 9964TIP3   OH251382   0.307   0.741   1.381  0.1175 -0.1355  0.1569
 9964TIP3    H151383   0.326   0.655   1.417 -0.1465 -0.5216 -0.6197
 9964TIP3    H251384   0.301   0.728   1.287  0.1113  0.7388  0.0242
 9965TIP3   OH251385   1.870   1.103   4.606  0.0987  0.8605 -0.0221
 9965TIP3    H151386   1.900   1.143   4.525  2.1344 -1.6184 -0.5956
 9965TIP3    H251387   1.912   1.155   4.675  0.2810  1.5149 -0.6140
 9966TIP3   OH251388   0.032   4.259   0.128 -0.0672  0.4973 -0.1776
 9966TIP3    H151389  -0.046   4.236   0.179 -0.7023 -1.2828 -1.8227
 9966TIP3    H251390  -0.002   4.311   0.056  0.6280  1.7430  0.3680
 9967TIP3   OH251391   5.010   1.261   6.760  0.1365 -0.0327 -0.1083
 9967TIP3    H151392   5.084   1.207   6.732 -0.4917 -1.7629  1.4151
 9967TIP3    H251393   5.039   1.299   6.844 -1.1532 -1.8689  1.2393
 9968TIP3   OH251394   4.014   4.078  13.661 -0.2140  0.6066  0.3643
 9968TIP3    H151395   3.958   4.136  13.712 -0.7420 -1.0575  1.7767
 9968TIP3    H251396   4.001   3.991  13.700  0.5523 -0.4791 -1.6369
 9969TIP3   OH251397   4.664   2.840  13.783  0.5467  0.2246 -0.4071
 9969TIP3    H151398   4.749   2.796  13.782 -0.1964 -1.2536 -0.6288
 9969TIP3    H251399   4.621   2.811  13.703 -0.6506 -0.0119  0.3004
 9970TIP3   OH251400   0.530   6.772  10.134 -0.0400 -0.3857  0.3647
 9970TIP3    H151401   0.554   6.855  10.091 -0.1348 -0.3239  0.4319
 9970TIP3    H251402   0.458   6.795  10.193  0.9164 -0.2213  1.5091
 9971TIP3   OH251403   6.622   1.656  11.795 -0.6732  0.3952 -0.0557
 9971TIP3    H151404   6.690   1.605  11.840  0.8628  1.5229 -1.0106
 9971TIP3    H251405   6.638   1.640  11.702 -0.4036  2.2780 -0.3645
 9972TIP3   OH251406   6.079   6.647   4.937  0.4138  0.3578 -0.2584
 9972TIP3    H151407   6.162   6.601   4.955  0.3003  0.1569 -0.2387
 9972TIP3    H251408   6.049   6.675   5.024 -0.0795 -0.5149 -0.1378
 9973TIP3   OH251409   1.738   0.519   1.270 -0.6511  0.2405 -0.4631
 9973TIP3    H151410   1.732   0.423   1.269 -0.3602  0.2095  0.2877
 9973TIP3    H251411   1.820   0.538   1.225 -0.2338  0.0823  0.2104
 9974TIP3   OH251412   6.268   4.263  15.767  1.0403 -0.5538 -0.0605
 9974TIP3    H151413   6.231   4.195  15.824  0.5722  0.7474  1.2391
 9974TIP3    H251414   6.293   4.216  15.687 -0.7927 -1.9697  0.1336
 9975TIP3   OH251415   6.745   4.390   6.300  0.2071 -0.2543  0.2175
 9975TIP3    H151416   6.664   4.340   6.309  0.3101 -0.5938 -0.6604
 9975TIP3    H251417   6.717   4.482   6.306  0.0865 -0.3846  2.3612
 9976TIP3   OH251418   6.207   0.239  14.826  0.5219 -0.1889  0.6586
 9976TIP3    H151419   6.200   0.180  14.751  1.2903  1.4641 -0.7877
 9976TIP3    H251420   6.288   0.288  14.810  0.7979  0.1086  2.6745
 9977TIP3   OH251421   3.317   0.639   0.644  0.1586 -0.1881  0.2377
 9977TIP3    H151422   3.274   0.673   0.565 -1.4159 -1.1621  0.6321
 9977TIP3    H251423   3.271   0.682   0.716  0.8506 -0.1386  0.6534
 9978TIP3   OH251424   0.368   5.469   1.716 -0.0322 -0.4056 -0.3097
 9978TIP3    H151425   0.397   5.382   1.745  2.8402 -0.0012 -1.5583
 9978TIP3    H251426   0.274   5.470   1.732  0.3334 -2.5058  2.8208
 9979TIP3   OH251427   4.993   5.296   5.382  0.1992 -0.1396 -0.1867
 9979TIP3    H151428   5.042   5.369   5.342 -0.3855 -1.1398 -2.9390
 9979TIP3    H251429   4.905   5.303   5.345  0.1523 -2.2520 -0.6047
 9980TIP3   OH251430   2.039   3.208  16.028  0.0259  1.2904  0.0119
 9980TIP3    H151431   1.975   3.198  15.957 -0.8506  0.0981  0.9205
 9980TIP3    H251432   2.103   3.271  15.994 -1.7558  2.7533 -0.8422
 9981TIP3   OH251433   5.133   0.673   2.832  0.6171  0.6051  0.5117
 9981TIP3    H151434   5.113   0.620   2.754 -0.3759  0.9949  0.4918
 9981TIP3    H251435   5.204   0.625   2.875 -0.8942 -1.3119  1.0288
 9982TIP3   OH251436   6.132   5.233   2.799  0.4764 -0.0473  0.0302
 9982TIP3    H151437   6.057   5.293   2.796 -0.0150 -0.6241  0.4586
 9982TIP3    H251438   6.207   5.289   2.818  0.3084  0.6761 -1.3319
 9983TIP3   OH251439   4.164   2.975  15.477 -0.0097 -0.4039  0.4402
 9983TIP3    H151440   4.074   3.010  15.479  0.9313  2.3547 -0.6512
 9983TIP3    H251441   4.164   2.917  15.400 -0.3034  1.4709 -1.0488
 9984TIP3   OH251442   5.028   0.603   0.359  0.3392 -0.2956  0.0274
 9984TIP3    H151443   5.076   0.578   0.280 -0.9658  0.0840 -0.9258
 9984TIP3    H251444   5.082   0.572   0.432  0.8756 -1.9379 -1.0262
 9985TIP3   OH251445   2.826   2.846  13.234  0.1569  0.0885  0.4311
 9985TIP3    H151446   2.772   2.923  13.252 -2.3783 -0.7913 -2.4981
 9985TIP3    H251447   2.763   2.774  13.231  1.6152 -1.1988 -1.9826
 9986TIP3   OH251448   2.910   0.232   3.586  0.0461  0.3671  0.0592
 9986TIP3    H151449   3.003   0.243   3.608  0.0081  0.2023  0.3026
 9986TIP3    H251450   2.896   0.290   3.511 -0.3121  2.5977  1.7355
 9987TIP3   OH251451   1.372   6.241  16.328 -0.5118  0.5902  0.1926
 9987TIP3    H151452   1.463   6.264  16.310 -1.6111  3.9100 -2.1197
 9987TIP3    H251453   1.373   6.208  16.418  2.8290  1.1697  0.4912
 9988TIP3   OH251454   1.692   5.327   5.556 -0.6809 -0.1003 -0.0831
 9988TIP3    H151455   1.777   5.344   5.515 -0.8567 -1.0655 -0.8784
 9988TIP3    H251456   1.703   5.355   5.647  0.1848  0.6810 -0.4123
 9989TIP3   OH251457   2.127   5.152  11.295  0.8037  0.2881 -0.2370
 9989TIP3    H151458   2.099   5.238  11.326  2.5769  0.6976  0.3543
 9989TIP3    H251459   2.158   5.168  11.206  0.3632  0.0759 -0.4350
 9990TIP3   OH251460   3.965   0.380   5.547 -0.1959  0.0810  0.1372
 9990TIP3    H151461   4.061   0.380   5.556 -0.0182 -1.6304 -1.0830
 9990TIP3    H251462   3.946   0.296   5.505 -2.2647  0.3348  0.4842
 9991TIP3   OH251463   3.114   2.538   2.740 -0.0339 -0.3514  0.0193
 9991TIP3    H151464   3.146   2.590   2.666  1.4253  2.1173  2.2298
 9991TIP3    H251465   3.019   2.541   2.731  0.0990 -1.2432 -2.4149
 9992TIP3   OH251466   0.731   3.889   0.167  0.0495  0.0803  0.0049
 9992TIP3    H151467   0.764   3.942   0.239 -2.3228  0.9488  0.5309
 9992TIP3    H251468   0.639   3.915   0.157 -0.3558 -1.7388 -1.7560
 9993TIP3   OH251469   3.786   1.700  11.798  0.2456  0.1799 -0.2831
 9993TIP3    H151470   3.795   1.614  11.757 -0.9797  0.6920 -1.7039
 9993TIP3    H251471   3.695   1.725  11.782  0.6060  1.7876  0.0222
 9994TIP3   OH251472   2.725   5.045   1.499  0.3855  0.0345 -0.8016
 9994TIP3    H151473   2.664   5.117   1.484  0.3123 -0.2166 -1.8088
 9994TIP3    H251474   2.780   5.074   1.570 -0.8597  0.3037  0.0888
 9995TIP3   OH251475   0.474   5.051   5.859 -0.4961 -0.6887 -0.2179
 9995TIP3    H151476   0.411   5.122   5.862  0.0503 -0.1216 -1.3336
 9995TIP3    H251477   0.478   5.026   5.766  2.5633  0.8684 -0.6504
 9996TIP3   OH251478   5.443   0.552  14.576 -0.0410 -0.3540 -0.2216
 9996TIP3    H151479   5.411   0.466  14.548 -0.2393 -0.2198 -0.4080
 9996TIP3    H251480   5.520   0.532  14.630  1.5129 -0.5469 -2.3859
 9997TIP3   OH251481   2.489   6.719   5.222  0.0872  0.4190  0.6670
 9997TIP3    H151482   2.442   6.641   5.191 -0.0804  0.8791 -0.2686
 9997TIP3    H251483   2.425   6.766   5.276  0.7649 -1.0292  2.8582
 9998TIP3   OH251484   1.563   5.808   0.352 -1.0729 -0.3402  0.5658
 9998TIP3    H151485   1.590   5.890   0.310 -1.4918 -0.0794  0.7919
 9998TIP3    H251486   1.494   5.835   0.414 -0.1883 -0.6516  1.7265
 9999TIP3   OH251487   1.027   2.216  12.621 -0.2291 -0.3308 -0.2634
 9999TIP3    H151488   0.946   2.166  12.631 -1.0402  1.1295  0.8408
 9999TIP3    H251489   1.066   2.182  12.540 -2.0011 -0.9751 -0.9088
10000TIP3   OH251490   0.536   3.654  13.108 -0.0029  0.6001  0.0534
10000TIP3    H151491   0.585   3.648  13.190  0.7842  0.1435 -0.4422
10000TIP3    H251492   0.455   3.606  13.126  0.7189 -0.5988  0.1704
10001TIP3   OH251493   3.149   2.505   5.467 -0.1385 -0.2337 -0.0471
10001TIP3    H151494   3.209   2.576   5.489  0.1601 -0.5960  0.3308
10001TIP3    H251495   3.182   2.430   5.517 -1.5088 -0.1795  0.9923
10002TIP3   OH251496   4.747   6.560  13.774 -0.4424  0.3189  0.8762
10002TIP3    H151497   4.809   6.488  13.761 -0.9504  0.1028 -0.6137
10002TIP3    H251498   4.777   6.605  13.853  1.7208  0.3560  0.0778
10003TIP3   OH251499   5.629   0.240   0.168  0.2849 -0.0081  0.0896
10003TIP3    H151500   5.603   0.180   0.238 -0.3092 -0.3133 -0.3915
10003TIP3    H251501   5.686   0.304   0.212  0.2481 -0.4322  0.7682
10004TIP3   OH251502   4.777   1.923   0.930 -0.1211  0.1391 -0.2266
10004TIP3    H151503   4.697   1.878   0.957  1.0630 -1.6443  0.4662
10004TIP3    H251504   4.750   2.014   0.917 -2.2542 -0.4156 -0.0427
10005TIP3   OH251505   2.285   3.004   6.685 -0.0237 -0.1847 -0.7376
10005TIP3    H151506   2.350   3.053   6.735 -0.0373 -0.7294 -0.1777
10005TIP3    H251507   2.212   3.066   6.674 -0.6827 -0.5112  1.2707
10006TIP3   OH251508   1.727   1.074   5.373  0.0937  0.1855  0.2067
10006TIP3    H151509   1.676   1.138   5.423 -1.1452 -0.5841 -0.0142
10006TIP3    H251510   1.807   1.061   5.425 -0.5296  0.4506  1.2731
10007TIP3   OH251511   5.669   5.664  15.210  0.3069 -0.3259  0.1747
10007TIP3    H151512   5.680   5.605  15.136 -0.5054  0.3974 -0.5493
10007TIP3    H251513   5.585   5.639  15.249  0.7176 -0.6834  0.8354
10008TIP3   OH251514   1.923   2.800   5.352  0.1706  0.2057  0.3412
10008TIP3    H151515   1.866   2.742   5.302  0.9661 -0.0540 -0.2844
10008TIP3    H251516   1.864   2.865   5.390 -0.4555  0.4930 -1.0524
10009TIP3   OH251517   6.739   1.847  11.120 -0.3203 -0.0479  0.8101
10009TIP3    H151518   6.683   1.816  11.048  2.4803 -2.6215 -0.4959
10009TIP3    H251519   6.800   1.907  11.078  2.0041 -2.3613  0.6138
10010TIP3   OH251520   4.134   1.049  12.774 -0.1655 -0.4202  0.0084
10010TIP3    H151521   4.056   1.099  12.798 -0.5892 -0.0195 -1.9668
10010TIP3    H251522   4.190   1.113  12.730 -0.0722 -1.3372 -1.2606
10011TIP3   OH251523   4.874   4.321   1.169 -0.0968  0.2871  0.2324
10011TIP3    H151524   4.885   4.245   1.225 -2.8418  0.1843  0.7742
10011TIP3    H251525   4.846   4.285   1.084 -1.0935  0.6247  0.3972
10012TIP3   OH251526   4.134   4.097   5.794  0.2022  0.2699  0.0325
10012TIP3    H151527   4.141   4.179   5.746 -0.5746  1.0774  1.2309
10012TIP3    H251528   4.220   4.056   5.784  0.3849  0.8963 -1.1457
10013TIP3   OH251529   4.910   5.779   5.398  0.2371  0.3071  0.4651
10013TIP3    H151530   4.868   5.860   5.369  0.1671  0.3461  0.6749
10013TIP3    H251531   4.967   5.754   5.325 -0.2086  0.2128  0.1465
10014TIP3   OH251532   3.205   1.962  11.956  0.3192  0.0181  0.1289
10014TIP3    H151533   3.218   2.026  11.885  0.9385  0.4488  0.6186
10014TIP3    H251534   3.292   1.925  11.971  0.3098  0.3329  1.0286
10015TIP3   OH251535   6.365   5.752  14.018 -0.5704  0.1511  0.3287
10015TIP3    H151536   6.355   5.704  14.100  0.0998  1.0506  0.9415
10015TIP3    H251537   6.422   5.825  14.039  0.5120 -0.2070 -1.1810
10016TIP3   OH251538   5.912   3.965   1.830  0.7764 -0.9140  0.1475
10016TIP3    H151539   5.930   3.895   1.768 -0.0489 -0.4175 -0.6864
10016TIP3    H251540   5.820   3.954   1.853 -0.6371  2.1029 -3.0594
10017TIP3   OH251541   0.260   3.904   3.129  0.2401  0.0890 -0.4492
10017TIP3    H151542   0.304   3.982   3.096  2.3330 -0.5528  0.6373
10017TIP3    H251543   0.230   3.858   3.051  0.3974  1.1619 -1.1671
10018TIP3   OH251544   0.848   0.458   0.062  0.2774 -0.2897  0.4759
10018TIP3    H151545   0.904   0.388   0.029 -1.8160 -1.4382 -0.8805
10018TIP3    H251546   0.836   0.516  -0.013 -0.4687 -0.1633  0.6842
10019TIP3   OH251547   1.830   2.325  11.309 -0.3860  0.3460  0.8682
10019TIP3    H151548   1.830   2.361  11.220 -1.6709 -0.0691  0.6717
10019TIP3    H251549   1.922   2.308  11.328  0.0156  1.4962  0.0611
10020TIP3   OH251550   6.463   3.817   2.869 -0.4101 -0.1134 -0.3326
10020TIP3    H151551   6.376   3.825   2.908  0.3577 -1.5529  1.8329
10020TIP3    H251552   6.520   3.792   2.942  1.0176 -3.7747 -2.4716
10021TIP3   OH251553   6.658   5.625   3.084  0.4834 -0.6497 -0.3749
10021TIP3    H151554   6.736   5.591   3.128 -0.6305 -2.0013  0.6307
10021TIP3    H251555   6.646   5.712   3.120  1.5106 -0.4255 -0.5407
10022TIP3   OH251556   0.804   5.007  16.120  0.0763  0.0924 -0.1825
10022TIP3    H151557   0.826   4.936  16.180 -0.2937 -0.0283 -0.1889
10022TIP3    H251558   0.721   5.042  16.153  0.6794  1.0838  0.3302
10023TIP3   OH251559   2.291   3.639   4.274 -0.4058  0.1962 -0.9421
10023TIP3    H151560   2.265   3.548   4.258 -0.8092  0.4502 -1.8186
10023TIP3    H251561   2.387   3.637   4.277 -0.4191 -0.6832  1.8531
10024TIP3   OH251562   0.929   3.557   2.115  0.1687 -0.5331  0.6554
10024TIP3    H151563   1.024   3.550   2.099  0.2827  1.1572  0.4866
10024TIP3    H251564   0.890   3.538   2.030  0.5743  3.0368 -0.4791
10025TIP3   OH251565   5.265   1.358   1.249  0.2061 -0.7964  0.5167
10025TIP3    H151566   5.265   1.263   1.264 -0.1262 -1.0717 -1.0658
10025TIP3    H251567   5.183   1.375   1.204  0.0889  0.3205  1.1195
10026TIP3   OH251568   2.141   5.391  13.316  0.3693  0.6058  0.0077
10026TIP3    H151569   2.084   5.358  13.385 -0.9415  0.6828 -0.9967
10026TIP3    H251570   2.178   5.312  13.276 -0.3342  0.4709 -0.3932
10027TIP3   OH251571   0.535   3.600  17.141  0.1418 -0.0737 -0.0886
10027TIP3    H151572   0.522   3.506  17.158  0.3604  0.1475  1.3974
10027TIP3    H251573   0.619   3.620  17.180  0.0389  0.7816 -0.2852
10028TIP3   OH251574   6.439   4.744  13.633  0.1396  0.5749 -0.3302
10028TIP3    H151575   6.519   4.711  13.592  1.3423  0.4909  1.9293
10028TIP3    H251576   6.387   4.666  13.650 -0.2527  0.5871 -1.4081
10029TIP3   OH251577   2.064   0.385   2.403 -0.4323 -0.1936 -0.6346
10029TIP3    H151578   2.147   0.422   2.374 -0.1967 -0.0451  0.1861
10029TIP3    H251579   2.089   0.307   2.452 -1.0087 -2.7759 -4.0805
10030TIP3   OH251580   0.285   6.656  14.450  0.4743 -0.2371 -0.0738
10030TIP3    H151581   0.239   6.638  14.368  1.2355  1.3075 -0.8755
10030TIP3    H251582   0.219   6.644  14.518 -0.6110  0.0841 -1.0443
10031TIP3   OH251583   1.236   6.435  15.511  0.1809 -0.0281  0.0321
10031TIP3    H151584   1.324   6.439  15.550  0.9442 -1.3366 -1.4335
10031TIP3    H251585   1.205   6.347  15.531  0.1022 -0.3071 -1.2151
10032TIP3   OH251586   2.165   1.047   5.375  0.0077 -0.5335 -0.1083
10032TIP3    H151587   2.245   1.019   5.419 -0.4820 -1.4984  0.1975
10032TIP3    H251588   2.145   0.975   5.315 -2.5613 -2.0227  2.3515
10033TIP3   OH251589   0.443   3.830  16.913  0.9284  0.6514  0.1964
10033TIP3    H151590   0.519   3.773  16.903  0.0055 -0.5816  0.0119
10033TIP3    H251591   0.398   3.798  16.991  0.7830  1.6011  0.5126
10034TIP3   OH251592   3.809   1.166   1.693 -0.4478  0.5167 -0.0348
10034TIP3    H151593   3.865   1.090   1.702 -1.5298 -0.7207 -2.5098
10034TIP3    H251594   3.720   1.132   1.706 -0.8597  1.6729  0.2965
10035TIP3   OH251595   6.151   3.287  11.209  0.5436  0.5745  0.4090
10035TIP3    H151596   6.064   3.246  11.208 -0.0486  1.6471  2.3370
10035TIP3    H251597   6.154   3.339  11.129 -0.8350  0.9423  0.5679
10036TIP3   OH251598   6.533   4.341   2.794 -0.6913 -0.7606  0.7468
10036TIP3    H151599   6.564   4.365   2.881 -0.1089 -1.5766  0.7718
10036TIP3    H251600   6.550   4.248   2.787 -1.7441 -0.9284  0.1620
10037TIP3   OH251601   5.511   4.126   1.978 -0.1638  0.1510 -0.0666
10037TIP3    H151602   5.437   4.106   1.921 -1.6762 -0.0437  1.8863
10037TIP3    H251603   5.540   4.213   1.948  0.0520 -0.5398 -2.0420
10038TIP3   OH251604   5.203   0.719  13.255  0.2632 -0.0447  0.7461
10038TIP3    H151605   5.137   0.694  13.318  1.5699  0.2776  2.3131
10038TIP3    H251606   5.277   0.749  13.308  0.1705  3.6582 -0.8793
10039TIP3   OH251607   3.890   2.592   4.985  0.5075  0.5642  0.7927
10039TIP3    H151608   3.968   2.538   4.970  1.2155  2.0967 -1.5342
10039TIP3    H251609   3.898   2.664   4.923 -2.5333  1.0746  0.8482
10040TIP3   OH251610   0.119   1.614  11.800 -0.6299 -0.1759 -0.4451
10040TIP3    H151611   0.072   1.636  11.720 -1.2175  2.7290  0.5785
10040TIP3    H251612   0.197   1.670  11.798  0.3907 -1.5213  0.1015
10041TIP3   OH251613   6.657   5.762  17.074  0.0993  0.0022 -0.1521
10041TIP3    H151614   6.571   5.780  17.113  0.3958 -1.6834  1.4303
10041TIP3    H251615   6.675   5.838  17.018 -2.3225  0.4770 -0.3849
10042TIP3   OH251616   2.921   3.357   0.934 -0.6260  0.2495 -0.5766
10042TIP3    H151617   2.852   3.324   0.876 -1.5252 -0.5396  0.8798
10042TIP3    H251618   2.890   3.445   0.959 -1.2539 -0.1846  0.2427
10043TIP3   OH251619   1.448   2.738  16.418  0.3640  0.3852 -0.4398
10043TIP3    H151620   1.370   2.779  16.382 -0.9385 -0.4319  1.2951
10043TIP3    H251621   1.520   2.795  16.393 -0.6878  0.8476 -2.5988
10044TIP3   OH251622   5.628   1.898  11.797 -0.1063 -0.2618 -0.0042
10044TIP3    H151623   5.705   1.950  11.821  0.2937 -0.7202 -0.2837
10044TIP3    H251624   5.591   1.945  11.722  0.4582 -0.5660 -0.4805
10045TIP3   OH251625   2.029   6.617  11.435  0.7073 -0.7045  0.4287
10045TIP3    H151626   1.990   6.609  11.348  1.1686  0.5978  0.0865
10045TIP3    H251627   2.120   6.591  11.423  1.3044  1.3791  0.0513
10046TIP3   OH251628   6.600   2.947   2.881  0.8237 -0.0148 -0.4041
10046TIP3    H151629   6.577   3.040   2.878 -1.7543 -0.5712 -1.4863
10046TIP3    H251630   6.650   2.932   2.801  1.9313  0.5606  0.1630
10047TIP3   OH251631   3.798   3.179  14.727 -0.1597 -0.1782 -0.5185
10047TIP3    H151632   3.731   3.206  14.789  0.9645 -0.3719  0.8460
10047TIP3    H251633   3.802   3.250  14.663  0.4213  1.3162  1.0941
10048TIP3   OH251634   3.362   5.701  11.802 -0.1156 -0.3277  0.0064
10048TIP3    H151635   3.317   5.619  11.822 -2.6703  0.9032 -0.3770
10048TIP3    H251636   3.413   5.681  11.723  0.6543 -1.9598  0.8578
10049TIP3   OH251637   3.563   3.962   2.752  0.3960  0.2434 -0.5195
10049TIP3    H151638   3.649   3.979   2.713  0.6840  0.1851  0.0634
10049TIP3    H251639   3.578   3.972   2.846  0.6986 -3.4844 -0.0280
10050TIP3   OH251640   4.609   1.271  14.614 -0.3030 -0.4871  0.2489
10050TIP3    H151641   4.615   1.366  14.598  0.2001 -0.5251  0.2025
10050TIP3    H251642   4.561   1.237  14.538 -0.1336 -0.3231  0.0662
10051TIP3   OH251643   4.760   0.445   4.332 -0.1118  0.4967  0.0602
10051TIP3    H151644   4.775   0.538   4.316 -1.1191  0.9496  1.5336
10051TIP3    H251645   4.823   0.421   4.399 -0.0821  0.1981 -0.0725
10052TIP3   OH251646   0.975   5.253  15.776  0.2414  0.3241  0.4545
10052TIP3    H151647   0.892   5.215  15.805  0.2586  1.3187  1.9344
10052TIP3    H251648   1.038   5.182  15.784  0.0944  0.3488  2.2888
10053TIP3   OH251649   2.731   2.675  15.846  0.2249  0.2275  0.4392
10053TIP3    H151650   2.705   2.595  15.891 -0.6551  0.0850 -0.2869
10053TIP3    H251651   2.766   2.732  15.915  1.3507 -0.9622  0.8855
10054TIP3   OH251652   1.542   1.052   5.139  0.6190  0.0452 -0.3598
10054TIP3    H151653   1.591   1.062   5.220  0.9039 -1.6464 -0.2830
10054TIP3    H251654   1.455   1.088   5.158  0.2849 -1.4324  1.1261
10055TIP3   OH251655   3.224   2.891  16.915  0.2698 -0.0174 -0.0064
10055TIP3    H151656   3.181   2.976  16.906 -1.6192 -0.9147  0.1880
10055TIP3    H251657   3.276   2.881  16.835  0.4746  1.2782 -0.0516
10056TIP3   OH251658   1.433   6.041   3.303 -0.1082 -0.4573 -0.0828
10056TIP3    H151659   1.508   6.005   3.256 -0.0436 -0.1618 -0.2148
10056TIP3    H251660   1.468   6.072   3.386 -0.0164 -0.0141 -0.2833
10057TIP3   OH251661   1.304   4.550   0.137  0.2642  0.1420  0.3249
10057TIP3    H151662   1.250   4.613   0.185 -0.7931  0.1562 -0.8151
10057TIP3    H251663   1.246   4.518   0.067  2.0844  1.0646 -1.7237
10058TIP3   OH251664   6.752   3.670  15.384  0.0300 -0.2062  0.0767
10058TIP3    H151665   6.711   3.645  15.467  1.6513 -0.9760  0.7064
10058TIP3    H251666   6.680   3.698  15.328 -1.1777 -0.3366  1.5168
10059TIP3   OH251667   1.463   6.669   2.900 -0.1522  0.1052  0.1719
10059TIP3    H151668   1.371   6.646   2.909 -0.1399  0.9288  3.7574
10059TIP3    H251669   1.486   6.710   2.983  3.1309  1.1826 -1.1047
10060TIP3   OH251670   1.242   3.786   3.036 -0.1900 -0.9685  0.2462
10060TIP3    H151671   1.199   3.703   3.057 -1.4998 -0.5515 -0.7031
10060TIP3    H251672   1.177   3.853   3.059 -1.5688 -0.4183 -4.3147
10061TIP3   OH251673   2.567   5.608  15.954  0.5788  0.0647 -0.4218
10061TIP3    H151674   2.585   5.558  15.875 -0.5181  1.3984 -1.5518
10061TIP3    H251675   2.592   5.698  15.933  1.5211  0.2379  1.2190
10062TIP3   OH251676   3.217   2.199   5.003  0.3671 -0.6059 -0.3715
10062TIP3    H151677   3.183   2.112   4.982 -1.3015  0.0162 -0.4421
10062TIP3    H251678   3.160   2.259   4.953  1.2097  0.5416  0.0074
10063TIP3   OH251679   3.712   5.200  11.874 -0.3668  0.2443 -0.2146
10063TIP3    H151680   3.755   5.258  11.812 -2.6403  1.8539 -0.4136
10063TIP3    H251681   3.783   5.167  11.929  1.1861  2.4106 -0.7664
10064TIP3   OH251682   4.304   1.999   1.532  0.2148 -0.7110 -0.4123
10064TIP3    H151683   4.223   1.988   1.582 -0.1942  0.8663 -0.6599
10064TIP3    H251684   4.334   2.088   1.554  1.6449 -1.1028 -0.6707
10065TIP3   OH251685   6.647   0.570   1.061  0.4000  0.7710 -0.7459
10065TIP3    H151686   6.587   0.514   1.012  0.0848  0.9790 -0.5994
10065TIP3    H251687   6.718   0.512   1.088 -0.2314  0.3053 -0.0578
10066TIP3   OH251688   2.620   5.612   1.239  0.4839  0.2310  0.3941
10066TIP3    H151689   2.679   5.537   1.249  2.1175  1.6133  1.7570
10066TIP3    H251690   2.550   5.597   1.302  1.9459  0.8241  2.2432
10067TIP3   OH251691   6.619   2.391  14.046 -0.6931 -0.6870  0.1727
10067TIP3    H151692   6.551   2.365  13.984 -0.5770 -0.7167  0.0559
10067TIP3    H251693   6.650   2.476  14.012 -1.4191 -0.1476  0.8364
10068TIP3   OH251694   0.624   4.106  13.966  0.5091  0.3612  0.0804
10068TIP3    H151695   0.656   4.153  14.043  3.1447 -1.6380  0.3531
10068TIP3    H251696   0.680   4.135  13.895  2.8594 -2.7589  0.4343
10069TIP3   OH251697   4.882   5.055  13.856 -0.3871 -0.3339  0.5049
10069TIP3    H151698   4.829   5.107  13.797 -0.5236 -1.1113 -0.0797
10069TIP3    H251699   4.853   4.965  13.841  1.4665 -0.8568 -0.2799
10070TIP3   OH251700   3.237   1.032   4.745  0.3785 -0.4519  0.2281
10070TIP3    H151701   3.247   0.997   4.834  1.7428 -0.6521  0.0219
10070TIP3    H251702   3.308   0.990   4.695  1.1959  1.5344 -0.3586
10071TIP3   OH251703   4.513   5.696  13.758  0.4158  0.1425  0.7832
10071TIP3    H151704   4.587   5.640  13.731 -0.1320 -1.7402  2.8360
10071TIP3    H251705   4.533   5.718  13.849 -0.4599  1.5466  0.6469
10072TIP3   OH251706   2.918   2.288   2.169  0.6465 -0.0201  0.4622
10072TIP3    H151707   2.855   2.357   2.187 -0.8395 -0.9092 -1.0054
10072TIP3    H251708   2.913   2.230   2.245 -0.4482 -0.1556  0.3008
10073TIP3   OH251709   2.485   4.818   5.255 -0.3443 -0.6754 -0.2367
10073TIP3    H151710   2.498   4.840   5.163  0.5740 -1.8283 -0.3963
10073TIP3    H251711   2.420   4.882   5.285 -0.6853 -0.2975 -1.6765
10074TIP3   OH251712   2.550   4.240   0.380 -0.6320 -0.4640  0.3921
10074TIP3    H151713   2.611   4.269   0.448 -2.5165  0.3402  1.8247
10074TIP3    H251714   2.464   4.244   0.422 -1.7140 -1.3736 -1.6111
10075TIP3   OH251715   3.750   2.577   1.052  0.1012 -0.3375  0.2007
10075TIP3    H151716   3.766   2.542   0.964 -2.1483  0.1973 -0.5012
10075TIP3    H251717   3.756   2.501   1.109  0.2768 -0.9526 -0.6102
10076TIP3   OH251718   2.880   4.969   0.188  0.0936  0.5557 -0.5203
10076TIP3    H151719   2.848   5.059   0.193  0.7647  0.7361  1.3562
10076TIP3    H251720   2.819   4.918   0.241  0.8860  0.2889  0.1593
10077TIP3   OH251721   1.756   3.605   0.377 -0.5721 -0.1138 -0.5759
10077TIP3    H151722   1.669   3.641   0.394 -0.4464  0.7413 -1.6613
10077TIP3    H251723   1.767   3.610   0.282  0.0156 -1.7726 -0.6348
10078TIP3   OH251724   1.807   5.336   2.713 -0.5091  0.3555 -0.3572
10078TIP3    H151725   1.787   5.378   2.629  0.1186 -0.7313 -1.0767
10078TIP3    H251726   1.804   5.242   2.694 -0.1902  0.0997  0.7965
10079TIP3   OH251727   6.118   1.314  15.419  0.4029  0.3095 -0.0934
10079TIP3    H151728   6.183   1.285  15.482 -0.7134 -1.7774  0.1995
10079TIP3    H251729   6.123   1.250  15.348 -2.8018 -1.3950  1.0003
10080TIP3   OH251730   2.667   3.788  16.376 -0.6459 -0.3493 -0.1839
10080TIP3    H151731   2.679   3.697  16.405 -0.0443 -0.2173  0.0007
10080TIP3    H251732   2.596   3.784  16.313 -0.4579 -0.9923 -0.3606
10081TIP3   OH251733   6.108   0.722   0.835  0.1632 -0.1295  0.8232
10081TIP3    H151734   6.097   0.817   0.827 -1.0571 -0.3712 -0.9658
10081TIP3    H251735   6.197   0.706   0.804 -0.8190  0.1524 -2.5520
10082TIP3   OH251736   4.637   5.575   1.407 -0.5801 -0.6748 -0.4523
10082TIP3    H151737   4.589   5.492   1.403 -0.8442 -0.5884  0.7056
10082TIP3    H251738   4.657   5.587   1.499  1.3037 -0.4675 -0.8633
10083TIP3   OH251739   5.598   1.978   6.360  0.0545  0.4677  0.1681
10083TIP3    H151740   5.522   2.025   6.328  0.2021  0.4446 -0.2195
10083TIP3    H251741   5.562   1.904   6.409 -0.2438 -1.6883 -3.0341
10084TIP3   OH251742   4.010   2.142   0.748 -0.6447  0.6838 -0.1588
10084TIP3    H151743   4.033   2.066   0.801 -0.4480  1.7945  1.4021
10084TIP3    H251744   4.090   2.160   0.699  0.3856  1.7263  1.7990
10085TIP3   OH251745   0.034   1.085   2.823 -0.4335 -1.1264 -0.1488
10085TIP3    H151746   0.130   1.076   2.819 -0.4474 -0.9356 -2.8485
10085TIP3    H251747   0.008   1.102   2.732 -3.1372 -2.0603  0.3608
10086TIP3   OH251748   4.019   5.382   5.513 -0.2737  0.0798  0.0556
10086TIP3    H151749   4.071   5.400   5.434 -0.3578 -0.4083 -0.1138
10086TIP3    H251750   3.995   5.469   5.545  1.2709  0.3564  0.5639
10087TIP3   OH251751   3.457   0.442   1.538  0.4975 -0.0665  0.1707
10087TIP3    H151752   3.459   0.399   1.623 -0.7978 -0.5673 -0.0367
10087TIP3    H251753   3.530   0.402   1.490  0.0779 -1.1552  0.4079
10088TIP3   OH251754   4.425   0.963  15.670 -0.7047 -0.4534  0.0006
10088TIP3    H151755   4.345   0.948  15.720 -1.6363  0.7524 -1.0606
10088TIP3    H251756   4.397   1.012  15.593  0.9005 -0.9902 -0.9805
10089TIP3   OH251757   4.183   0.495  11.592 -0.1566 -0.4620 -0.2098
10089TIP3    H151758   4.111   0.441  11.561 -1.0287 -0.6690  1.9916
10089TIP3    H251759   4.259   0.437  11.590 -0.6860 -1.1940  0.2560
10090TIP3   OH251760   1.542   6.197  14.544  0.1718 -0.1489 -0.2456
10090TIP3    H151761   1.623   6.248  14.550  0.5930 -0.7753 -0.5957
10090TIP3    H251762   1.493   6.223  14.622  0.7400  0.1750  0.0156
10091TIP3   OH251763   4.193   0.594  16.868  0.1210 -0.1690 -0.6839
10091TIP3    H151764   4.181   0.580  16.962  0.8289 -0.3788 -0.6200
10091TIP3    H251765   4.142   0.524  16.827  1.2006 -1.1295 -0.4182
10092TIP3   OH251766   4.614   4.018  17.152 -0.5835  0.0157  0.1045
10092TIP3    H151767   4.696   4.006  17.103 -2.0082 -0.1808 -2.4454
10092TIP3    H251768   4.641   4.028  17.243  2.2722  0.2043 -0.6713
10093TIP3   OH251769   5.316   4.167  15.193 -0.0902  0.0877 -0.7417
10093TIP3    H151770   5.225   4.143  15.180 -0.5157  0.6955  0.8281
10093TIP3    H251771   5.360   4.084  15.214 -0.6996  0.0500  0.4744
10094TIP3   OH251772   1.352   5.427   0.934 -0.3278 -0.2711  0.6265
10094TIP3    H151773   1.418   5.496   0.924 -0.2886 -0.4969 -0.9108
10094TIP3    H251774   1.401   5.345   0.926 -0.5192 -0.4747  1.4445
10095TIP3   OH251775   4.552   2.930   3.491 -0.0464 -0.3873  0.2380
10095TIP3    H151776   4.502   2.850   3.508  0.5652 -0.7837  0.1811
10095TIP3    H251777   4.624   2.927   3.554  0.6424 -0.4599 -0.5401
10096TIP3   OH251778   6.780   6.320  15.690 -0.1674  0.0536  0.0249
10096TIP3    H151779   6.809   6.352  15.605 -1.2507  1.0878  0.0130
10096TIP3    H251780   6.689   6.349  15.696 -0.3976 -0.8335  1.1345
10097TIP3   OH251781   6.036   3.504  12.435  0.0594 -0.2772 -0.7193
10097TIP3    H151782   6.013   3.493  12.343  1.7276 -3.6747 -0.8958
10097TIP3    H251783   6.023   3.418  12.474 -0.9585  1.1282  2.4024
10098TIP3   OH251784   0.402   5.981  12.720 -0.2901 -0.1478 -0.6498
10098TIP3    H151785   0.470   5.932  12.765 -1.2967 -0.3425  0.7305
10098TIP3    H251786   0.392   5.936  12.636 -0.1932 -1.4329 -0.0023
10099TIP3   OH251787   5.229   1.590   3.645  0.0370  0.0180  0.4582
10099TIP3    H151788   5.275   1.634   3.574  1.0528 -0.5336  0.7509
10099TIP3    H251789   5.252   1.640   3.723  0.9477 -0.8218  0.7467
10100TIP3   OH251790   2.845   1.623   0.054  0.3297 -0.1672  0.4557
10100TIP3    H151791   2.866   1.645   0.145 -2.9463  1.5302  0.9320
10100TIP3    H251792   2.753   1.596   0.056 -0.8025  2.7616 -2.6649
10101TIP3   OH251793   6.764   3.899  12.444 -0.1982  0.1210  0.4377
10101TIP3    H151794   6.830   3.830  12.449  0.5813  0.7600 -0.7056
10101TIP3    H251795   6.785   3.948  12.365 -0.0137  2.4288  1.8182
10102TIP3   OH251796   2.537   1.340   5.027  0.1512 -0.3972 -0.2357
10102TIP3    H151797   2.611   1.326   4.969  0.7095  0.8555  0.1378
10102TIP3    H251798   2.501   1.425   4.999 -0.2682 -0.3257  0.5055
10103TIP3   OH251799   2.209   1.114  13.596  0.0909 -0.4629 -0.3999
10103TIP3    H151800   2.208   1.210  13.589  1.6854 -0.4964 -1.8179
10103TIP3    H251801   2.118   1.090  13.610 -0.4682  1.2169 -0.8887
10104TIP3   OH251802   5.681   2.728  14.838 -0.5337 -0.0104 -0.0405
10104TIP3    H151803   5.588   2.736  14.814 -0.8270 -2.5021 -0.0351
10104TIP3    H251804   5.692   2.787  14.912 -2.9190 -1.7485  1.8843
10105TIP3   OH251805   2.998   0.278  11.963 -0.1401 -0.0123 -0.2528
10105TIP3    H151806   2.987   0.370  11.941 -1.4729 -0.0804  0.0418
10105TIP3    H251807   2.995   0.233  11.878  1.0662  0.2514 -0.4453
10106TIP3   OH251808   5.270   1.935  13.985  0.5584 -0.4922 -0.0857
10106TIP3    H151809   5.184   1.894  14.001 -0.7984  1.8859 -0.7636
10106TIP3    H251810   5.323   1.910  14.061 -0.6294 -2.2376  0.2291
10107TIP3   OH251811   1.889   4.194   4.210  0.9266  0.2593  0.2777
10107TIP3    H151812   1.905   4.279   4.170 -1.0703 -0.1517 -1.6589
10107TIP3    H251813   1.970   4.144   4.195  0.5364  0.3562 -2.8976
10108TIP3   OH251814   2.171   3.062   4.717  0.2874  0.0872 -0.0966
10108TIP3    H151815   2.173   3.074   4.812 -1.3836 -0.1187  0.0090
10108TIP3    H251816   2.253   3.018   4.696  0.2606 -0.7612  1.4046
10109TIP3   OH251817   1.929   3.541  12.934  0.2156  0.2998 -0.1728
10109TIP3    H151818   1.853   3.504  12.980 -0.2344  0.4171 -0.8009
10109TIP3    H251819   1.912   3.522  12.842  0.1059  1.8009 -0.4946
10110TIP3   OH251820   4.430   2.177  12.128  0.5009 -0.0799  0.0885
10110TIP3    H151821   4.461   2.244  12.068  2.8524  0.1062  1.4003
10110TIP3    H251822   4.442   2.095  12.081  1.9983  0.0910  0.1173
10111TIP3   OH251823   3.573   6.622  15.735 -0.0250  0.2803  0.2340
10111TIP3    H151824   3.530   6.631  15.820 -1.5722  0.4880 -0.5483
10111TIP3    H251825   3.520   6.673  15.675 -0.0905 -1.4313 -1.2476
10112TIP3   OH251826   3.250   3.093  11.395  0.6303 -0.4484 -0.1341
10112TIP3    H151827   3.252   3.129  11.484 -2.5473 -0.1544 -0.0463
10112TIP3    H251828   3.242   2.999  11.407  2.0390 -0.5893 -0.1890
10113TIP3   OH251829   2.615   6.306  17.176 -0.1794  0.4391 -0.2691
10113TIP3    H151830   2.627   6.318  17.082 -0.2560 -0.4021 -0.3978
10113TIP3    H251831   2.704   6.295  17.210 -0.1035  1.4065 -0.1370
10114TIP3   OH251832   6.572   5.140  16.499  0.0459 -0.2402 -0.2251
10114TIP3    H151833   6.596   5.084  16.573  0.9044 -1.5014 -1.3953
10114TIP3    H251834   6.633   5.114  16.429 -0.4941  1.1654 -1.2569
10115TIP3   OH251835   4.862   2.370  11.720 -0.8231  0.0484 -0.5103
10115TIP3    H151836   4.835   2.280  11.738 -2.2483  0.5519 -0.0279
10115TIP3    H251837   4.781   2.417  11.699 -0.1287  1.2625 -0.6146
10116TIP3   OH251838   0.982   3.280  15.838 -0.1552 -0.1044  0.4885
10116TIP3    H151839   1.027   3.335  15.902  0.7861 -0.6220  0.3021
10116TIP3    H251840   0.950   3.340  15.772  1.2315  0.2119  0.0623
10117TIP3   OH251841   0.792   3.971  15.896  0.2281  0.4944 -0.4454
10117TIP3    H151842   0.735   4.004  15.965  3.0923  0.2923  2.2482
10117TIP3    H251843   0.814   4.048  15.844 -0.7531  0.9531 -0.1914
10118TIP3   OH251844   3.913   3.807  12.709 -0.6604 -0.1637  0.2344
10118TIP3    H151845   3.882   3.836  12.623 -2.8102 -1.0918  0.6432
10118TIP3    H251846   3.884   3.877  12.769  1.3773  0.7945  0.1838
10119TIP3   OH251847   4.294   4.933  16.214  0.0529  0.4650 -0.1157
10119TIP3    H151848   4.231   4.999  16.243 -0.3450 -0.6498  1.6981
10119TIP3    H251849   4.379   4.979  16.216 -0.4759  1.5469 -1.1386
10120TIP3   OH251850   0.465   4.347   4.488  0.0890  0.1971  0.7139
10120TIP3    H151851   0.530   4.404   4.447  0.8043 -1.5054 -0.6686
10120TIP3    H251852   0.384   4.398   4.488  0.7824  1.3496 -0.1170
10121TIP3   OH251853   0.643   1.834  15.520  0.0734  0.5198 -1.1619
10121TIP3    H151854   0.586   1.870  15.588  1.0195 -2.6746  1.6111
10121TIP3    H251855   0.716   1.895  15.515 -0.5741  1.4138 -0.1196
10122TIP3   OH251856   4.276   0.711   2.859 -0.4001 -0.5090  0.5029
10122TIP3    H151857   4.201   0.766   2.838 -0.3415 -0.5861  0.0867
10122TIP3    H251858   4.241   0.622   2.860 -0.8029 -0.3866  2.5447
10123TIP3   OH251859   1.877   3.312   3.462  0.4232  0.2099 -0.3415
10123TIP3    H151860   1.925   3.257   3.400 -0.3980  1.1980 -1.9035
10123TIP3    H251861   1.890   3.401   3.430 -0.7688  0.6575  0.3800
10124TIP3   OH251862   3.457   2.523   1.774  0.1276 -0.7871 -0.1675
10124TIP3    H151863   3.397   2.527   1.699 -0.2405  0.7432  0.1724
10124TIP3    H251864   3.470   2.615   1.799  0.9778 -1.2211  1.0720
10125TIP3   OH251865   5.710   1.606  12.263 -0.0144  0.2469 -0.2407
10125TIP3    H151866   5.648   1.621  12.334  1.7368  3.3895  0.7998
10125TIP3    H251867   5.783   1.559  12.304  0.0119  0.0253 -0.5355
10126TIP3   OH251868   3.065   5.468  15.856 -0.2671 -0.3501  0.2603
10126TIP3    H151869   3.095   5.554  15.887 -2.7791  1.2287 -1.2686
10126TIP3    H251870   3.118   5.451  15.778  0.7257 -0.5817  0.9635
10127TIP3   OH251871   6.736   4.352  16.039 -0.0094 -0.2679  0.2650
10127TIP3    H151872   6.677   4.415  16.081  0.6731  0.5620  0.0139
10127TIP3    H251873   6.765   4.295  16.110  0.0962  0.2979  0.6836
10128TIP3   OH251874   1.961   5.689   4.111 -0.2089 -0.0582  0.1020
10128TIP3    H151875   2.005   5.716   4.030 -1.8165  3.4544  0.2429
10128TIP3    H251876   1.878   5.651   4.082 -0.3865  0.3483  0.0798
10129TIP3   OH251877   2.094   5.147   0.585  0.7023 -0.3298 -0.6519
10129TIP3    H151878   2.015   5.137   0.638  1.8144 -0.3536  1.0700
10129TIP3    H251879   2.105   5.241   0.575  1.3053 -0.2700  0.4696
10130TIP3   OH251880   3.838   5.519   1.862  0.1417  0.5300 -0.4826
10130TIP3    H151881   3.914   5.575   1.846 -0.2094  0.9721 -0.6084
10130TIP3    H251882   3.779   5.573   1.915 -0.6598  0.6596 -1.4721
10131TIP3   OH251883   6.068   4.157  13.746  0.3702 -0.2908  0.2984
10131TIP3    H151884   6.014   4.101  13.689  0.8953  0.3586 -0.8795
10131TIP3    H251885   6.158   4.139  13.718  0.7714 -1.0129  1.9226
10132TIP3   OH251886   6.028   2.539   1.922  0.0191  0.2652 -0.5113
10132TIP3    H151887   6.074   2.623   1.913  0.2650  0.1539 -0.3015
10132TIP3    H251888   6.095   2.474   1.901 -0.8252  0.1746 -3.4298
10133TIP3   OH251889   1.982   1.902  15.551  0.3093  0.0372  0.8848
10133TIP3    H151890   1.946   1.978  15.597  3.0853  1.3111  1.1654
10133TIP3    H251891   1.958   1.827  15.605  1.3763  1.2344  3.1445
10134TIP3   OH251892   5.833   4.997  13.602  0.0483 -0.4303 -0.0737
10134TIP3    H151893   5.743   4.973  13.580  0.3685 -0.9183 -0.8736
10134TIP3    H251894   5.830   5.014  13.696 -1.2150  1.1132 -0.3336
10135TIP3   OH251895   2.982   0.807   4.865  0.3344  1.0644 -0.4366
10135TIP3    H151896   2.931   0.822   4.786 -0.3750 -2.1448 -0.7561
10135TIP3    H251897   3.023   0.721   4.850 -0.7911 -0.2505  3.1173
10136TIP3   OH251898   1.882   0.224  15.023 -0.2412  0.4515 -0.6144
10136TIP3    H151899   1.795   0.184  15.024 -0.0220 -0.2460 -3.3320
10136TIP3    H251900   1.870   0.308  14.978  0.4577  0.4261 -0.8648
10137TIP3   OH251901   2.926   1.246   1.513 -0.6548 -0.3731 -0.1272
10137TIP3    H151902   2.885   1.196   1.584 -0.6829 -1.5168 -0.9187
10137TIP3    H251903   3.003   1.286   1.553 -0.0010 -1.9643  0.3156
10138TIP3   OH251904   1.167   6.766  13.792  0.0642 -0.0224 -0.1878
10138TIP3    H151905   1.135   6.781  13.880  0.2437 -1.1753  0.0875
10138TIP3    H251906   1.142   6.676  13.771  0.3154  0.1165 -1.1826
10139TIP3   OH251907   6.109   0.773   3.933  0.0175 -0.1049  0.4587
10139TIP3    H151908   6.037   0.810   3.882  1.4622  0.1764 -1.4515
10139TIP3    H251909   6.118   0.684   3.900  1.0933  0.1398  0.0722
10140TIP3   OH251910   2.772   4.292  14.873  0.1719 -0.6398  0.5384
10140TIP3    H151911   2.835   4.248  14.815  0.2988  0.3436 -0.0925
10140TIP3    H251912   2.821   4.309  14.953  0.1151 -1.6587  0.8016
10141TIP3   OH251913   3.793   3.576   5.287 -0.3107 -0.8782 -0.3033
10141TIP3    H151914   3.846   3.617   5.219 -1.5578  0.3279 -0.5861
10141TIP3    H251915   3.852   3.513   5.329  1.3198  0.3986 -0.5973
10142TIP3   OH251916   6.492   3.990  15.830  0.0399  0.0713  0.7189
10142TIP3    H151917   6.423   3.990  15.763 -0.0332  0.6688  0.7960
10142TIP3    H251918   6.497   4.080  15.860  2.4682  0.5776 -0.9521
10143TIP3   OH251919   4.098   0.676   2.379  0.2393  0.2547 -0.3770
10143TIP3    H151920   4.171   0.734   2.359 -0.3502  1.0613 -0.2651
10143TIP3    H251921   4.023   0.735   2.389 -0.6349 -0.6181 -1.4749
10144TIP3   OH251922   6.739   3.568  12.982  0.1908  0.0632 -0.0993
10144TIP3    H151923   6.776   3.620  13.054  0.8442  0.5103 -0.7464
10144TIP3    H251924   6.731   3.630  12.910  1.6123 -0.8589 -1.1061
10145TIP3   OH251925   3.939   1.702  14.043 -0.6630  0.3375  0.5881
10145TIP3    H151926   3.854   1.692  14.086 -2.5207  3.7500 -1.8444
10145TIP3    H251927   3.932   1.652  13.962 -0.9670  1.7703 -0.3004
10146TIP3   OH251928   3.608   3.309   3.876 -0.7202 -0.0786  0.1783
10146TIP3    H151929   3.591   3.389   3.826 -0.4190  0.6466  1.1808
10146TIP3    H251930   3.549   3.316   3.951 -1.0102 -1.0335  0.0457
10147TIP3   OH251931   4.445   6.139  17.215 -0.8368 -0.7436  0.0060
10147TIP3    H151932   4.464   6.074  17.282  1.7652 -0.0396  0.0363
10147TIP3    H251933   4.462   6.223  17.257 -1.5442 -0.1657 -0.8275
10148TIP3   OH251934   0.757   3.709  12.750 -0.0664 -0.0991 -0.0734
10148TIP3    H151935   0.777   3.629  12.800 -2.2180 -0.8538 -0.3065
10148TIP3    H251936   0.664   3.700  12.727 -0.4312  2.5915  0.0778
10149TIP3   OH251937   4.616   0.066   5.229 -0.1057  0.0287  0.2321
10149TIP3    H151938   4.540   0.092   5.279 -0.2768  2.0908 -1.0109
10149TIP3    H251939   4.581   0.012   5.157 -0.1208 -0.8650  0.8947
10150TIP3   OH251940   6.125   6.658  12.371  0.1193  0.0733 -0.6228
10150TIP3    H151941   6.090   6.739  12.408 -1.2928 -0.1493 -1.3813
10150TIP3    H251942   6.112   6.592  12.439 -0.2077  0.1705 -0.5881
10151TIP3   OH251943   2.085   0.434  11.615 -0.4700 -0.3787  0.7123
10151TIP3    H151944   2.134   0.487  11.677 -0.4392  0.7339 -0.2178
10151TIP3    H251945   2.015   0.491  11.584  0.5168 -0.2538 -1.5223
10152TIP3   OH251946   2.584   4.413   3.121 -0.4133 -0.1920  0.5532
10152TIP3    H151947   2.505   4.387   3.075 -2.2300  2.1823  2.0319
10152TIP3    H251948   2.650   4.427   3.053 -1.2519 -2.1647 -0.7179
10153TIP3   OH251949   2.252   6.631   4.142 -0.2426  0.0178 -0.1384
10153TIP3    H151950   2.236   6.706   4.086 -1.5283 -1.7308 -2.2954
10153TIP3    H251951   2.192   6.642   4.216  0.8885  1.9425  0.5571
10154TIP3   OH251952   0.853   5.181   1.323  0.0280  0.2224 -0.1706
10154TIP3    H151953   0.883   5.266   1.290 -0.0131 -0.4035 -1.9408
10154TIP3    H251954   0.927   5.146   1.372  0.5923  0.6415 -0.7035
10155TIP3   OH251955   6.066   6.818  15.017 -0.1575  0.0800 -0.5898
10155TIP3    H151956   6.046   6.877  15.090  0.3713 -0.4358 -0.0203
10155TIP3    H251957   5.992   6.829  14.957  0.0631  1.5284 -0.6379
10156TIP3   OH251958   1.673   0.971   1.457  0.0244  0.5462 -0.2464
10156TIP3    H151959   1.604   1.016   1.505  1.0508  3.0336 -0.9386
10156TIP3    H251960   1.666   0.880   1.485 -2.4794  1.0029  0.8878
10157TIP3   OH251961   0.090   4.415  13.719 -0.1710 -0.3772 -0.3260
10157TIP3    H151962   0.167   4.451  13.676  0.6217 -1.4588  0.1405
10157TIP3    H251963   0.028   4.488  13.723  0.6372  0.3754 -1.1376
10158TIP3   OH251964   4.758   4.039  14.660  0.4183  0.0452 -0.3008
10158TIP3    H151965   4.834   4.066  14.608  0.4741 -2.7189 -1.8133
10158TIP3    H251966   4.684   4.042  14.599  0.1827 -1.6433 -0.1394
10159TIP3   OH251967   4.317   4.930  11.118 -0.1678 -0.9324 -0.1791
10159TIP3    H151968   4.357   5.006  11.160  0.3971 -1.6480  0.6084
10159TIP3    H251969   4.279   4.965  11.037 -0.8747  0.3765  0.6885
10160TIP3   OH251970   2.114   2.635  15.852 -0.2683  0.4423 -0.1103
10160TIP3    H151971   2.177   2.701  15.825  1.2411 -0.9627 -0.2379
10160TIP3    H251972   2.039   2.648  15.795  0.9184  0.6008 -1.7223
10161TIP3   OH251973   6.410   5.877   5.384  0.1446  0.1901 -0.2900
10161TIP3    H151974   6.500   5.893   5.412  0.6419  0.2671 -1.8042
10161TIP3    H251975   6.358   5.942   5.431  0.7473 -0.3591  1.1997
10162TIP3   OH251976   3.164   2.479  15.722  0.1550  0.1385 -0.1590
10162TIP3    H151977   3.252   2.484  15.684 -0.5483 -1.7927 -2.2868
10162TIP3    H251978   3.153   2.387  15.746 -1.3243  0.3007 -0.0892
10163TIP3   OH251979   5.284   6.683  17.181  0.1022  0.7258 -0.6193
10163TIP3    H151980   5.321   6.770  17.169 -0.4040  0.8197 -1.5466
10163TIP3    H251981   5.303   6.637  17.099  0.4050 -0.0553 -0.1264
10164TIP3   OH251982   1.240   0.267  10.477  0.2758 -0.1680  0.0594
10164TIP3    H151983   1.183   0.208  10.527  0.8610 -0.4724  0.3824
10164TIP3    H251984   1.267   0.216  10.401  1.0117 -0.4392  0.4843
10165TIP3   OH251985   4.296   2.193   0.105 -0.1529  0.6733  0.7405
10165TIP3    H151986   4.255   2.199   0.019  1.6598  4.9571 -0.1120
10165TIP3    H251987   4.234   2.234   0.165  0.1641  1.2349  0.6922
10166TIP3   OH251988   5.080   6.466  13.436 -0.3112  0.3922  0.4869
10166TIP3    H151989   5.130   6.511  13.504  0.2565  0.0669  0.2934
10166TIP3    H251990   5.007   6.525  13.417 -1.9878 -0.5900  3.1927
10167TIP3   OH251991   4.346   4.564  14.857  0.4277 -0.4130  0.1967
10167TIP3    H151992   4.397   4.527  14.929  0.6085 -1.6260 -0.5103
10167TIP3    H251993   4.259   4.577  14.893  0.6058 -0.6841  0.7300
10168TIP3   OH251994   2.374   0.981   5.548  0.5426 -0.3425  0.1745
10168TIP3    H151995   2.463   1.014   5.559 -0.8399  3.4947  1.7187
10168TIP3    H251996   2.364   0.917   5.619  2.3505 -1.8181 -0.8101
10169TIP3   OH251997   6.431   0.841   1.661 -0.2959 -0.6419  0.2267
10169TIP3    H151998   6.503   0.901   1.641  0.0301 -0.8832  0.6467
10169TIP3    H251999   6.435   0.831   1.756  0.8496 -2.8051 -0.0020
10170TIP3   OH252000   3.224   4.570   2.047  0.1824  0.2318  0.4786
10170TIP3    H152001   3.162   4.634   2.012  0.0594  0.0100  0.2829
10170TIP3    H252002   3.286   4.555   1.975 -0.6958 -1.0392 -0.0629
10171TIP3   OH252003   0.408   2.490  12.409  0.0333 -0.2837 -0.1727
10171TIP3    H152004   0.381   2.569  12.362  2.1837  0.3196 -0.5022
10171TIP3    H252005   0.348   2.422  12.378 -1.5066  1.0760 -0.2984
10172TIP3   OH252006   1.449   0.988   4.084  0.1953  0.2320 -0.2281
10172TIP3    H152007   1.524   1.020   4.135 -0.4837 -0.1117  1.0275
10172TIP3    H252008   1.376   0.987   4.147 -0.3129 -1.7261 -0.7896
10173TIP3   OH252009   0.771   0.625  15.497  0.0230 -0.3052 -0.0450
10173TIP3    H152010   0.691   0.593  15.537  0.2617  0.9606  1.5181
10173TIP3    H252011   0.823   0.546  15.480 -2.1011 -1.3300 -2.5582
10174TIP3   OH252012   3.107   5.137  15.615  0.4687  0.1797 -0.6494
10174TIP3    H152013   3.131   5.188  15.693 -1.0788  0.9804 -0.6506
10174TIP3    H252014   3.096   5.203  15.547  1.0992 -0.4526 -1.3761
10175TIP3   OH252015   4.738   2.269   1.253  0.1633  0.1997 -0.0337
10175TIP3    H152016   4.674   2.198   1.243  1.1891 -0.8281  0.5263
10175TIP3    H252017   4.736   2.290   1.346  0.0467  0.7578 -0.1556
10176TIP3   OH252018   4.785   2.814   3.991 -0.0605 -0.2285 -0.3286
10176TIP3    H152019   4.755   2.751   4.057  2.0090 -1.4797 -0.4843
10176TIP3    H252020   4.756   2.777   3.908 -0.4961  0.0451 -0.3034
10177TIP3   OH252021   6.657   0.999   0.492 -0.4889 -0.2665  0.1153
10177TIP3    H152022   6.689   0.912   0.468 -0.5475 -0.0313 -0.8491
10177TIP3    H252023   6.620   0.987   0.580  1.3913 -0.7496  0.9064
10178TIP3   OH252024   5.952   5.487   1.053 -0.5450 -0.4396 -0.1706
10178TIP3    H152025   6.006   5.552   1.007  0.2236 -1.0133 -0.1086
10178TIP3    H252026   5.887   5.539   1.100 -0.3982  0.2384 -0.7041
10179TIP3   OH252027   1.867   5.595   0.864 -0.1285 -0.4275  0.3318
10179TIP3    H152028   1.855   5.671   0.921 -0.5518 -1.0458  1.0891
10179TIP3    H252029   1.876   5.632   0.776  0.2017  0.5226  0.7574
10180TIP3   OH252030   4.663   0.254   2.630  0.6631 -0.0259  0.3570
10180TIP3    H152031   4.731   0.197   2.667  0.6367 -0.0643  0.3474
10180TIP3    H252032   4.665   0.332   2.685  1.0545  0.1818  0.0554
10181TIP3   OH252033   2.480   2.680   5.073 -0.3575 -0.4627 -0.3667
10181TIP3    H152034   2.476   2.776   5.074  2.8287 -0.1615 -2.3124
10181TIP3    H252035   2.504   2.656   5.162  1.5445  0.8261 -0.4864
10182TIP3   OH252036   5.124   3.109   3.336 -0.0802  0.2927 -0.6236
10182TIP3    H152037   5.143   3.048   3.406 -1.1714 -0.8567 -1.2966
10182TIP3    H252038   5.204   3.162   3.328  0.2183  0.1727  1.1584
10183TIP3   OH252039   2.530   0.686  16.262 -0.2751 -0.6231  0.0488
10183TIP3    H152040   2.536   0.776  16.230 -0.2167 -1.0965 -1.3716
10183TIP3    H252041   2.506   0.635  16.184  2.2072 -2.1696  0.1902
10184TIP3   OH252042   0.999   3.848  14.701 -0.4306  0.1837  0.2247
10184TIP3    H152043   1.028   3.891  14.621  0.0025  0.1913  0.3826
10184TIP3    H252044   1.074   3.855  14.760 -0.7787  0.2628  0.6622
10185TIP3   OH252045   5.782   6.743   1.277  0.2625  0.3060 -0.2272
10185TIP3    H152046   5.796   6.651   1.257 -0.7282  0.3531 -1.1670
10185TIP3    H252047   5.819   6.790   1.203 -0.8780  0.5875 -0.6338
10186TIP3   OH252048   3.017   3.452  13.187 -0.4469 -0.2756 -0.1565
10186TIP3    H152049   2.947   3.447  13.121 -0.6330 -1.1963  0.0999
10186TIP3    H252050   2.989   3.392  13.256 -0.6311  1.2422  1.1523
10187TIP3   OH252051   4.936   6.393   0.333  0.6210 -0.4757  0.3071
10187TIP3    H152052   4.899   6.430   0.413  0.6875  0.8926 -0.2671
10187TIP3    H252053   4.881   6.427   0.263  3.2551  2.3038 -0.6649
10188TIP3   OH252054   5.963   6.250  17.040  0.5410  0.5818 -0.0527
10188TIP3    H152055   6.013   6.168  17.033  0.2928  0.4509 -0.3153
10188TIP3    H252056   5.872   6.222  17.046  0.5966  0.6815  3.0971
10189TIP3   OH252057   6.188   4.949  11.036 -0.1950 -0.3116  0.1052
10189TIP3    H152058   6.244   4.892  10.984  1.5442 -0.8588  2.4124
10189TIP3    H252059   6.212   4.930  11.126 -3.5558  0.0749  1.2117
10190TIP3   OH252060   1.646   4.823   3.406 -0.2253  0.4216  0.1949
10190TIP3    H152061   1.551   4.812   3.402 -0.2104  0.6272 -1.5777
10190TIP3    H252062   1.674   4.823   3.315  1.4724  0.5219  0.6791
10191TIP3   OH252063   1.726   0.832  11.160  0.0158  0.0196  0.1561
10191TIP3    H152064   1.657   0.769  11.178  1.9961 -1.1910  4.8613
10191TIP3    H252065   1.695   0.913  11.201 -0.3295  0.7508 -1.4650
10192TIP3   OH252066   6.092   5.959   2.878 -0.6300 -0.4015 -0.0833
10192TIP3    H152067   6.120   5.966   2.970  1.0648 -1.9660 -0.4159
10192TIP3    H252068   6.115   5.869   2.853 -1.5554 -0.1765 -1.8926
10193TIP3   OH252069   1.262   0.958  13.339  0.1942 -0.6265  0.3358
10193TIP3    H152070   1.314   0.966  13.259  0.6057  1.3979  0.7520
10193TIP3    H252071   1.312   0.896  13.393  1.1721 -0.2003 -0.0482
10194TIP3   OH252072   1.207   3.077  16.965 -0.4238  0.3682 -0.5278
10194TIP3    H152073   1.138   3.069  17.031  0.6662  0.7813  0.7077
10194TIP3    H252074   1.221   2.988  16.934 -0.3914  0.0283  0.4149
10195TIP3   OH252075   5.669   4.744   0.304  0.5610 -0.1568 -0.5459
10195TIP3    H152076   5.583   4.774   0.331  1.1595  1.5592 -0.4106
10195TIP3    H252077   5.656   4.653   0.275 -1.7542  0.8062 -2.8552
10196TIP3   OH252078   4.240   1.665   4.004 -0.1259 -0.0823 -0.1064
10196TIP3    H152079   4.153   1.706   4.003  0.6446  1.7825  1.4743
10196TIP3    H252080   4.258   1.644   3.913 -1.1515  1.9586 -0.8484
10197TIP3   OH252081   1.410   2.227  14.348  0.0013 -0.0751  0.1812
10197TIP3    H152082   1.347   2.167  14.387 -0.2577 -1.2666 -1.9268
10197TIP3    H252083   1.475   2.241  14.417 -1.2913 -0.6967  1.5962
10198TIP3   OH252084   3.495   2.405   3.767 -0.6722 -0.3373 -0.2504
10198TIP3    H152085   3.564   2.380   3.828 -0.2886  0.1795 -0.4581
10198TIP3    H252086   3.434   2.332   3.767  0.0703 -0.9704 -0.3410
10199TIP3   OH252087   1.995   3.086  15.499  0.5789 -0.1165 -0.2501
10199TIP3    H152088   1.902   3.084  15.523  0.5734 -1.0062 -0.2990
10199TIP3    H252089   2.009   3.174  15.466 -0.1033  0.2308  0.3315
10200TIP3   OH252090   5.266   1.688   1.906  0.0069  0.1644 -0.3612
10200TIP3    H152091   5.340   1.717   1.960  1.1339 -1.6047 -0.8581
10200TIP3    H252092   5.209   1.641   1.967  0.0517  0.2526 -0.2499
10201TIP3   OH252093   5.574   5.181   4.105 -0.3580 -0.1084  0.3098
10201TIP3    H152094   5.486   5.196   4.069 -0.3026  1.2119  0.6586
10201TIP3    H252095   5.565   5.203   4.198 -0.2128 -2.3266  0.8897
10202TIP3   OH252096   2.960   4.234  14.233 -0.2080  0.3525 -0.2950
10202TIP3    H152097   3.014   4.201  14.305 -1.7229  0.6943  1.0475
10202TIP3    H252098   2.895   4.165  14.219  0.7706 -0.2416 -2.1761
10203TIP3   OH252099   6.684   2.177  11.957  0.0490  0.2485 -0.2302
10203TIP3    H152100   6.602   2.204  11.999 -0.3875  0.0871 -0.9458
10203TIP3    H252101   6.707   2.250  11.900 -0.2514 -0.1852 -0.9289
10204TIP3   OH252102   2.192   5.230   2.126 -0.0061  0.7547  0.1738
10204TIP3    H152103   2.120   5.289   2.103  0.2991  0.8109 -0.6636
10204TIP3    H252104   2.237   5.274   2.198 -0.9283  0.6184  0.8429
10205TIP3   OH252105   6.616   5.420   2.260 -0.3775 -0.0441 -0.6481
10205TIP3    H152106   6.573   5.424   2.174 -0.9080 -1.4297 -0.4754
10205TIP3    H252107   6.701   5.461   2.246 -0.3391 -0.5071 -1.9318
10206TIP3   OH252108   5.065   4.551  16.063  0.1819 -0.5135  0.0867
10206TIP3    H152109   5.060   4.527  16.155  0.1605 -0.7388  0.0291
10206TIP3    H252110   5.144   4.506  16.031  0.4130 -0.1072  0.0914
10207TIP3   OH252111   0.560   1.632   2.611 -0.3819 -0.0871  0.6179
10207TIP3    H152112   0.543   1.692   2.683 -1.5021 -1.0611  1.1994
10207TIP3    H252113   0.645   1.593   2.631  0.2476  1.1075  0.3524
10208TIP3   OH252114   2.065   4.216   2.327 -0.0683 -0.5377  0.1349
10208TIP3    H152115   2.111   4.180   2.251 -0.7441 -0.6552 -0.2199
10208TIP3    H252116   2.052   4.141   2.385 -0.0674 -0.5540  0.1140
10209TIP3   OH252117   6.703   4.880  12.436  0.0605 -0.3315 -0.1887
10209TIP3    H152118   6.705   4.872  12.341 -0.4518  0.0657 -0.2411
10209TIP3    H252119   6.687   4.791  12.467  0.4907 -0.5056 -0.4606
10210TIP3   OH252120   2.495   0.040   2.983 -0.3154  0.1099  0.2127
10210TIP3    H152121   2.416   0.077   2.945 -0.9283  0.9632  2.1998
10210TIP3    H252122   2.467  -0.043   3.021 -0.4757  0.7970  1.6423
10211TIP3   OH252123   3.747   4.844  15.968 -0.4918  0.0119  0.0102
10211TIP3    H152124   3.802   4.903  16.020  0.0492  0.5711 -1.1444
10211TIP3    H252125   3.707   4.785  16.032 -0.9869  1.5784  1.2031
10212TIP3   OH252126   4.377   4.207  14.773 -0.2350 -0.5927 -0.3564
10212TIP3    H152127   4.325   4.287  14.782 -0.3665 -0.5945 -1.0432
10212TIP3    H252128   4.313   4.136  14.779 -0.1597 -0.6335 -0.0536
10213TIP3   OH252129   3.197   3.194  13.480  0.5638  0.1363  0.2999
10213TIP3    H152130   3.192   3.099  13.466  0.7790  0.1529  0.0972
10213TIP3    H252131   3.182   3.205  13.574 -1.7976  0.1007 -0.0334
10214TIP3   OH252132   1.027   6.801  13.190  0.0445  0.4869  0.8509
10214TIP3    H152133   0.936   6.778  13.209  0.0700 -0.8127 -0.4280
10214TIP3    H252134   1.022   6.858  13.114  0.3338 -0.5074  0.0640
10215TIP3   OH252135   1.223   4.063  14.261  0.3207  0.0632 -0.4227
10215TIP3    H152136   1.169   3.991  14.228  0.5244 -0.3706  0.1584
10215TIP3    H252137   1.166   4.140  14.259 -0.0099 -0.1867 -0.7284
10216TIP3   OH252138   6.328   4.188  15.487  0.3578  0.1003  0.1526
10216TIP3    H152139   6.282   4.115  15.444  1.3604  0.0666 -0.9010
10216TIP3    H252140   6.412   4.194  15.441 -0.0176  2.4615 -0.3594
10217TIP3   OH252141   6.381   0.223   2.358 -0.4442  0.1485  0.0810
10217TIP3    H152142   6.370   0.128   2.364 -0.3283  0.1169 -0.2058
10217TIP3    H252143   6.472   0.238   2.382 -0.7053  0.2777  1.0462
10218TIP3   OH252144   2.001   1.254   4.784 -0.1549  0.2623 -0.1678
10218TIP3    H152145   1.998   1.349   4.767  0.7962 -0.0546 -2.5131
10218TIP3    H252146   2.094   1.232   4.779 -0.3114 -0.7144  0.9753
10219TIP3   OH252147   0.403   3.055   3.900 -0.3810 -0.4619  0.3237
10219TIP3    H152148   0.450   2.973   3.882 -1.0755 -1.1384  1.4970
10219TIP3    H252149   0.397   3.098   3.814  1.2824 -0.9164 -0.0705
10220TIP3   OH252150   5.547   4.451  13.858 -0.4658  0.2425  0.0546
10220TIP3    H152151   5.617   4.481  13.917  0.2797 -0.5993 -0.3703
10220TIP3    H252152   5.493   4.528  13.844 -0.1669  0.6816  1.1518
10221TIP3   OH252153   6.100   1.014  13.541 -0.1563  0.3092 -0.3088
10221TIP3    H152154   6.027   1.074  13.555  0.5114  1.2758 -0.8277
10221TIP3    H252155   6.094   0.990  13.448  0.2337  0.4645 -0.3751
10222TIP3   OH252156   2.722   0.456   6.207 -0.2411  0.3054  0.4102
10222TIP3    H152157   2.800   0.469   6.262  0.8692 -0.0606 -1.0143
10222TIP3    H252158   2.648   0.476   6.265  0.8993  0.5618  1.8360
10223TIP3   OH252159   6.709   0.919   1.675 -0.0443 -0.1810 -0.2251
10223TIP3    H152160   6.753   0.912   1.760 -1.0969  0.6743  0.4195
10223TIP3    H252161   6.764   0.869   1.615  1.2707  0.0557  0.7480
10224TIP3   OH252162   3.752   6.365  11.850  0.2970  0.1525  0.0272
10224TIP3    H152163   3.787   6.435  11.795 -0.8952  0.5984 -0.1969
10224TIP3    H252164   3.678   6.330  11.800  1.2876 -1.7807 -0.2072
10225TIP3   OH252165   3.959   1.251   4.289 -0.0469 -0.1825 -0.1602
10225TIP3    H152166   3.970   1.230   4.382 -1.8763  1.6650  0.5648
10225TIP3    H252167   4.026   1.317   4.272  0.5802 -0.8450 -0.2944
10226TIP3   OH252168   4.089   3.931  12.199 -0.4757  0.7351 -0.6822
10226TIP3    H152169   4.184   3.929  12.194 -0.4491 -0.4383  0.0435
10226TIP3    H252170   4.062   3.961  12.112  0.5450  1.0288 -0.9141
10227TIP3   OH252171   0.230   2.352   4.631  0.0034 -0.1719  0.2752
10227TIP3    H152172   0.306   2.308   4.593 -0.2976  0.3110 -0.9646
10227TIP3    H252173   0.215   2.427   4.573 -1.6244 -0.4624  0.2787
10228TIP3   OH252174   4.523   3.304   3.870  0.1308  0.4120  0.5381
10228TIP3    H152175   4.567   3.227   3.906 -3.7216 -1.4563  1.8315
10228TIP3    H252176   4.488   3.349   3.947  0.0265  1.9543 -0.3808
10229TIP3   OH252177   6.493   2.857   5.817 -0.3499  0.4195  0.2943
10229TIP3    H152178   6.409   2.835   5.859  1.2689 -1.4046  2.8459
10229TIP3    H252179   6.520   2.939   5.859 -0.4346  0.5462  0.1041
10230TIP3   OH252180   5.884   0.429   4.830  0.0209 -0.3583  0.3688
10230TIP3    H152181   5.818   0.463   4.890  0.3602  0.7972  0.1086
10230TIP3    H252182   5.876   0.483   4.751  2.5360  1.1411  1.0199
10231TIP3   OH252183   4.946   3.137   5.740 -0.4169 -0.0041  0.1320
10231TIP3    H152184   5.017   3.154   5.803  0.0410  1.0149 -0.6165
10231TIP3    H252185   4.963   3.200   5.669 -1.5460 -0.3891 -0.4907
10232TIP3   OH252186   2.892   2.259  14.611 -0.3636  0.1370 -0.1488
10232TIP3    H152187   2.934   2.173  14.604 -0.1247  0.1344  1.1882
10232TIP3    H252188   2.901   2.297  14.523  2.1094 -0.0171 -0.0284
10233TIP3   OH252189   1.259   2.355   2.496  0.2137 -1.1495  0.1444
10233TIP3    H152190   1.181   2.300   2.502  0.0706 -1.0830 -0.9801
10233TIP3    H252191   1.327   2.297   2.462  0.3608 -0.9165  0.0389
10234TIP3   OH252192   3.122   1.033  17.171  0.3219 -0.3337  0.5148
10234TIP3    H152193   3.188   1.098  17.150 -1.4381  0.8746 -1.7708
10234TIP3    H252194   3.100   1.049  17.263  1.1993  1.0762  0.5018
10235TIP3   OH252195   3.497   4.786  11.380  0.1511 -0.2264 -0.4669
10235TIP3    H152196   3.535   4.869  11.409  1.2297  0.1258 -2.7071
10235TIP3    H252197   3.418   4.811  11.332  0.4194 -0.5039 -1.0552
10236TIP3   OH252198   6.063   5.320  12.398  0.0587 -0.1276 -0.4718
10236TIP3    H152199   6.119   5.341  12.323  0.5386  0.5716  0.0555
10236TIP3    H252200   6.121   5.328  12.474 -0.7179  0.4755  0.0814
10237TIP3   OH252201   5.020   6.421  13.752 -0.4828  0.2093  0.4279
10237TIP3    H152202   5.072   6.492  13.715 -0.3882  0.7033  1.4853
10237TIP3    H252203   5.065   6.395  13.832 -0.7703 -0.7351  0.3076
10238TIP3   OH252204   2.675   3.830   5.555 -0.4088  0.0538 -0.0839
10238TIP3    H152205   2.607   3.781   5.603 -1.1911  2.0880  0.9939
10238TIP3    H252206   2.757   3.798   5.591 -0.7970 -1.7342 -0.6880
10239TIP3   OH252207   6.605   3.017  12.004  0.1050 -0.2034  0.2337
10239TIP3    H152208   6.545   2.943  12.015 -0.3115  0.0732 -0.1624
10239TIP3    H252209   6.613   3.053  12.092 -0.2521 -0.2893  0.3050
10240TIP3   OH252210   3.603   5.229  16.252 -0.1059 -0.4611  0.3452
10240TIP3    H152211   3.567   5.141  16.262  1.7035 -1.1376  1.4081
10240TIP3    H252212   3.577   5.256  16.164 -1.7269 -1.5367  0.4458
10241TIP3   OH252213   3.724   5.805  14.785 -0.5094 -0.1339  0.0293
10241TIP3    H152214   3.709   5.893  14.821  2.2035 -0.1717  1.5955
10241TIP3    H252215   3.676   5.747  14.844  1.2643  0.0593  1.7674
10242TIP3   OH252216   5.644   5.473  17.223  0.0287 -0.5273 -0.5243
10242TIP3    H152217   5.678   5.514  17.144  2.8099 -1.6234 -0.0215
10242TIP3    H252218   5.648   5.379  17.205  0.8465 -0.8034  0.9115
10243TIP3   OH252219   1.287   1.940  10.362  0.1588  0.1120 -0.3766
10243TIP3    H152220   1.247   1.953  10.448  0.8139  0.4637 -0.1202
10243TIP3    H252221   1.245   2.005  10.305 -1.6698 -1.3505 -0.8201
10244TIP3   OH252222   5.244   0.124  11.564 -0.5196  0.0640 -0.2837
10244TIP3    H152223   5.292   0.069  11.502 -0.3914 -0.9798  0.7122
10244TIP3    H252224   5.290   0.113  11.647 -0.6904  1.4412  0.0184
10245TIP3   OH252225   1.696   4.722  15.539  0.0576 -0.2002 -0.0128
10245TIP3    H152226   1.627   4.680  15.590 -0.2960  1.2363  0.7407
10245TIP3    H252227   1.696   4.675  15.456 -1.7282 -0.3365  0.0268
10246TIP3   OH252228   6.340   3.768   0.160  0.2558 -0.2014 -0.1307
10246TIP3    H152229   6.342   3.789   0.067  0.0127 -0.0229 -0.0978
10246TIP3    H252230   6.276   3.697   0.168  2.5807 -2.4869 -0.5266
10247TIP3   OH252231   0.674   6.604  13.012 -0.1798 -0.4892 -0.0971
10247TIP3    H152232   0.702   6.513  13.013 -0.7974 -0.7146  2.1484
10247TIP3    H252233   0.752   6.653  12.984 -0.3847 -1.7529 -3.3464
10248TIP3   OH252234   4.111   0.825  14.894 -0.0966 -0.2626  0.2254
10248TIP3    H152235   4.206   0.822  14.881 -0.2365 -1.2183 -0.7004
10248TIP3    H252236   4.087   0.735  14.915 -0.9028 -0.1875 -0.3447
10249TIP3   OH252237   1.506   0.697   1.274 -0.1750  0.4053  0.4546
10249TIP3    H152238   1.536   0.787   1.261 -0.7388  0.3208 -1.6729
10249TIP3    H252239   1.573   0.643   1.232 -1.0790 -0.0162 -0.4753
10250TIP3   OH252240   3.904   4.317   1.271  0.3457 -0.1537  0.2721
10250TIP3    H152241   3.955   4.270   1.206  0.6699  0.7101 -0.1074
10250TIP3    H252242   3.874   4.249   1.332 -0.0261 -0.9793 -0.8100
10251TIP3   OH252243   0.507   1.985   0.411 -0.2974 -0.0702 -0.1811
10251TIP3    H152244   0.440   1.989   0.479 -0.0875 -2.0974  0.2281
10251TIP3    H252245   0.575   2.045   0.439 -0.6552 -0.1636  0.9134
10252TIP3   OH252246   6.595   1.896  12.322  0.4227  0.9272 -0.0653
10252TIP3    H152247   6.638   1.902  12.237  1.0534  2.6266  0.3437
10252TIP3    H252248   6.570   1.986  12.344 -1.7228  0.2570  0.5707
10253TIP3   OH252249   3.350   6.822   1.945  0.2702 -0.2675 -0.0724
10253TIP3    H152250   3.343   6.776   1.861 -2.7736  0.6853 -0.4519
10253TIP3    H252251   3.294   6.772   2.005  0.5241  0.4090  0.7613
10254TIP3   OH252252   4.475   0.072   4.007 -0.6632  0.1180 -0.2050
10254TIP3    H152253   4.559   0.091   3.964 -1.7404  2.6004 -1.3910
10254TIP3    H252254   4.469   0.137   4.077 -0.4784 -1.7280  1.6107
10255TIP3   OH252255   0.719   6.640  13.352  0.5360 -0.1202  0.2729
10255TIP3    H152256   0.775   6.706  13.394  2.0969 -0.4404 -1.2128
10255TIP3    H252257   0.712   6.570  13.417 -0.5743  1.1375  1.5996
10256TIP3   OH252258   3.418   1.416  15.820  0.0015 -0.0038  0.2041
10256TIP3    H152259   3.452   1.327  15.808  0.9977  0.3606  0.1968
10256TIP3    H252260   3.487   1.472  15.785 -0.2734  0.8018  0.9329
10257TIP3   OH252261   6.101   2.581   2.490  0.0480 -0.3887  0.0463
10257TIP3    H152262   6.179   2.530   2.469 -0.8513 -2.2251  0.9630
10257TIP3    H252263   6.030   2.518   2.487 -1.2775  1.0417  0.2342
10258TIP3   OH252264   4.271   6.185   4.969  0.5389 -0.2740 -0.1281
10258TIP3    H152265   4.361   6.189   4.939  0.5511  1.8172  0.0816
10258TIP3    H252266   4.277   6.178   5.064  0.4784 -0.3182 -0.1272
10259TIP3   OH252267   6.252   5.836   1.083 -0.0790 -0.5470 -0.0058
10259TIP3    H152268   6.175   5.805   1.036 -1.3756  3.1834 -0.6909
10259TIP3    H252269   6.315   5.858   1.015  0.9363 -1.8183  0.4719
10260TIP3   OH252270   2.189   4.490   2.778 -0.3072  0.0332  0.1740
10260TIP3    H152271   2.284   4.484   2.782 -0.1082  2.4458  0.2009
10260TIP3    H252272   2.161   4.506   2.868 -0.6525  0.2425  0.0326
10261TIP3   OH252273   3.758   3.124   1.532 -0.6093 -0.0493 -0.2554
10261TIP3    H152274   3.734   3.152   1.620  0.5705 -1.4837  0.5681
10261TIP3    H252275   3.853   3.135   1.529 -0.6344 -0.0395 -1.3511
10262TIP3   OH252276   4.377   4.775  12.297  0.0565 -0.2975 -0.3005
10262TIP3    H152277   4.350   4.696  12.252  1.3846  0.0182 -1.7236
10262TIP3    H252278   4.298   4.828  12.303 -0.4183 -0.8995 -1.1025
10263TIP3   OH252279   3.431   4.544   0.818  0.2476  0.3362 -0.0886
10263TIP3    H152280   3.411   4.471   0.877 -0.2608 -1.4839 -2.3596
10263TIP3    H252281   3.358   4.605   0.830  0.0970 -0.0387  1.0569
10264TIP3   OH252282   4.875   1.911   1.923  0.1379 -0.4683  0.3807
10264TIP3    H152283   4.878   1.817   1.909 -2.0617 -0.5171 -0.1354
10264TIP3    H252284   4.950   1.945   1.873  0.7418 -1.8954  0.2803
10265TIP3   OH252285   2.054   2.338  15.255  0.1826 -0.9191  0.7165
10265TIP3    H152286   2.117   2.393  15.303  0.4442  0.6926 -1.3321
10265TIP3    H252287   1.973   2.345  15.305  0.7510 -0.3142  1.5867
10266TIP3   OH252288   1.443   2.967  12.714 -0.0599 -0.1036 -0.4442
10266TIP3    H152289   1.431   2.969  12.619  3.8989  0.2244 -1.0943
10266TIP3    H252290   1.470   3.056  12.736 -0.5024 -0.2963  0.9270
10267TIP3   OH252291   3.520   0.591  16.728 -0.1596  0.3496 -0.6888
10267TIP3    H152292   3.480   0.616  16.645  1.0987  4.4286 -0.3030
10267TIP3    H252293   3.614   0.598  16.713  0.1183  0.4703  0.8702
10268TIP3   OH252294   0.812   2.974  15.368  0.0371  0.6439 -0.1471
10268TIP3    H152295   0.793   2.980  15.274 -0.7406 -1.5529 -0.1846
10268TIP3    H252296   0.757   2.902  15.399  1.5789  0.1655  1.6427
10269TIP3   OH252297   2.910   6.658   3.953 -0.7115  0.0645  0.3031
10269TIP3    H152298   2.870   6.615   3.878 -2.4526  0.3271  1.0454
10269TIP3    H252299   2.894   6.599   4.027  1.0873 -0.2580  0.5044
10270TIP3   OH252300   1.461   3.421  13.843 -0.8291  0.1095  0.1130
10270TIP3    H152301   1.372   3.398  13.819 -0.2398 -0.6887 -1.4903
10270TIP3    H252302   1.476   3.378  13.927 -1.8565  0.0307  0.2635
10271TIP3   OH252303   2.756   3.515  11.760  0.2626 -0.8299 -0.3450
10271TIP3    H152304   2.743   3.560  11.677 -0.9107  0.7458  0.6179
10271TIP3    H252305   2.669   3.482  11.783 -0.0608  1.1116  1.4938
10272TIP3   OH252306   6.675   4.365  14.688 -0.0028  0.5773  0.2228
10272TIP3    H152307   6.622   4.349  14.610  2.2174 -0.9976 -1.0850
10272TIP3    H252308   6.690   4.279  14.725 -1.5409  1.3364  2.8784
10273TIP3   OH252309   2.674   3.708   1.254 -0.6824 -0.1422  0.3718
10273TIP3    H152310   2.737   3.773   1.226  0.8843 -1.6997  0.1354
10273TIP3    H252311   2.589   3.752   1.246  0.1852  1.3649 -1.1745
10274TIP3   OH252312   6.543   6.200   5.897 -0.1934 -0.2661  0.2794
10274TIP3    H152313   6.636   6.186   5.914  0.3691  1.2855 -1.2549
10274TIP3    H252314   6.536   6.195   5.802 -1.3885  1.2293  0.2628
10275TIP3   OH252315   4.832   6.017   5.274  0.2617  1.0301 -0.5251
10275TIP3    H152316   4.772   6.084   5.241 -0.3746  0.8743  0.2704
10275TIP3    H252317   4.879   6.061   5.345 -2.7731 -0.3033  2.5742
10276TIP3   OH252318   6.683   4.154  14.862  0.6713 -0.6850 -0.1655
10276TIP3    H152319   6.674   4.145  14.957  0.1389 -0.2227 -0.1710
10276TIP3    H252320   6.775   4.132  14.845  1.2243  0.8231  0.6576
10277TIP3   OH252321   3.983   0.627  13.280  0.5333  0.0315  0.0388
10277TIP3    H152322   3.999   0.534  13.268  1.2445  0.1862 -0.2982
10277TIP3    H252323   3.967   0.660  13.191  1.6640  0.4615 -0.0236
10278TIP3   OH252324   4.522   5.871  12.230 -0.2490 -0.0800  0.0500
10278TIP3    H152325   4.554   5.939  12.172 -0.2953 -0.7268 -0.7436
10278TIP3    H252326   4.491   5.802  12.172 -2.3375  0.1704  0.7978
10279TIP3   OH252327   5.589   1.787   3.039 -0.5843 -0.2275 -0.4212
10279TIP3    H152328   5.595   1.692   3.035  1.2080 -0.1307 -0.5618
10279TIP3    H252329   5.676   1.818   3.013 -0.7560  1.4240  0.8205
10280TIP3   OH252330   4.514   4.169   5.692  0.1824  0.0951 -0.1521
10280TIP3    H152331   4.497   4.104   5.760  0.3053 -1.8675 -1.9214
10280TIP3    H252332   4.433   4.220   5.687 -0.1924 -0.3749  0.7508
10281TIP3   OH252333   3.718   6.074  11.179  0.0001  0.4807  0.5407
10281TIP3    H152334   3.739   6.031  11.097 -0.1284  0.2477  0.6286
10281TIP3    H252335   3.766   6.157  11.176  0.8669  0.0072  0.6904
10282TIP3   OH252336   3.995   4.907   3.198 -0.3516 -0.4765 -0.2030
10282TIP3    H152337   3.980   4.932   3.289 -0.1771 -2.0364  0.2939
10282TIP3    H252338   3.927   4.951   3.148  0.4117  1.5722  0.4569
10283TIP3   OH252339   6.512   6.660   0.326 -0.0238 -0.1311 -0.1175
10283TIP3    H152340   6.593   6.622   0.360  0.0695 -0.8475 -1.0922
10283TIP3    H252341   6.463   6.686   0.404  1.2567  0.5716  0.4708
10284TIP3   OH252342   6.160   5.465   5.139  0.2928 -0.1271  0.0995
10284TIP3    H152343   6.173   5.375   5.110 -0.4115 -0.3572  0.4684
10284TIP3    H252344   6.217   5.474   5.215 -1.1610 -0.9298  1.3335
10285TIP3   OH252345   6.030   5.687   0.876 -0.0499 -0.2784  0.3312
10285TIP3    H152346   6.092   5.715   0.809  0.6053 -0.0466  1.0289
10285TIP3    H252347   5.985   5.612   0.836 -0.9847  0.9816 -1.0831
10286TIP3   OH252348   1.143   4.934   2.613  0.1574  0.5471 -0.0987
10286TIP3    H152349   1.185   4.867   2.558 -0.5400  0.7578 -0.8979
10286TIP3    H252350   1.118   5.003   2.552 -1.7512  0.2346  0.2851
10287TIP3   OH252351   3.124   0.352  12.193 -0.2808 -0.2538  0.0153
10287TIP3    H152352   3.090   0.297  12.123  0.5066 -0.3085 -0.3392
10287TIP3    H252353   3.072   0.328  12.270 -0.9783 -0.3791 -0.4831
10288TIP3   OH252354   6.734   3.276   4.870 -0.1342 -0.4545  0.6965
10288TIP3    H152355   6.689   3.195   4.893  2.6490 -2.0800  0.8416
10288TIP3    H252356   6.796   3.250   4.802 -0.1412  1.9004 -0.3024
10289TIP3   OH252357   4.680   2.492  12.615  0.7862  0.4135  0.1913
10289TIP3    H152358   4.705   2.522  12.527 -0.8004  1.0730 -0.0830
10289TIP3    H252359   4.699   2.566  12.672 -0.6667  1.0286 -0.0638
10290TIP3   OH252360   3.116   4.804   2.557 -0.4160  0.3521  0.4026
10290TIP3    H152361   3.078   4.774   2.640 -4.5683 -2.2965 -2.0693
10290TIP3    H252362   3.040   4.834   2.506  1.2672 -1.6303 -3.7097
10291TIP3   OH252363   1.324   1.860  12.349 -0.2885  0.4213 -0.0842
10291TIP3    H152364   1.386   1.793  12.322  0.2407  1.0838 -0.5313
10291TIP3    H252365   1.307   1.840  12.442  0.8255  0.4140  0.1341
10292TIP3   OH252366   4.490   2.040  14.308  0.2557  0.7617  0.0323
10292TIP3    H152367   4.560   2.105  14.308  1.1839 -0.1893 -0.9803
10292TIP3    H252368   4.527   1.965  14.261  0.9326 -2.3759  4.7917
10293TIP3   OH252369   5.453   4.057   3.395  0.2396 -0.7700 -0.0002
10293TIP3    H152370   5.428   4.091   3.481  1.5296 -0.1285  0.1419
10293TIP3    H252371   5.390   4.096   3.334  0.7745  0.7134  0.3573
10294TIP3   OH252372   4.104   5.488   0.977  0.1841  0.0274 -0.2324
10294TIP3    H152373   4.033   5.493   0.913  0.3488 -3.6020 -0.9213
10294TIP3    H252374   4.062   5.456   1.057  0.6996 -0.0046  0.0310
10295TIP3   OH252375   3.976   5.168   2.310  0.0121  0.5213  0.0548
10295TIP3    H152376   3.934   5.099   2.362  1.3923 -1.2968 -1.1309
10295TIP3    H252377   3.904   5.224   2.283 -1.5917 -1.9095 -1.0752
10296TIP3   OH252378   4.124   2.486   2.849  1.0784 -0.1291 -0.0858
10296TIP3    H152379   4.194   2.537   2.890  0.8849  1.1723 -1.2995
10296TIP3    H252380   4.043   2.527   2.880  0.9009 -0.1903 -0.4627
10297TIP3   OH252381   2.562   5.690   0.614 -0.0326  0.4685  0.2972
10297TIP3    H152382   2.488   5.711   0.672 -0.2261  1.2166 -0.2036
10297TIP3    H252383   2.613   5.626   0.663 -1.6100 -0.9474  0.1991
10298TIP3   OH252384   0.675   1.291  13.090 -0.5196  0.1623  0.9660
10298TIP3    H152385   0.610   1.253  13.031 -1.2682 -0.0394  1.8882
10298TIP3    H252386   0.744   1.224  13.096 -1.2432 -0.5453  1.6198
10299TIP3   OH252387   3.443   0.909   4.624 -0.5245 -0.4611  0.4965
10299TIP3    H152388   3.419   0.861   4.545  1.8684  1.1872 -1.3875
10299TIP3    H252389   3.515   0.859   4.661 -0.1841 -0.0705  0.3686
10300TIP3   OH252390   1.928   1.049  12.784  0.0944  0.2376  0.3297
10300TIP3    H152391   1.845   1.012  12.816  0.6501  0.0334  1.5727
10300TIP3    H252392   1.933   1.135  12.825  0.0975  0.6055 -0.4259
10301TIP3   OH252393   4.345   1.130  13.795  0.0064  0.5635  0.3141
10301TIP3    H152394   4.305   1.168  13.716  0.8241 -1.2315 -1.0444
10301TIP3    H252395   4.301   1.045  13.805  1.2129 -0.0369  0.6761
10302TIP3   OH252396   4.468   3.512  16.308  0.4415 -0.4949  0.4839
10302TIP3    H152397   4.528   3.551  16.371 -0.1578 -0.3454  0.9749
10302TIP3    H252398   4.468   3.574  16.234 -1.0017  0.8263  1.5226
10303TIP3   OH252399   6.312   2.352   3.902  0.0289  0.2443  0.1208
10303TIP3    H152400   6.270   2.334   3.817 -0.4515  2.0550 -0.0870
10303TIP3    H252401   6.261   2.302   3.965 -1.6768  1.3196 -0.3074
10304TIP3   OH252402   1.842   6.154   5.010  0.1003  0.3536 -0.2622
10304TIP3    H152403   1.820   6.191   5.095 -0.2353  2.6330 -1.2652
10304TIP3    H252404   1.777   6.192   4.950 -0.9447 -2.7334 -1.2886
10305TIP3   OH252405   0.183   3.581  12.740 -0.3490 -0.1837 -0.3108
10305TIP3    H152406   0.271   3.552  12.765 -0.7751  0.1945  1.7958
10305TIP3    H252407   0.148   3.508  12.688  0.9073 -0.6807 -0.4895
10306TIP3   OH252408   0.862   3.076   1.336  0.3904 -0.0909 -0.2413
10306TIP3    H152409   0.896   3.154   1.379  1.1166 -0.1433 -0.7171
10306TIP3    H252410   0.775   3.102   1.305  0.5380  0.4581 -0.2025
10307TIP3   OH252411   4.054   0.634   3.319  0.4823 -0.0639  0.2347
10307TIP3    H152412   4.069   0.551   3.274  1.5968  0.7392 -0.9383
10307TIP3    H252413   4.117   0.695   3.279 -0.5889  1.4487  0.7576
10308TIP3   OH252414   2.605   3.298  16.653  0.0930  0.0513  0.1665
10308TIP3    H152415   2.539   3.258  16.597  0.2319 -0.4903  0.3751
10308TIP3    H252416   2.680   3.237  16.648 -0.0932 -0.2980  1.3598
10309TIP3   OH252417   6.031   0.349   2.033  0.3784  0.6322  0.5026
10309TIP3    H152418   6.049   0.318   1.945  0.6509  0.5958  0.5702
10309TIP3    H252419   6.011   0.442   2.022 -0.2200  0.4876  0.3282
10310TIP3   OH252420   4.358   3.086  13.478  0.6411  0.0611  0.0270
10310TIP3    H152421   4.421   3.081  13.406 -0.1461  2.2837 -0.9191
10310TIP3    H252422   4.280   3.042  13.445  0.6771  0.0265 -0.0109
10311TIP3   OH252423   1.428   2.930   5.473 -0.4785  0.3463  0.1304
10311TIP3    H152424   1.460   2.844   5.445 -1.9981 -0.3306  0.3584
10311TIP3    H252425   1.451   2.988   5.401 -0.1470 -0.4297 -0.4078
10312TIP3   OH252426   6.380   3.520  11.130  0.4827 -0.1528 -0.6892
10312TIP3    H152427   6.322   3.464  11.078  0.6732 -1.7045  0.7232
10312TIP3    H252428   6.321   3.565  11.191  0.6900 -1.5147  0.5535
10313TIP3   OH252429   0.915   3.382   5.519 -0.1777  0.7772 -0.0346
10313TIP3    H152430   0.824   3.401   5.540 -0.6036 -1.8803  0.8600
10313TIP3    H252431   0.953   3.350   5.601  1.0195  0.0869 -0.8254
10314TIP3   OH252432   0.108   5.943  14.525 -0.1535 -0.1822  0.5059
10314TIP3    H152433   0.057   6.023  14.535  0.1836 -0.0776  1.4507
10314TIP3    H252434   0.189   5.972  14.482  0.7381  0.3079  2.4366
10315TIP3   OH252435   0.843   4.252  11.380  0.0160 -0.5559  0.4119
10315TIP3    H152436   0.815   4.327  11.327 -0.2663  0.4667  1.9586
10315TIP3    H252437   0.782   4.182  11.355  0.1732 -0.2517 -0.9258
10316TIP3   OH252438   0.164   1.118  13.920 -0.5359  0.6886 -0.5395
10316TIP3    H152439   0.200   1.205  13.939  0.4387  0.5119 -1.4545
10316TIP3    H252440   0.237   1.058  13.938 -1.4318 -0.0353  0.8222
10317TIP3   OH252441   0.399   0.879   2.251 -0.8430 -0.0671 -0.3567
10317TIP3    H152442   0.424   0.844   2.165 -0.2798  0.2828 -0.3398
10317TIP3    H252443   0.333   0.817   2.283  0.9109 -1.7791  0.1676
10318TIP3   OH252444   6.003   4.300  14.372 -0.4650 -0.3817  0.1142
10318TIP3    H152445   5.914   4.314  14.341  0.0449  1.3572 -0.6847
10318TIP3    H252446   5.992   4.259  14.458 -2.0236  0.0312  0.1414
10319TIP3   OH252447   1.476   5.919  16.022  0.5727  0.7373  0.7047
10319TIP3    H152448   1.428   6.000  16.004  1.7023  1.7828  2.2002
10319TIP3    H252449   1.409   5.858  16.054  0.0146  1.7812  1.6029
10320TIP3   OH252450   3.941   1.259   5.493  0.9875  0.0327 -0.5301
10320TIP3    H152451   3.868   1.214   5.536 -0.0463  1.2137 -0.9641
10320TIP3    H252452   3.946   1.343   5.538 -0.8411  1.7859 -3.2559
10321TIP3   OH252453   3.904   4.827  14.695 -0.5652  0.0159  0.2348
10321TIP3    H152454   3.979   4.769  14.682 -1.7410 -1.7113  0.8249
10321TIP3    H252455   3.892   4.869  14.610  0.6700 -0.1586 -0.0463
10322TIP3   OH252456   5.350   3.319   3.356  0.0869 -0.2664 -0.2279
10322TIP3    H152457   5.354   3.345   3.448  0.9100 -1.6096  0.1416
10322TIP3    H252458   5.310   3.393   3.312  1.0129  0.9989  0.9852
10323TIP3   OH252459   3.881   0.748  17.144  0.1691  0.4627 -0.8815
10323TIP3    H152460   3.818   0.788  17.084 -0.4907  1.0243  0.1594
10323TIP3    H252461   3.905   0.818  17.204 -1.0465 -0.6778  1.0303
10324TIP3   OH252462   6.623   3.211   5.201 -0.4843 -0.0200  0.0944
10324TIP3    H152463   6.624   3.165   5.117  0.0187 -0.2126  0.1989
10324TIP3    H252464   6.680   3.286   5.187  1.0404 -0.9918  0.7581
10325TIP3   OH252465   4.866   2.857  12.541  0.2946 -0.5933 -0.0794
10325TIP3    H152466   4.864   2.862  12.636 -0.9670 -0.5183 -0.0891
10325TIP3    H252467   4.937   2.795  12.521  1.2071  0.1205  0.8507
10326TIP3   OH252468   3.239   2.924  12.213 -0.6942  0.3074 -0.0074
10326TIP3    H152469   3.249   2.829  12.225 -2.2988 -0.0014 -0.7871
10326TIP3    H252470   3.329   2.957  12.207  0.0651 -0.6701  3.4091
10327TIP3   OH252471   4.137   4.188   0.680 -0.0099 -0.1854  1.0421
10327TIP3    H152472   4.223   4.170   0.642 -0.6731 -2.6444  0.5615
10327TIP3    H252473   4.080   4.200   0.603 -0.3545  0.1287  1.3434
10328TIP3   OH252474   3.019   6.458  12.796  0.7895 -0.5166  0.0740
10328TIP3    H152475   2.923   6.452  12.791  0.6881 -0.1781  1.1688
10328TIP3    H252476   3.035   6.550  12.820  1.3750 -0.6005 -0.0057
10329TIP3   OH252477   0.088   0.010   0.998  0.0664 -0.4451 -0.0054
10329TIP3    H152478   0.015   0.047   1.047  1.0925  1.9000 -0.1472
10329TIP3    H252479   0.147  -0.026   1.064  0.0405  0.0604  0.2942
10330TIP3   OH252480   1.082   6.249   0.756  0.0807 -0.0121 -0.2915
10330TIP3    H152481   1.079   6.296   0.672  0.5678  2.4500  0.9718
10330TIP3    H252482   0.995   6.210   0.764 -0.7780  1.6655 -0.9211
10331TIP3   OH252483   5.462   2.758  11.172  0.1986  0.4169 -0.2605
10331TIP3    H152484   5.437   2.800  11.090 -0.9766  1.1566  0.4539
10331TIP3    H252485   5.431   2.817  11.241 -0.1537 -0.8810  0.7475
10332TIP3   OH252486   4.167   4.045  13.157 -0.2785 -0.2565  0.2508
10332TIP3    H152487   4.147   3.974  13.096  0.3474 -0.3857  0.1835
10332TIP3    H252488   4.186   4.001  13.240  2.1890 -0.3895 -0.2865
10333TIP3   OH252489   5.205   4.315   1.269  0.0811 -1.2320 -0.1073
10333TIP3    H152490   5.234   4.335   1.180  1.4297 -1.5865  0.2291
10333TIP3    H252491   5.116   4.349   1.273  0.5759  0.2944 -1.0838
10334TIP3   OH252492   1.930   5.431   5.389  0.6684  0.2481  0.3356
10334TIP3    H152493   1.994   5.463   5.452 -1.4741  1.3856  2.0128
10334TIP3    H252494   1.951   5.477   5.308  2.5622 -0.1666  0.5450
10335TIP3   OH252495   4.356   4.419  11.326 -0.4577  1.1081 -0.2387
10335TIP3    H152496   4.385   4.428  11.235  0.5831  2.1824  0.1708
10335TIP3    H252497   4.377   4.504  11.366 -2.5737  1.2972  0.5593
10336TIP3   OH252498   2.392   6.301  13.233  0.4734 -0.0872 -0.0610
10336TIP3    H152499   2.303   6.338  13.233 -0.4676 -2.1572 -0.2347
10336TIP3    H252500   2.436   6.344  13.306 -0.8753  0.5570  0.4145
10337TIP3   OH252501   6.292   4.313  13.856  0.2898 -0.2151  0.4358
10337TIP3    H152502   6.255   4.235  13.896  2.8123 -1.4326  0.5927
10337TIP3    H252503   6.350   4.280  13.787  0.2165  1.6007 -0.5754
10338TIP3   OH252504   6.021   4.945  14.488  0.1513 -0.9107 -0.0472
10338TIP3    H152505   6.044   5.021  14.434  0.9395  1.0163  2.7851
10338TIP3    H252506   6.099   4.928  14.541 -1.5432 -0.6502  2.6944
10339TIP3   OH252507   1.492   6.184   5.008 -0.8112  0.1741  0.3891
10339TIP3    H152508   1.552   6.112   4.986  0.4533 -0.1663  4.1116
10339TIP3    H252509   1.524   6.258   4.957  0.6926 -0.8685 -0.2687
10340TIP3   OH252510   0.947   3.635   6.111  0.5173  0.1746 -0.2472
10340TIP3    H152511   0.945   3.676   6.198 -1.1558  0.2109 -0.2782
10340TIP3    H252512   1.023   3.675   6.068  1.1011  0.4920  1.0290
10341TIP3   OH252513   3.946   3.561  12.818 -0.0454 -0.4877 -0.0102
10341TIP3    H152514   4.034   3.539  12.787  0.4200 -1.2453  1.7184
10341TIP3    H252515   3.927   3.646  12.779  0.7844 -1.0327 -1.6924
10342TIP3   OH252516   3.560   5.684  13.587  0.2547 -0.3278 -0.6587
10342TIP3    H152517   3.509   5.656  13.663  1.5957 -1.2172 -0.0507
10342TIP3    H252518   3.506   5.751  13.546 -0.9346 -0.5052  0.5351
10343TIP3   OH252519   4.463   2.555  12.934  0.6709  0.6853  0.1751
10343TIP3    H152520   4.398   2.556  12.863 -0.7134  0.2185  1.3841
10343TIP3    H252521   4.412   2.541  13.013  2.2260  0.7673  1.2433
10344TIP3   OH252522   0.680   5.369  10.633  0.0971 -0.0374 -0.6448
10344TIP3    H152523   0.686   5.427  10.557  1.3723 -1.4722 -1.6935
10344TIP3    H252524   0.590   5.382  10.665  0.0153  1.7079 -1.4563
10345TIP3   OH252525   4.266   2.482  13.161 -0.2400  0.4118 -0.1845
10345TIP3    H152526   4.171   2.475  13.152 -0.1838 -0.2726 -0.3392
10345TIP3    H252527   4.279   2.557  13.218 -0.9228 -0.0501  0.6091
10346TIP3   OH252528   0.982   5.730   3.573 -0.2962 -0.0884 -0.1560
10346TIP3    H152529   0.899   5.752   3.617 -0.4833 -0.8391 -0.1186
10346TIP3    H252530   0.955   5.694   3.489  0.0309  0.4819 -0.5035
10347TIP3   OH252531   1.912   2.320   3.043 -0.1310 -0.3314 -0.2010
10347TIP3    H152532   1.976   2.361   2.986 -1.5627 -0.6458 -2.1631
10347TIP3    H252533   1.844   2.386   3.055  0.0797 -0.3137  1.0973
10348TIP3   OH252534   1.069   0.681  11.114  0.5047  0.2999  0.4902
10348TIP3    H152535   1.125   0.612  11.078 -1.1447 -0.4609 -0.7696
10348TIP3    H252536   1.057   0.742  11.041 -0.9119  0.0292  0.4685
10349TIP3   OH252537   4.933   1.257  11.917 -0.2041  0.3429  0.7165
10349TIP3    H152538   4.848   1.271  11.957 -1.8973  0.8042 -2.7049
10349TIP3    H252539   4.952   1.164  11.932 -1.9974 -0.1065  0.3450
10350TIP3   OH252540   1.480   1.611   3.204 -0.0470  0.1848  0.3413
10350TIP3    H152541   1.462   1.655   3.121 -2.5629  0.1756  0.8218
10350TIP3    H252542   1.409   1.638   3.262  0.4056 -1.5925  1.8228
10351TIP3   OH252543   5.743   6.696  13.976 -0.1680  0.1797  0.1844
10351TIP3    H152544   5.815   6.639  14.002  2.0282  1.8906 -1.7239
10351TIP3    H252545   5.672   6.637  13.951  1.4281 -1.6629 -0.1688
10352TIP3   OH252546   0.209   4.735   2.719  0.4336 -0.2903  0.0696
10352TIP3    H152547   0.189   4.653   2.674  0.8152 -0.3223 -0.0406
10352TIP3    H252548   0.252   4.789   2.653 -0.8658  0.4449 -0.1990
10353TIP3   OH252549   2.908   2.090  11.549  0.5681  0.2804  0.3892
10353TIP3    H152550   2.816   2.067  11.534  1.0954 -2.5906  0.8580
10353TIP3    H252551   2.930   2.149  11.477 -1.0850 -0.7260 -1.0388
10354TIP3   OH252552   0.905   4.242  16.158  0.2369  0.0500  0.2720
10354TIP3    H152553   0.867   4.327  16.136 -0.7332 -0.9316 -2.2529
10354TIP3    H252554   0.951   4.215  16.079  0.1277 -1.9681  0.8253
10355TIP3   OH252555   1.677   3.416  16.056 -0.2445 -0.0641 -0.8243
10355TIP3    H152556   1.713   3.504  16.062  0.8251 -0.5306 -0.1672
10355TIP3    H252557   1.720   3.377  15.980  0.3205 -0.4711 -0.3045
10356TIP3   OH252558   6.637   5.770  11.406 -0.3937  0.4762  0.2693
10356TIP3    H152559   6.708   5.769  11.471 -1.4243 -0.5555  1.4231
10356TIP3    H252560   6.636   5.681  11.370 -1.9009  0.1057  1.1786
10357TIP3   OH252561   6.205   0.058  11.966  0.0720  0.4622  0.1656
10357TIP3    H152562   6.145   0.078  11.894 -1.6125 -0.9546  1.0905
10357TIP3    H252563   6.246   0.141  11.987 -1.1076  1.3635 -0.9371
10358TIP3   OH252564   2.663   5.625  16.673 -0.4528  0.3364 -0.0769
10358TIP3    H152565   2.583   5.575  16.692 -0.7689  0.6771 -0.4769
10358TIP3    H252566   2.734   5.568  16.700 -0.8405  0.1282  0.5224
10359TIP3   OH252567   6.383   0.872   3.918  0.0705 -0.2229  0.7072
10359TIP3    H152568   6.356   0.917   3.998  1.8064 -1.7888  2.2792
10359TIP3    H252569   6.303   0.867   3.866 -0.7657  2.2590  1.5886
10360TIP3   OH252570   0.041   5.119   3.180 -0.1730 -0.4032  0.4949
10360TIP3    H152571   0.121   5.172   3.187 -0.4071  0.1025 -0.5559
10360TIP3    H252572  -0.014   5.149   3.253  0.1294  0.0521  0.5410
10361TIP3   OH252573   4.156   2.293   1.188 -0.0451 -0.7149  0.2779
10361TIP3    H152574   4.098   2.217   1.180  0.4887 -1.2700  1.5073
10361TIP3    H252575   4.148   2.320   1.280 -0.5473  0.9901 -0.2321
10362TIP3   OH252576   0.255   0.308  16.536  0.0383 -0.4592  0.2360
10362TIP3    H152577   0.228   0.289  16.446  1.2926  0.0633 -0.2740
10362TIP3    H252578   0.173   0.319  16.584 -0.6900 -2.4935 -0.4345
10363TIP3   OH252579   6.469   6.530   1.226  0.4960  0.0316 -0.0955
10363TIP3    H152580   6.495   6.583   1.151  0.1168 -2.0513 -1.7785
10363TIP3    H252581   6.542   6.469   1.239 -0.7541 -1.7113 -0.8482
10364TIP3   OH252582   4.972   4.335   3.021 -0.3990 -0.3716  0.2128
10364TIP3    H152583   5.060   4.304   2.998  0.5621  0.6697  2.2483
10364TIP3    H252584   4.942   4.274   3.088 -1.5733 -1.1285 -0.9492
10365TIP3   OH252585   5.357   6.517  15.782 -0.1167 -0.0844 -0.3908
10365TIP3    H152586   5.351   6.448  15.716  0.0536 -0.2102 -0.2757
10365TIP3    H252587   5.363   6.471  15.865 -0.6899  0.0796 -0.2539
10366TIP3   OH252588   2.706   0.209  15.236  0.2064  0.8423  0.2055
10366TIP3    H152589   2.740   0.295  15.210 -0.4307  1.1203  0.2556
10366TIP3    H252590   2.620   0.229  15.275  0.4140  0.2633  0.9768
10367TIP3   OH252591   4.217   1.528   1.070  0.4325  0.5498  0.6718
10367TIP3    H152592   4.160   1.466   1.115 -0.2737  0.9577  0.3617
10367TIP3    H252593   4.292   1.539   1.128  0.4146 -0.3450  0.8795
10368TIP3   OH252594   3.677   2.715   0.205 -0.1408  0.1989 -0.3741
10368TIP3    H152595   3.683   2.733   0.299 -1.3106 -0.8996 -0.0642
10368TIP3    H252596   3.641   2.795   0.168  0.7084  0.7909  0.0393
10369TIP3   OH252597   6.400   1.647   4.918 -0.3737 -0.1406 -0.6255
10369TIP3    H152598   6.467   1.687   4.973  0.0031  2.0543 -2.5018
10369TIP3    H252599   6.319   1.692   4.942 -0.4033  0.0619 -1.0873
10370TIP3   OH252600   6.300   0.894   0.110  0.5467  0.5835 -0.3256
10370TIP3    H152601   6.340   0.978   0.133  0.5306  0.3860  0.4237
10370TIP3    H252602   6.214   0.896   0.152  0.0820  0.6646 -1.2580
10371TIP3   OH252603   2.604   3.926   3.908  0.1323  0.1065  0.0716
10371TIP3    H152604   2.559   3.954   3.829  0.4977 -0.1378 -0.2290
10371TIP3    H252605   2.549   3.957   3.980 -0.0382  0.6112 -0.2720
10372TIP3   OH252606   4.655   4.917  15.746  0.6993  0.4185 -0.7043
10372TIP3    H152607   4.593   4.962  15.803 -0.1860  0.2061 -1.4584
10372TIP3    H252608   4.608   4.837  15.719  2.2761 -1.0781  0.7252
10373TIP3   OH252609   5.568   6.673  16.087  0.1841  0.3344  0.8997
10373TIP3    H152610   5.506   6.742  16.113 -0.8727 -0.2247 -0.0336
10373TIP3    H252611   5.602   6.639  16.170 -3.2522 -1.5576  1.7194
10374TIP3   OH252612   3.412   5.825  15.131  0.2144  0.2725  0.2261
10374TIP3    H152613   3.373   5.801  15.215 -0.3078  0.8990  0.1693
10374TIP3    H252614   3.490   5.876  15.155 -0.2884  1.0020  0.3350
10375TIP3   OH252615   0.274   3.354   1.932  0.6801 -0.1447 -0.0204
10375TIP3    H152616   0.336   3.309   1.989  1.7282 -1.9182 -2.3787
10375TIP3    H252617   0.326   3.382   1.857 -0.8566  0.9948 -0.7216
10376TIP3   OH252618   0.076   5.399   3.995  0.5178 -0.1465 -0.3943
10376TIP3    H152619   0.027   5.424   3.917 -0.3041 -0.8997 -0.1369
10376TIP3    H252620   0.128   5.476   4.017 -0.6156  0.7143 -0.6321
10377TIP3   OH252621   1.454   6.097  15.738  0.2763  0.0347  0.1253
10377TIP3    H152622   1.479   6.179  15.695 -0.8850  0.7373  0.7453
10377TIP3    H252623   1.412   6.124  15.820  0.3805 -1.2030  0.6142
10378TIP3   OH252624   5.312   6.806   1.607 -0.5705  0.4547  0.3759
10378TIP3    H152625   5.339   6.762   1.526 -0.4516 -0.8574  1.1206
10378TIP3    H252626   5.371   6.882   1.613  1.6778 -1.2412  0.9100
10379TIP3   OH252627   4.555   0.936   2.453  0.2643 -0.3501  0.1190
10379TIP3    H152628   4.645   0.912   2.477  0.4533  0.2876  0.0705
10379TIP3    H252629   4.526   0.994   2.523  0.0390 -0.2318 -0.0719
10380TIP3   OH252630   0.791   2.120  12.326  0.4245  0.5544  0.1251
10380TIP3    H152631   0.799   2.176  12.249 -0.7272 -0.1019 -0.5036
10380TIP3    H252632   0.880   2.095  12.348  0.7467  0.5478 -1.1500
10381TIP3   OH252633   5.352   3.424   3.607 -0.2693 -0.2269  0.3170
10381TIP3    H152634   5.407   3.423   3.685  0.3270  1.8388 -0.0227
10381TIP3    H252635   5.265   3.449   3.640 -0.4386 -1.0244  0.5118
10382TIP3   OH252636   5.544   4.811   4.931  0.5691  0.5460 -0.1291
10382TIP3    H152637   5.593   4.729   4.938  1.7082  1.1671 -0.5118
10382TIP3    H252638   5.460   4.792   4.972  0.8702 -0.7627 -0.0642
10383TIP3   OH252639   1.385   1.508  15.136  0.0295 -0.0178  0.4507
10383TIP3    H152640   1.295   1.540  15.128 -0.2530 -0.2836  2.0724
10383TIP3    H252641   1.398   1.452  15.060 -0.4917  1.5465 -0.8428
10384TIP3   OH252642   1.766   3.012   3.636 -0.5399 -0.3521  0.9317
10384TIP3    H152643   1.820   2.951   3.686 -1.0681 -1.5877  0.0525
10384TIP3    H252644   1.755   2.970   3.551 -0.3215  1.3355  0.0311
10385TIP3   OH252645   2.435   2.602  12.023  0.6103 -0.4571 -0.1004
10385TIP3    H152646   2.378   2.525  12.031 -0.8590  0.4959 -0.9370
10385TIP3    H252647   2.386   2.673  12.064  1.1600  0.4026 -0.8915
10386TIP3   OH252648   6.297   3.059  13.277 -0.6253 -0.3155 -0.2012
10386TIP3    H152649   6.288   3.154  13.266 -1.7159 -0.4082 -0.2722
10386TIP3    H252650   6.391   3.044  13.283 -0.4148  0.7154 -0.7034
10387TIP3   OH252651   4.310   5.856   5.925 -0.4079  0.2233  0.0120
10387TIP3    H152652   4.369   5.865   5.850 -0.7795 -1.1631 -0.4813
10387TIP3    H252653   4.361   5.806   5.989 -1.7142 -3.0662 -1.3131
10388TIP3   OH252654   3.443   5.253   3.277  0.2992 -0.0875  0.0021
10388TIP3    H152655   3.521   5.291   3.318  1.3211 -1.1071 -0.9408
10388TIP3    H252656   3.377   5.254   3.347  1.4771 -0.1934  1.1645
10389TIP3   OH252657   4.571   2.862  15.719 -0.9497 -0.0950  0.0802
10389TIP3    H152658   4.625   2.920  15.773 -1.5465  0.0966  0.4779
10389TIP3    H252659   4.518   2.814  15.781 -2.3900  0.8629 -0.3689
10390TIP3   OH252660   4.609   2.532  12.169 -0.2079  0.6965 -0.0063
10390TIP3    H152661   4.652   2.533  12.084  0.0426 -1.5562  0.0395
10390TIP3    H252662   4.681   2.541  12.232 -0.5048  3.7656  0.0390
10391TIP3   OH252663   4.473   3.753  12.489  0.1830 -0.3248  0.2283
10391TIP3    H152664   4.398   3.706  12.453 -0.9804  1.6148 -0.0222
10391TIP3    H252665   4.451   3.766  12.582 -0.1370  0.8375  0.0039
10392TIP3   OH252666   2.416   4.774   0.893  0.1793  0.0403  0.0968
10392TIP3    H152667   2.477   4.834   0.849 -1.2852  1.0040 -0.7369
10392TIP3    H252668   2.375   4.726   0.822  1.3852 -2.1034  0.7644
10393TIP3   OH252669   0.493   5.951   5.360  0.3771  0.2049 -0.3263
10393TIP3    H152670   0.486   6.044   5.381 -0.0074  0.3884 -1.2555
10393TIP3    H252671   0.455   5.942   5.273 -0.3780 -0.9682  0.0990
10394TIP3   OH252672   1.822   3.609   3.367 -0.3213 -0.6229 -0.4735
10394TIP3    H152673   1.896   3.622   3.425  0.8275 -3.0572 -1.2564
10394TIP3    H252674   1.746   3.640   3.417  1.2624  3.4315 -0.2493
10395TIP3   OH252675   6.052   1.391  17.035  0.0922  0.0166  0.0663
10395TIP3    H152676   6.136   1.435  17.022  0.8481 -1.2059  0.6091
10395TIP3    H252677   6.059   1.310  16.984 -0.8667  0.0270 -0.1033
10396TIP3   OH252678   0.439   4.450   1.315  0.0754 -0.7372  0.4529
10396TIP3    H152679   0.530   4.419   1.321  0.1727 -0.4382  0.5152
10396TIP3    H252680   0.399   4.392   1.250  1.1699  1.1392 -2.0727
10397TIP3   OH252681   2.162   1.653  16.644  0.0414  0.5364 -0.6973
10397TIP3    H152682   2.080   1.700  16.627 -1.4068 -0.6657  2.3157
10397TIP3    H252683   2.140   1.588  16.711  3.4260 -0.0026  0.0951
10398TIP3   OH252684   0.104   2.393   3.822  0.2157  0.0838 -0.5057
10398TIP3    H152685   0.159   2.338   3.766 -0.3726  0.1106 -1.1316
10398TIP3    H252686   0.016   2.383   3.785  0.2203  2.0866 -1.1748
10399TIP3   OH252687   4.620   5.278   2.441 -0.5032 -0.2937 -0.4045
10399TIP3    H152688   4.678   5.345   2.405  0.4319 -1.1758 -0.6164
10399TIP3    H252689   4.542   5.325   2.469  0.0251  0.8351 -0.7801
10400TIP3   OH252690   0.704   5.272   3.885  0.4653  0.6649 -0.1847
10400TIP3    H152691   0.623   5.253   3.931  2.2236 -1.6654  2.2620
10400TIP3    H252692   0.699   5.222   3.804 -0.6931  0.8927 -0.2615
10401TIP3   OH252693   2.945   5.243   4.447 -0.1936 -0.1879  0.1142
10401TIP3    H152694   2.997   5.283   4.516  0.3735 -1.6093  0.5565
10401TIP3    H252695   2.919   5.316   4.390  1.9672  0.6127  0.0699
10402TIP3   OH252696   4.627   3.173  15.532  0.1869 -0.1201  0.3037
10402TIP3    H152697   4.661   3.252  15.489 -0.5324  0.6757  1.1732
10402TIP3    H252698   4.535   3.192  15.547 -0.1607 -1.4025 -0.0660
10403TIP3   OH252699   6.779   5.557  10.687 -0.6412 -0.3265  0.1021
10403TIP3    H152700   6.733   5.607  10.755  1.3408 -0.6990  1.8146
10403TIP3    H252701   6.858   5.608  10.669  0.2084 -1.6043  0.0874
10404TIP3   OH252702   5.688   3.931   5.134  0.6236  0.1621 -0.0287
10404TIP3    H152703   5.614   3.887   5.093  0.4814 -0.3685  0.7749
10404TIP3    H252704   5.672   4.025   5.118  0.5702 -0.0175 -1.1486
10405TIP3   OH252705   3.047   3.894   2.487 -0.3138 -0.6329  0.1045
10405TIP3    H152706   2.958   3.926   2.474 -0.5002 -0.5424  1.4953
10405TIP3    H252707   3.090   3.963   2.537  0.3975 -0.8870 -0.1486
10406TIP3   OH252708   3.097   0.243  15.123 -0.2513  0.1691 -0.1038
10406TIP3    H152709   3.162   0.248  15.052 -0.2739  1.6049 -0.0518
10406TIP3    H252710   3.030   0.183  15.090  0.6940 -0.7154 -0.4834
10407TIP3   OH252711   0.614   2.996   3.641  0.0247 -0.0232  0.3598
10407TIP3    H152712   0.710   2.999   3.634 -0.0152 -1.4574 -1.3865
10407TIP3    H252713   0.598   2.956   3.726  0.8724  2.4487  1.8100
10408TIP3   OH252714   5.279   2.998  13.987 -0.4361  0.1118  0.1779
10408TIP3    H152715   5.365   3.005  14.028 -0.1012  0.5375 -0.5709
10408TIP3    H252716   5.226   3.065  14.030 -0.1227  0.4765 -0.0052
10409TIP3   OH252717   0.685   3.581   1.648  0.5173 -0.3619  0.0792
10409TIP3    H152718   0.673   3.579   1.743  1.3665 -1.8863  0.1868
10409TIP3    H252719   0.669   3.672   1.623  2.7889  0.6584  2.0295
10410TIP3   OH252720   0.099   2.081  11.291 -0.2600  0.2097 -0.1652
10410TIP3    H152721   0.126   2.000  11.336 -1.1214 -0.2028 -0.3644
10410TIP3    H252722   0.108   2.061  11.198 -0.5181  0.3370 -0.2161
10411TIP3   OH252723   5.247   3.806   3.103  0.6176 -0.1010 -0.1963
10411TIP3    H152724   5.195   3.831   3.026  0.5213  2.6843  0.6804
10411TIP3    H252725   5.229   3.874   3.167  4.1054  0.0994  0.7368
10412TIP3   OH252726   3.894   2.995  15.505  0.2608  0.0872 -0.2287
10412TIP3    H152727   3.881   2.934  15.578 -1.2902 -0.0715 -0.6058
10412TIP3    H252728   3.819   2.980  15.448  0.5736  1.4055 -1.0164
10413TIP3   OH252729   0.478   2.745   5.691 -0.1924  0.1444  0.0960
10413TIP3    H152730   0.533   2.746   5.612  0.8672 -1.0007  0.7845
10413TIP3    H252731   0.479   2.836   5.720  1.9242  0.0681  0.4367
10414TIP3   OH252732   2.765   5.090  12.214 -0.3968  0.4516 -0.1128
10414TIP3    H152733   2.672   5.101  12.194 -0.2782 -2.4413 -3.0100
10414TIP3    H252734   2.769   5.013  12.270  0.2907 -0.5679 -1.4956
10415TIP3   OH252735   0.863   0.371   4.154 -0.0727 -0.0449 -0.4176
10415TIP3    H152736   0.892   0.342   4.067 -1.0776  0.3666 -0.9015
10415TIP3    H252737   0.930   0.434   4.181  1.0431 -1.2813 -0.2284
10416TIP3   OH252738   0.778   4.255   2.265  0.5122  0.3403 -0.1172
10416TIP3    H152739   0.710   4.294   2.210 -0.1404 -0.5500  0.0270
10416TIP3    H252740   0.804   4.325   2.324 -1.2180  0.3704  0.6838
10417TIP3   OH252741   1.162   3.856   3.350  0.0103  0.1522  0.2259
10417TIP3    H152742   1.129   3.906   3.425 -1.7081 -0.4081 -0.0966
10417TIP3    H252743   1.167   3.766   3.382 -4.1195 -0.7681 -1.1554
10418TIP3   OH252744   3.374   3.546   3.186 -0.5305 -0.5694 -0.1536
10418TIP3    H152745   3.448   3.568   3.242 -0.9275 -0.6366  0.4097
10418TIP3    H252746   3.373   3.615   3.120  0.3935 -0.9031 -0.5308
10419TIP3   OH252747   5.571   3.020   2.505 -0.6681 -1.0908  0.4044
10419TIP3    H152748   5.611   3.027   2.418 -2.4697  0.2548 -0.3790
10419TIP3    H252749   5.478   3.004   2.488 -1.3385  0.6713  2.0144
10420TIP3   OH252750   1.517   0.265  12.375 -0.0164 -0.4861  0.3161
10420TIP3    H152751   1.567   0.203  12.321 -1.7265 -1.9038  0.2831
10420TIP3    H252752   1.532   0.237  12.465 -0.2127 -0.4809  0.3507
10421TIP3   OH252753   4.480   3.850  10.813 -0.9151 -0.3433 -0.3779
10421TIP3    H152754   4.424   3.841  10.736  0.3747 -1.1962 -1.2663
10421TIP3    H252755   4.567   3.827  10.781 -0.1149  0.5788  1.0405
10422TIP3   OH252756   5.095   2.892   1.834 -0.0077  0.6596  0.2113
10422TIP3    H152757   5.176   2.911   1.787 -0.8994  1.8663 -0.9402
10422TIP3    H252758   5.067   2.977   1.868 -0.9005  0.3182  0.3693
10423TIP3   OH252759   2.006   3.060  14.117 -0.2716 -0.3704 -0.3123
10423TIP3    H152760   2.090   3.103  14.124 -0.9390  0.9861 -0.3440
10423TIP3    H252761   1.994   3.043  14.023  1.4296 -3.7042 -0.0802
10424TIP3   OH252762   0.885   4.530  17.055  0.0879 -0.0400  0.2421
10424TIP3    H152763   0.817   4.595  17.074 -0.9323  0.1142 -3.2089
10424TIP3    H252764   0.964   4.582  17.037 -0.0508  0.0703 -0.0423
10425TIP3   OH252765   1.092   6.232   1.111  0.0383 -0.3173  0.7198
10425TIP3    H152766   1.067   6.320   1.083 -1.3231 -0.9322 -0.1289
10425TIP3    H252767   1.120   6.243   1.201 -0.4904  0.9347  0.7606
10426TIP3   OH252768   4.623   1.186  12.624  0.7297 -0.2407  0.2894
10426TIP3    H152769   4.596   1.098  12.649 -0.8002  0.0926 -0.0984
10426TIP3    H252770   4.671   1.173  12.542 -3.6769 -0.3996 -2.5900
10427TIP3   OH252771   2.971   3.847  16.315  0.0585 -0.1649  0.5090
10427TIP3    H152772   2.885   3.882  16.342  0.2346 -0.1765  1.0947
10427TIP3    H252773   2.990   3.779  16.379 -0.4864 -1.6796 -0.8741
10428TIP3   OH252774   5.038   6.546   4.328  0.0899 -0.0856 -0.5593
10428TIP3    H152775   5.069   6.463   4.291 -0.0284 -0.5896  0.4489
10428TIP3    H252776   5.116   6.588   4.363 -0.0978 -0.6103  0.5313
10429TIP3   OH252777   1.963   3.229  11.214 -0.0781 -0.1220 -0.4634
10429TIP3    H152778   1.933   3.291  11.280  0.1617 -0.3673 -0.1184
10429TIP3    H252779   1.963   3.145  11.258  2.0190 -0.0090 -0.1316
10430TIP3   OH252780   4.618   0.465   5.457 -0.0603  0.1446 -0.3503
10430TIP3    H152781   4.678   0.404   5.414 -0.2752 -0.2414 -0.1068
10430TIP3    H252782   4.674   0.518   5.513  0.1209  0.1309 -0.5164
10431TIP3   OH252783   5.964   4.329   1.101 -0.5146  0.0263 -0.1491
10431TIP3    H152784   5.949   4.393   1.031 -0.8490 -0.2419 -0.3258
10431TIP3    H252785   5.917   4.365   1.176  0.8472  0.9333  0.3089
10432TIP3   OH252786   4.629   0.770  14.745 -0.6138  0.2286 -0.2699
10432TIP3    H152787   4.685   0.693  14.747 -0.8796  0.0400  1.9329
10432TIP3    H252788   4.670   0.831  14.806 -1.4559  1.0841 -0.5306
10433TIP3   OH252789   2.027   3.904  16.654  0.0907  0.1355 -0.5033
10433TIP3    H152790   1.943   3.931  16.691 -0.1087 -1.4695  0.3142
10433TIP3    H252791   2.011   3.817  16.618  2.0306 -1.5727  2.3346
10434TIP3   OH252792   0.331   3.471   0.088 -0.0401  0.1627  0.0321
10434TIP3    H152793   0.404   3.532   0.078 -1.3013  2.3913  2.8796
10434TIP3    H252794   0.358   3.413   0.160 -0.0120 -0.8106 -0.7461
10435TIP3   OH252795   5.638   3.933   5.406 -0.2028  0.5875  0.0160
10435TIP3    H152796   5.546   3.954   5.387 -0.5449 -1.2131 -0.5150
10435TIP3    H252797   5.677   3.915   5.320 -0.0923 -1.2908  0.4027
10436TIP3   OH252798   4.850   4.825  13.216 -0.1357 -0.4292 -0.0541
10436TIP3    H152799   4.942   4.797  13.222  0.9623  2.1442 -2.5579
10436TIP3    H252800   4.835   4.837  13.122 -2.6176  0.5550  0.4071
10437TIP3   OH252801   2.609   0.894   1.216 -0.7507  0.4192  0.5540
10437TIP3    H152802   2.656   0.859   1.292 -1.1879 -1.6021 -0.0424
10437TIP3    H252803   2.519   0.863   1.228 -0.6611 -0.6474 -1.1584
10438TIP3   OH252804   1.178   1.807  11.247 -0.1739  0.1734  0.5277
10438TIP3    H152805   1.129   1.727  11.267 -1.7913  1.2313  0.9638
10438TIP3    H252806   1.171   1.817  11.152  1.4058 -1.0111  0.2376
10439TIP3   OH252807   3.888   6.023   4.221  0.0053  0.4821 -0.2893
10439TIP3    H152808   3.976   6.018   4.258 -0.2639 -1.4619  0.1971
10439TIP3    H252809   3.861   6.113   4.237  1.7283  0.9882 -0.0411
10440TIP3   OH252810   0.594   6.125  11.628  0.3855 -0.2208  0.0440
10440TIP3    H152811   0.508   6.156  11.601 -0.0318  0.0146  1.5291
10440TIP3    H252812   0.586   6.113  11.723  1.6496 -1.3084  0.0397
10441TIP3   OH252813   5.720   6.492  16.798  0.2554  0.2287  0.6028
10441TIP3    H152814   5.642   6.527  16.842 -0.2547 -3.2977  2.8928
10441TIP3    H252815   5.791   6.504  16.861  0.5160 -0.8589  0.5304
10442TIP3   OH252816   4.976   5.830  15.957  0.0689  0.3050  0.0509
10442TIP3    H152817   4.956   5.905  15.901  2.1081  1.1412  0.3338
10442TIP3    H252818   5.054   5.857  16.006  0.0227 -1.4740  1.2064
10443TIP3   OH252819   2.705   5.450   0.682 -0.4348  0.5887  0.7823
10443TIP3    H152820   2.681   5.460   0.774 -1.8143 -0.7855  0.6088
10443TIP3    H252821   2.641   5.387   0.647  3.1326 -3.1054  0.1576
10444TIP3   OH252822   3.159   3.175   6.092 -0.2562  0.2208  0.2352
10444TIP3    H152823   3.198   3.168   6.179  0.8344  3.4102  0.1331
10444TIP3    H252824   3.211   3.118   6.037  1.7305  1.2833  0.9296
10445TIP3   OH252825   3.952   2.038  17.270 -0.0842  0.3992  1.0650
10445TIP3    H152826   3.876   2.088  17.242 -0.3739 -0.5625  0.1001
10445TIP3    H252827   3.924   1.947  17.267  1.1598  0.0102  0.5013
10446TIP3   OH252828   4.039   6.736   4.897  0.0538  0.3751  0.5260
10446TIP3    H152829   3.974   6.795   4.860  0.0440  0.8980  1.3503
10446TIP3    H252830   3.991   6.657   4.919 -0.2278  0.6178  0.7824
10447TIP3   OH252831   4.587   3.274  13.536 -0.5203  0.4232  0.2126
10447TIP3    H152832   4.648   3.290  13.464  0.0691  0.3439  0.6825
10447TIP3    H252833   4.519   3.218  13.499 -0.3132  0.5266 -0.3243
10448TIP3   OH252834   0.716   4.796   3.186  0.3261 -0.4881  0.4418
10448TIP3    H152835   0.633   4.776   3.229 -0.0801 -1.5845 -0.8101
10448TIP3    H252836   0.783   4.771   3.251 -0.2868 -0.9778  0.8994
10449TIP3   OH252837   1.408   3.137  11.738 -0.7465 -0.0978 -0.1569
10449TIP3    H152838   1.389   3.231  11.737 -1.7393 -0.2849  0.1586
10449TIP3    H252839   1.333   3.097  11.694 -0.7359 -0.8109  0.4588
10450TIP3   OH252840   0.365   4.394  13.632  0.0324 -0.2717  0.2788
10450TIP3    H152841   0.320   4.447  13.567  0.9655 -0.7072 -0.7692
10450TIP3    H252842   0.451   4.435  13.641  0.1474 -0.6028  0.7483
10451TIP3   OH252843   2.931   2.542   3.744 -0.2790 -0.1083 -0.3843
10451TIP3    H152844   3.023   2.523   3.762  0.0523  1.4437 -0.2998
10451TIP3    H252845   2.930   2.572   3.653 -0.0398  3.4558  0.6311
10452TIP3   OH252846   2.243   0.794   6.028  0.0356 -0.5573  0.2610
10452TIP3    H152847   2.323   0.799   6.081  1.1328 -2.8315 -1.0271
10452TIP3    H252848   2.175   0.769   6.091  0.6234 -0.0399  1.1279
10453TIP3   OH252849   5.977   3.924  16.445 -0.4910 -0.0660 -0.2332
10453TIP3    H152850   6.001   3.993  16.383 -1.4626  0.6982  0.2145
10453TIP3    H252851   5.899   3.957  16.489 -1.8327 -2.0572 -0.9623
10454TIP3   OH252852   4.655   4.246   5.160 -0.4249  0.3550 -0.5690
10454TIP3    H152853   4.680   4.339   5.160  2.1393 -0.2068  1.3912
10454TIP3    H252854   4.632   4.228   5.252  0.9087 -1.3153 -0.5093
10455TIP3   OH252855   4.075   1.020  13.151  0.3096 -0.9625 -0.0947
10455TIP3    H152856   3.989   1.008  13.112 -1.5257 -0.8996  3.4901
10455TIP3    H252857   4.094   1.113  13.139  0.1346 -1.0791 -1.3523
10456TIP3   OH252858   5.232   1.463  14.689  0.1045  0.4499 -0.2206
10456TIP3    H152859   5.203   1.508  14.610 -1.1115  1.2930  0.6721
10456TIP3    H252860   5.297   1.521  14.728  1.1211 -0.2259 -0.8639
10457TIP3   OH252861   2.075   0.398  15.948 -0.0813  0.6593 -0.2014
10457TIP3    H152862   1.997   0.342  15.953  1.4029 -1.5938 -0.7459
10457TIP3    H252863   2.055   0.461  15.879 -1.9215  1.0349  0.6057
10458TIP3   OH252864   1.616   3.358   3.217  0.2713 -0.1011 -0.4854
10458TIP3    H152865   1.691   3.333   3.162 -0.2859  0.2006 -1.4104
10458TIP3    H252866   1.655   3.391   3.298  1.1864  0.9420 -1.3242
10459TIP3   OH252867   0.331   2.978  15.762 -0.1954  0.2214  0.2535
10459TIP3    H152868   0.283   3.060  15.769 -0.8686  0.0426 -1.5933
10459TIP3    H252869   0.422   3.004  15.745  0.0517  0.5560  1.9423
10460TIP3   OH252870   5.422   2.823   1.978  0.0538  0.3686  0.1006
10460TIP3    H152871   5.381   2.785   1.900 -2.4104 -3.1946  2.7922
10460TIP3    H252872   5.374   2.905   1.992 -1.5984 -0.4439 -0.5097
10461TIP3   OH252873   4.838   6.623  15.202 -0.1188  0.1692 -0.4826
10461TIP3    H152874   4.864   6.693  15.143  1.9479 -0.0123  0.1128
10461TIP3    H252875   4.883   6.643  15.285 -2.0742 -0.1492  0.7305
10462TIP3   OH252876   2.003   2.425  13.070  0.1232 -0.1583 -0.4269
10462TIP3    H152877   2.096   2.428  13.093 -0.0335  0.1819  0.1798
10462TIP3    H252878   1.959   2.472  13.140 -0.6128 -1.1823 -0.1662
10463TIP3   OH252879   1.140   5.701   4.343 -0.0012 -0.1637 -0.4106
10463TIP3    H152880   1.094   5.716   4.260 -1.2178 -2.3566 -0.2153
10463TIP3    H252881   1.123   5.779   4.395  1.2896  1.5314 -2.3805
10464TIP3   OH252882   3.817   3.886  11.968 -0.2790  0.1743 -0.4522
10464TIP3    H152883   3.837   3.972  11.931 -0.7688  0.0399 -1.0397
10464TIP3    H252884   3.842   3.824  11.900 -0.1067 -0.1453 -0.1024
10465TIP3   OH252885   0.836   5.601   6.086  0.0298  0.2803 -0.4625
10465TIP3    H152886   0.884   5.674   6.124 -0.5103  0.4269 -0.0443
10465TIP3    H252887   0.890   5.524   6.106 -0.1499  0.3784  0.4429
10466TIP3   OH252888   1.636   5.000   4.000  0.0579 -0.4447  0.4915
10466TIP3    H152889   1.606   5.027   4.086  1.0460 -1.0339  1.0426
10466TIP3    H252890   1.670   4.911   4.013  0.5484 -0.4011 -0.4207
10467TIP3   OH252891   5.274   6.173  15.091  0.0040 -0.0358 -0.1298
10467TIP3    H152892   5.273   6.159  15.185 -2.0557 -2.5854 -0.4077
10467TIP3    H252893   5.362   6.145  15.063  0.4330  0.1890  0.9654
10468TIP3   OH252894   4.171   3.137   2.396  0.2007  0.0500  0.0396
10468TIP3    H152895   4.158   3.232   2.398 -1.6857 -0.0954 -1.6302
10468TIP3    H252896   4.153   3.109   2.486  1.8643  1.3323  0.8387
10469TIP3   OH252897   1.857   1.064  16.598  0.5384  0.3831  0.1713
10469TIP3    H152898   1.947   1.073  16.630  0.9954 -0.4273 -0.8276
10469TIP3    H252899   1.859   1.101  16.510 -0.4504  1.6232  0.6399
10470TIP3   OH252900   3.058   0.173  11.730 -0.2681 -0.1414 -0.4928
10470TIP3    H152901   3.038   0.152  11.639 -0.3465  0.0744 -0.5252
10470TIP3    H252902   3.146   0.210  11.728  0.7931 -2.4355 -0.1744
10471TIP3   OH252903   4.694   3.114  12.567 -0.0857  0.4907  0.0317
10471TIP3    H152904   4.768   3.062  12.598 -0.5473 -0.8445 -1.0214
10471TIP3    H252905   4.734   3.185  12.516  0.4873  0.0025 -0.2059
10472TIP3   OH252906   5.277   5.561  15.059 -0.3501 -0.1170  1.0564
10472TIP3    H152907   5.345   5.506  15.099  0.3208 -0.6813 -0.7565
10472TIP3    H252908   5.260   5.521  14.974 -0.8777  1.6601  0.2646
10473TIP3   OH252909   4.301   1.964  12.720  0.1172 -0.2121  0.5953
10473TIP3    H152910   4.358   1.984  12.794  1.4828  2.1604 -0.9460
10473TIP3    H252911   4.247   2.042  12.710 -0.4648 -0.7397 -0.5574
10474TIP3   OH252912   4.649   6.517  12.621 -0.3959 -0.1195 -0.2084
10474TIP3    H152913   4.576   6.485  12.675  0.0507 -2.5003 -0.8697
10474TIP3    H252914   4.657   6.452  12.551  0.9913  1.2538 -1.4060
10475TIP3   OH252915   6.351   6.604  15.507  0.2146  0.2224  0.1510
10475TIP3    H152916   6.341   6.560  15.422 -1.5243 -0.1152  0.4902
10475TIP3    H252917   6.320   6.539  15.571  0.2125  0.9704  0.9180
10476TIP3   OH252918   0.112   3.391  16.156  0.2264 -0.7639  0.4240
10476TIP3    H152919   0.075   3.468  16.113 -3.1595 -2.9067 -0.9049
10476TIP3    H252920   0.087   3.401  16.248  0.0209 -0.1749  0.3089
10477TIP3   OH252921   1.796   5.619  13.428  0.1622  0.4946  0.6966
10477TIP3    H152922   1.735   5.602  13.357  0.6448  2.8171 -0.3852
10477TIP3    H252923   1.827   5.532  13.454 -2.9582 -0.7056  0.7966
10478TIP3   OH252924   5.345   1.715   6.356 -0.0505 -0.1638 -0.0216
10478TIP3    H152925   5.395   1.718   6.438 -1.1370  1.2114  0.6153
10478TIP3    H252926   5.282   1.644   6.369  0.1194 -0.2899  0.1228
10479TIP3   OH252927   1.939   2.280   3.354  0.2632 -0.2419  0.6839
10479TIP3    H152928   2.032   2.262   3.344  0.2975 -0.4325  1.3123
10479TIP3    H252929   1.908   2.298   3.265  0.9763  0.2154  0.5201
10480TIP3   OH252930   3.589   5.531  10.185  0.1061  0.5016 -0.1907
10480TIP3    H152931   3.508   5.485  10.209  1.8840 -1.6354  2.3140
10480TIP3    H252932   3.597   5.601  10.249  0.0544  0.9572 -0.6796
10481TIP3   OH252933   5.412   3.678  11.786  0.2459 -0.7448 -0.3921
10481TIP3    H152934   5.451   3.696  11.700 -0.2229 -2.8143 -1.0991
10481TIP3    H252935   5.486   3.668  11.845  0.5821  0.4135 -0.5941
10482TIP3   OH252936   3.576   6.060  14.772  0.2668  1.0927  0.3182
10482TIP3    H152937   3.611   6.149  14.758  0.1318  1.5326  2.4140
10482TIP3    H252938   3.499   6.055  14.716  0.0559  2.4721  0.4479
10483TIP3   OH252939   3.333   4.519   3.688  0.0971 -0.5529 -0.3813
10483TIP3    H152940   3.346   4.540   3.781  1.8131 -0.6585 -0.5652
10483TIP3    H252941   3.254   4.567   3.664  0.0750  0.1247  0.9272
10484TIP3   OH252942   5.512   6.468   0.947  0.5188 -0.3903  0.0303
10484TIP3    H152943   5.491   6.527   0.875 -0.9279 -0.3988  0.4245
10484TIP3    H252944   5.471   6.508   1.024 -0.1438 -1.6926  0.3785
10485TIP3   OH252945   2.298   4.441  16.621  0.1084  0.6180  0.2978
10485TIP3    H152946   2.232   4.501  16.657 -0.1246  0.0466  0.8405
10485TIP3    H252947   2.286   4.445  16.526 -1.9465 -0.8494  0.4434
10486TIP3   OH252948   0.728   4.446  12.718  0.0617 -0.3883 -0.3118
10486TIP3    H152949   0.806   4.500  12.727  0.0997 -0.2595 -1.3288
10486TIP3    H252950   0.695   4.465  12.630 -0.6550 -1.0482 -0.2002
10487TIP3   OH252951   3.597   0.733  15.330 -0.0978 -0.4956 -0.3998
10487TIP3    H152952   3.526   0.691  15.379  0.8009 -0.3041  1.1543
10487TIP3    H252953   3.668   0.741  15.394  0.5638  1.2865 -1.2833
10488TIP3   OH252954   3.328   0.330  14.361 -0.6614 -0.0118  0.0491
10488TIP3    H152955   3.413   0.290  14.375  0.9392  3.9975  4.5490
10488TIP3    H252956   3.348   0.415  14.321 -2.3894  1.2213  1.6437
10489TIP3   OH252957   3.915   1.797  15.754  0.9342  0.4890 -0.2958
10489TIP3    H152958   3.930   1.807  15.848 -1.1316  1.8334 -0.0380
10489TIP3    H252959   3.851   1.864  15.733  0.4088 -0.5930 -2.4272
10490TIP3   OH252960   3.430   4.570  16.314  0.0179 -0.2399  0.6634
10490TIP3    H152961   3.335   4.577  16.308  0.0969  0.8801  0.3958
10490TIP3    H252962   3.446   4.502  16.380 -0.9469 -1.3312 -0.2002
10491TIP3   OH252963   1.734   6.104   0.995 -0.2126 -0.0308  0.1430
10491TIP3    H152964   1.768   6.176   1.047  0.8210 -0.4780  0.1037
10491TIP3    H252965   1.756   6.127   0.904 -1.9305  0.7077 -0.1182
10492TIP3   OH252966   0.303   1.092   6.354  0.7544 -0.5622 -0.4942
10492TIP3    H152967   0.314   0.997   6.358  2.0840 -0.3845  0.7026
10492TIP3    H252968   0.208   1.104   6.350  0.5231 -1.9218  0.2126
10493TIP3   OH252969   5.378   4.080   3.091  0.1464  0.1590  0.1286
10493TIP3    H152970   5.463   4.061   3.132 -0.4027 -1.9715  0.3676
10493TIP3    H252971   5.313   4.052   3.155 -0.7503  0.4392 -0.6321
10494TIP3   OH252972   0.577   0.707  13.882  0.4886  0.3224 -0.2489
10494TIP3    H152973   0.639   0.767  13.841 -1.8335  2.0071 -1.5707
10494TIP3    H252974   0.505   0.764  13.911 -1.2336 -1.6593 -0.3680
10495TIP3   OH252975   4.743   3.868  15.259  0.3766  0.2958  0.6021
10495TIP3    H152976   4.828   3.828  15.245  0.7935  0.3960  2.5786
10495TIP3    H252977   4.732   3.870  15.354 -2.1949 -0.4820  0.4264
10496TIP3   OH252978   4.267   5.112  17.014 -0.3119  0.0120  0.1877
10496TIP3    H152979   4.222   5.066  17.085  1.1321 -0.4734  0.8221
10496TIP3    H252980   4.231   5.074  16.934 -0.9453 -0.4358  0.6752
10497TIP3   OH252981   2.818   2.217   0.174  0.8261  0.3216  0.2743
10497TIP3    H152982   2.905   2.248   0.198  0.2168  1.3850  1.1691
10497TIP3    H252983   2.760   2.292   0.189 -0.3733 -0.6152  0.5044
10498TIP3   OH252984   3.445   0.731   3.476  0.2812  0.7143 -0.1124
10498TIP3    H152985   3.449   0.822   3.505 -0.8135  1.1313 -1.2138
10498TIP3    H252986   3.518   0.688   3.522  0.1977  1.9043  1.2110
10499TIP3   OH252987   4.623   1.737  14.539 -0.4939  0.8203 -1.0854
10499TIP3    H152988   4.625   1.827  14.573 -0.6941  0.6062 -0.4834
10499TIP3    H252989   4.715   1.714  14.525 -0.3698  0.7129 -0.1303
10500TIP3   OH252990   3.145   5.265  10.774 -0.1582  0.0969 -0.2486
10500TIP3    H152991   3.139   5.170  10.765 -0.6005  0.2464 -1.9498
10500TIP3    H252992   3.054   5.293  10.787 -0.0741  0.3271 -0.1516
10501TIP3   OH252993   4.582   0.476  15.200 -0.2650  0.3218 -0.5922
10501TIP3    H152994   4.505   0.441  15.245  0.7095  0.4765  1.3174
10501TIP3    H252995   4.570   0.571  15.203 -0.4704  0.3180 -1.1993
10502TIP3   OH252996   6.215   6.328  14.257 -0.0262  0.1438  0.0349
10502TIP3    H152997   6.227   6.236  14.234 -1.2439  0.0245 -0.1566
10502TIP3    H252998   6.251   6.376  14.182  1.1602 -0.1417  0.3935
10503TIP3   OH252999   4.244   4.040   4.414  0.8247  0.0676 -0.3120
10503TIP3    H153000   4.213   4.097   4.484  0.1067 -1.7826  0.9624
10503TIP3    H253001   4.199   4.070   4.336 -1.1536 -0.0311  0.7417
10504TIP3   OH253002   1.712   4.064  13.730  0.1893 -0.2396  0.1164
10504TIP3    H153003   1.700   4.005  13.656 -1.0594  1.4965 -1.1314
10504TIP3    H253004   1.624   4.080  13.763  0.3978  1.4425 -0.0239
10505TIP3   OH253005   2.157   4.100  11.605 -0.7673 -0.0706  0.0876
10505TIP3    H153006   2.170   4.195  11.600 -0.0263 -0.1225  0.7881
10505TIP3    H253007   2.138   4.074  11.515 -0.9294  0.7341 -0.1225
10506TIP3   OH253008   5.829   4.785   0.616  0.0212  0.2392  0.9259
10506TIP3    H153009   5.779   4.703   0.614  0.6369 -0.1450  0.8861
10506TIP3    H253010   5.918   4.758   0.638  1.2650  0.3509 -3.2080
10507TIP3   OH253011   2.592   6.037   4.836  0.3666 -0.1464  0.4695
10507TIP3    H153012   2.594   5.972   4.766 -0.1592  0.3971 -0.0609
10507TIP3    H253013   2.681   6.037   4.872  0.2588 -1.4897  0.7966
10508TIP3   OH253014   1.529   5.824  16.458  0.0136  0.2169  0.0856
10508TIP3    H153015   1.616   5.849  16.488  0.2568 -1.0128  0.4604
10508TIP3    H253016   1.519   5.733  16.485 -1.9185  0.6975  1.2097
10509TIP3   OH253017   3.606   6.428  13.961 -0.3312  0.0329  0.1560
10509TIP3    H153018   3.564   6.343  13.948 -0.7000 -0.0302  1.6068
10509TIP3    H253019   3.533   6.490  13.963 -0.1806  0.2026  0.4831
10510TIP3   OH253020   1.261   6.350  12.925  0.2755  0.6323 -0.4289
10510TIP3    H153021   1.335   6.372  12.982 -0.2281 -0.1456  0.5640
10510TIP3    H253022   1.208   6.430  12.923  0.8536  1.0150 -0.6996
10511TIP3   OH253023   1.140   0.323  14.207  0.2483  0.2150  0.1042
10511TIP3    H153024   1.089   0.342  14.286 -0.0685  0.7470 -0.2243
10511TIP3    H253025   1.079   0.336  14.135 -0.4645 -3.5201 -0.1386
10512TIP3   OH253026   1.732   2.702   1.455 -0.2134  0.2397  0.1800
10512TIP3    H153027   1.640   2.708   1.428 -0.1957  1.2821  0.3118
10512TIP3    H253028   1.745   2.609   1.476 -0.8243 -0.2057 -1.2837
10513TIP3   OH253029   5.296   1.816   5.216 -0.4251 -0.4173 -0.6173
10513TIP3    H153030   5.234   1.780   5.279 -0.9066 -2.2197 -2.0221
10513TIP3    H253031   5.284   1.910   5.222 -2.6917 -0.6680 -0.2172
10514TIP3   OH253032   4.080   3.404   2.123  0.1813  0.1916  0.2214
10514TIP3    H153033   4.020   3.367   2.058  0.1644  1.5807 -0.5978
10514TIP3    H253034   4.033   3.398   2.206 -0.1956 -0.7165 -0.0472
10515TIP3   OH253035   3.705   3.915  11.521 -0.6844 -0.4202 -0.0215
10515TIP3    H153036   3.656   3.965  11.455  0.4861 -0.6501 -1.1122
10515TIP3    H253037   3.797   3.930  11.498 -0.2076  0.1321  2.0600
10516TIP3   OH253038   6.178   6.734   0.973 -0.0977  0.4149  0.3483
10516TIP3    H153039   6.172   6.645   1.006  0.4538 -0.4808 -1.7690
10516TIP3    H253040   6.254   6.771   1.019  0.1703 -0.4915  0.6604
10517TIP3   OH253041   4.633   2.228  14.854 -0.1147  0.7816  0.1123
10517TIP3    H153042   4.602   2.318  14.858 -0.1378  0.7488  0.7633
10517TIP3    H253043   4.726   2.235  14.833 -0.5090  0.8829 -1.8163
10518TIP3   OH253044   0.556   3.097   1.145 -0.1220 -0.9016  0.6858
10518TIP3    H153045   0.497   3.133   1.078 -0.0537 -2.7425 -0.4192
10518TIP3    H253046   0.499   3.049   1.204  0.1873 -2.3970 -0.1901
10519TIP3   OH253047   0.206   2.031  14.802  0.2306  0.3802  0.0449
10519TIP3    H153048   0.133   1.971  14.812 -0.4188  1.0638 -0.5223
10519TIP3    H253049   0.238   2.017  14.713 -0.7764  1.7797 -0.5771
10520TIP3   OH253050   2.476   6.705   6.194 -0.0866  0.1704 -0.3523
10520TIP3    H153051   2.462   6.702   6.099 -0.3926 -0.9241 -0.2864
10520TIP3    H253052   2.525   6.786   6.208 -1.0782  0.9573 -1.3017
10521TIP3   OH253053   0.062   1.620  14.178  0.1223 -0.2939  0.0120
10521TIP3    H153054   0.035   1.538  14.221 -0.6075 -0.1151 -0.0972
10521TIP3    H253055   0.098   1.673  14.249 -1.0113 -0.0317  0.4115
10522TIP3   OH253056   1.679   3.871  10.590  0.1465 -0.4868  0.2161
10522TIP3    H153057   1.698   3.965  10.599 -0.2899 -0.2287 -1.2746
10522TIP3    H253058   1.762   3.832  10.566  0.0205 -0.2354 -0.6600
10523TIP3   OH253059   5.501   0.254  11.355 -0.4968 -0.5406 -0.8783
10523TIP3    H153060   5.482   0.249  11.262 -0.7012 -0.6265 -0.8330
10523TIP3    H253061   5.520   0.164  11.381 -1.6767 -0.7228 -0.5822
10524TIP3   OH253062   2.775   2.464  16.268  0.1051  0.1258 -0.0394
10524TIP3    H153063   2.847   2.402  16.261 -0.6479 -0.6818 -0.9720
10524TIP3    H253064   2.700   2.412  16.296 -0.5553  0.5797 -0.8999
10525TIP3   OH253065   2.733   0.883  16.791 -0.8317  0.3932  1.0117
10525TIP3    H153066   2.816   0.909  16.832 -0.7308  2.7434 -0.5441
10525TIP3    H253067   2.759   0.819  16.724  0.1210  2.8038 -1.0507
10526TIP3   OH253068   5.126   4.199   2.677 -0.0483 -0.1566 -0.1314
10526TIP3    H153069   5.038   4.170   2.655 -0.0097 -0.4491  0.1002
10526TIP3    H253070   5.174   4.197   2.594 -0.7826  1.9232 -0.6591
10527TIP3   OH253071   5.666   5.209   6.077  0.1010  0.6683 -0.4810
10527TIP3    H153072   5.651   5.248   6.163 -2.8194 -0.0986 -0.5104
10527TIP3    H253073   5.613   5.129   6.078 -0.7611  1.0997 -3.2683
10528TIP3   OH253074   6.332   1.973  15.333  0.2926  0.0062  0.2738
10528TIP3    H153075   6.282   1.891  15.337 -1.6593  1.1315  0.1961
10528TIP3    H253076   6.384   1.973  15.413  0.8345 -1.5759 -0.0233
10529TIP3   OH253077   5.991   3.687   3.662 -0.3768  0.0253 -0.1008
10529TIP3    H153078   5.972   3.686   3.756 -1.6040  0.0110 -0.3415
10529TIP3    H253079   5.917   3.732   3.623  0.4279  0.5979 -1.0163
10530TIP3   OH253080   6.065   0.195  15.215  0.2535 -0.3335 -0.3609
10530TIP3    H153081   6.121   0.200  15.292 -1.6673 -2.5449  1.3186
10530TIP3    H253082   5.983   0.236  15.242 -0.1874 -0.3941 -1.5305
10531TIP3   OH253083   3.035   2.081   3.866  0.2386 -0.7825  0.2594
10531TIP3    H153084   3.006   2.170   3.887 -0.0813 -1.0813  1.1207
10531TIP3    H253085   2.999   2.026   3.936 -1.1095 -1.8758 -1.2180
10532TIP3   OH253086   0.693   6.465  12.276  0.7422 -0.3730  0.0953
10532TIP3    H153087   0.681   6.554  12.308 -1.0563 -0.0381 -1.3291
10532TIP3    H253088   0.734   6.475  12.190 -1.6029 -0.6997 -1.1317
10533TIP3   OH253089   1.829   3.338   4.104  0.4017 -0.3719 -0.4240
10533TIP3    H153090   1.843   3.419   4.054 -0.3203  1.8978  2.7400
10533TIP3    H253091   1.740   3.310   4.081  1.7204 -2.2826 -3.9496
10534TIP3   OH253092   3.198   6.753   5.564 -0.2748 -0.1150  0.7522
10534TIP3    H153093   3.274   6.698   5.583 -0.4158 -0.2765  0.8473
10534TIP3    H253094   3.212   6.832   5.617  0.8871  0.7885 -0.8122
10535TIP3   OH253095   2.224   0.001  12.986  0.0754  0.0952 -0.6523
10535TIP3    H153096   2.233   0.092  12.960  0.5659 -0.1829 -1.4667
10535TIP3    H253097   2.132  -0.008  13.011  0.1663  0.9594  0.0261
10536TIP3   OH253098   6.772   6.555   2.433  0.1502  0.1699 -0.4417
10536TIP3    H153099   6.725   6.636   2.454 -0.0442 -0.0563  0.0207
10536TIP3    H253100   6.738   6.528   2.348 -1.8650 -0.9145  0.6283
10537TIP3   OH253101   1.442   2.242   3.246 -1.0197  0.4072 -0.0262
10537TIP3    H153102   1.352   2.211   3.260 -0.4547 -0.2533  2.7474
10537TIP3    H253103   1.497   2.165   3.264  0.2065  1.6826  2.1310
10538TIP3   OH253104   4.445   6.153  11.346 -0.6277  0.3581 -0.1763
10538TIP3    H153105   4.435   6.135  11.253  1.7892  0.2178 -0.4556
10538TIP3    H253106   4.514   6.219  11.351 -1.2622  0.9601  1.4965
10539TIP3   OH253107   2.021   5.683  15.128 -0.1031 -0.0795 -0.7962
10539TIP3    H153108   1.942   5.703  15.078  0.1339  1.6093 -0.5375
10539TIP3    H253109   2.092   5.725  15.080 -0.1111  3.5721  1.9423
10540TIP3   OH253110   6.691   4.618   5.413  0.4778 -0.6067 -0.2674
10540TIP3    H153111   6.741   4.700   5.422  0.3955 -0.6474  0.7055
10540TIP3    H253112   6.657   4.602   5.501  1.7423 -2.4924 -0.0719
10541TIP3   OH253113   3.661   1.838   0.637 -0.0228  0.2020  0.4706
10541TIP3    H153114   3.647   1.854   0.543  0.4071 -1.4861  0.0856
10541TIP3    H253115   3.607   1.762   0.657  0.0261  0.4365  1.5673
10542TIP3   OH253116   4.754   3.205  16.128 -0.0560  0.1818  0.5008
10542TIP3    H153117   4.782   3.124  16.086  1.0626  0.5961  0.4250
10542TIP3    H253118   4.832   3.240  16.170 -0.4250  1.4098  0.2311
10543TIP3   OH253119   3.426   3.128  11.195  0.3499 -0.0614 -0.0047
10543TIP3    H153120   3.355   3.131  11.259 -0.6345 -0.4454 -1.0249
10543TIP3    H253121   3.478   3.052  11.219 -0.8480 -1.0750 -0.4668
10544TIP3   OH253122   4.883   0.062   0.680  0.9684 -0.2295  0.1184
10544TIP3    H153123   4.948   0.084   0.614  1.0615  0.5298  0.4531
10544TIP3    H253124   4.812   0.021   0.630  0.4861  1.4363 -0.6541
10545TIP3   OH253125   2.877   0.315   4.193  0.1163  0.0150  0.5465
10545TIP3    H153126   2.783   0.305   4.178 -0.0259  0.3209  1.1723
10545TIP3    H253127   2.916   0.235   4.158 -0.4063 -0.2326  0.5195
10546TIP3   OH253128   1.051   5.785  16.409 -0.2033  0.1227 -0.2549
10546TIP3    H153129   0.962   5.748  16.408  1.1285 -3.5259  0.8718
10546TIP3    H253130   1.053   5.839  16.488 -1.1013 -0.7754  0.4200
10547TIP3   OH253131   3.786   5.947   0.741 -0.5490  0.0412 -0.0449
10547TIP3    H153132   3.702   5.916   0.706 -0.0823 -1.1317 -0.1726
10547TIP3    H253133   3.801   6.031   0.698 -0.6111 -0.7634 -1.7109
10548TIP3   OH253134   1.864   6.356  10.850  0.2394  0.4071  0.1841
10548TIP3    H153135   1.884   6.295  10.779 -1.2068  0.4482 -0.2783
10548TIP3    H253136   1.773   6.339  10.872  0.3116  1.2434  1.2089
10549TIP3   OH253137   1.314   1.800   2.300  0.2912 -0.7855 -0.0167
10549TIP3    H153138   1.334   1.778   2.391  1.2379  0.2170  0.0445
10549TIP3    H253139   1.346   1.724   2.250  0.8524 -0.8395  0.4052
10550TIP3   OH253140   1.141   5.460   3.235  0.2852  0.4953 -0.1044
10550TIP3    H153141   1.082   5.391   3.266  2.1911 -1.0987  0.1921
10550TIP3    H253142   1.134   5.456   3.140 -2.0801  2.2162 -0.0774
10551TIP3   OH253143   4.099   0.586   1.538  0.0742  0.5220  0.2237
10551TIP3    H153144   4.072   0.497   1.519 -0.5032  0.6701  0.3295
10551TIP3    H253145   4.037   0.641   1.489 -1.8509  0.9281  2.9219
10552TIP3   OH253146   2.987   5.813   4.881 -0.3176 -0.2287  0.4450
10552TIP3    H153147   3.047   5.877   4.918 -0.6367 -0.9813  2.4409
10552TIP3    H253148   2.950   5.855   4.803  1.1779  1.0623  0.3958
10553TIP3   OH253149   2.967   2.677  13.757  0.1007 -0.2936 -0.5188
10553TIP3    H153150   2.894   2.699  13.700  0.2613 -0.7964 -0.9295
10553TIP3    H253151   2.950   2.725  13.838  0.0569  0.7142 -1.1130
10554TIP3   OH253152   4.040   5.366   3.931 -0.0786 -0.2822 -0.3032
10554TIP3    H153153   4.048   5.368   3.836 -1.7336  2.3877 -0.4850
10554TIP3    H253154   3.958   5.319   3.946 -0.7900  0.8952 -0.3560
10555TIP3   OH253155   4.951   4.175  14.425  0.1042  0.5083 -0.0991
10555TIP3    H153156   4.955   4.098  14.369  0.2921  0.5493 -0.1419
10555TIP3    H253157   5.041   4.189  14.453  0.0530  0.6470 -0.0029
10556TIP3   OH253158   5.819   0.497  16.887  0.0244  0.1389  0.5067
10556TIP3    H153159   5.795   0.461  16.973 -3.7020 -0.2678 -0.4961
10556TIP3    H253160   5.789   0.430  16.825 -0.2009  1.7306 -1.1807
10557TIP3   OH253161   1.751   3.503   0.650 -0.5996  0.2447 -0.7855
10557TIP3    H153162   1.844   3.509   0.674 -0.5943 -2.0352  0.0669
10557TIP3    H253163   1.748   3.533   0.559  0.8756  0.9351 -0.6308
10558TIP3   OH253164   1.386   2.263   1.898  0.6742  0.5398 -0.5112
10558TIP3    H153165   1.341   2.297   1.820  1.6988  1.6046 -0.6734
10558TIP3    H253166   1.468   2.313   1.901  0.2115  1.2662  1.8186
10559TIP3   OH253167   5.741   5.322   2.001 -0.6765  0.0411 -0.0590
10559TIP3    H153168   5.745   5.263   1.926 -1.4651 -0.6103  0.3972
10559TIP3    H253169   5.709   5.405   1.964  2.1271  0.8094 -1.0266
10560TIP3   OH253170   5.650   2.955  10.732 -0.3717 -0.5303  0.4399
10560TIP3    H153171   5.717   2.895  10.697 -1.1567 -0.6131 -1.0103
10560TIP3    H253172   5.572   2.936  10.680 -0.7700  1.4409  0.2456
10561TIP3   OH253173   0.583   0.858   5.260  0.1105  0.0460 -0.6585
10561TIP3    H153174   0.609   0.946   5.234  2.2419  0.3061  1.8701
10561TIP3    H253175   0.664   0.807   5.257 -0.9733 -1.7519 -1.5541
10562TIP3   OH253176   0.956   0.376  17.099 -0.0740 -0.7522  0.1142
10562TIP3    H153177   1.023   0.409  17.038 -0.7822 -1.1432 -0.9042
10562TIP3    H253178   0.876   0.371  17.046 -1.1257  0.4746  1.5169
10563TIP3   OH253179   3.444   0.072  15.201  0.6897  0.3176  0.0132
10563TIP3    H153180   3.497   0.023  15.264  0.2694  0.5436  0.5571
10563TIP3    H253181   3.459   0.164  15.224 -0.9069  0.3666  1.0232
10564TIP3   OH253182   4.076   0.079   4.602 -0.1116 -0.3421 -0.4118
10564TIP3    H153183   4.064   0.005   4.543 -2.0075  1.4655 -2.4545
10564TIP3    H253184   4.170   0.080   4.620 -0.0508 -3.3038 -0.1350
10565TIP3   OH253185   0.187   5.541  12.948 -0.2252  0.4521 -0.1755
10565TIP3    H153186   0.159   5.632  12.938  0.1541  0.7221  1.1090
10565TIP3    H253187   0.105   5.492  12.958 -0.3801  1.1133  2.5354
10566TIP3   OH253188   5.116   1.379   4.154 -0.7199 -0.2901 -0.1030
10566TIP3    H153189   5.144   1.470   4.145  0.7920 -0.6394  0.8290
10566TIP3    H253190   5.033   1.384   4.202 -1.2453  0.6381 -1.0686
10567TIP3   OH253191   5.038   4.588   1.047  0.1753 -0.0385  0.7634
10567TIP3    H153192   5.133   4.599   1.042  0.2183 -0.9322 -1.5626
10567TIP3    H253193   5.019   4.515   0.988 -2.1814  1.5403 -0.5642
10568TIP3   OH253194   4.789   0.094   4.240 -0.1992  0.4807  0.0816
10568TIP3    H153195   4.858   0.049   4.190 -1.0069 -1.9520  1.0342
10568TIP3    H253196   4.836   0.133   4.314  0.5899  1.7463 -1.0251
10569TIP3   OH253197   3.976   3.198   4.070  0.1861 -0.3268 -0.0443
10569TIP3    H153198   4.070   3.212   4.060  0.0372  0.7479  0.0124
10569TIP3    H253199   3.961   3.204   4.165 -0.2889  1.9771 -0.2109
10570TIP3   OH253200   4.256   6.472  17.238 -0.5938 -0.7400  0.6645
10570TIP3    H153201   4.173   6.506  17.203 -0.2232 -1.0562 -0.5911
10570TIP3    H253202   4.281   6.534  17.306 -2.0748 -0.8843  1.3605
10571TIP3   OH253203   1.779   6.367   0.323 -0.2178 -0.6520 -0.5787
10571TIP3    H153204   1.697   6.391   0.366 -0.0035  1.9573 -1.4959
10571TIP3    H253205   1.843   6.363   0.395 -0.3736  1.1922 -0.3000
10572TIP3   OH253206   1.290   0.335   3.770 -0.3270  0.6589 -0.4671
10572TIP3    H153207   1.223   0.268   3.753 -0.2746  0.3530  0.4949
10572TIP3    H253208   1.263   0.376   3.852  0.3183  0.9830 -0.4096
10573TIP3   OH253209   4.716   2.161  17.091 -0.8428  0.3492  0.6813
10573TIP3    H153210   4.722   2.166  17.187 -1.3950 -1.3784  0.8619
10573TIP3    H253211   4.624   2.139  17.075 -0.7909  0.8043 -0.2536
10574TIP3   OH253212   1.894   2.768   2.824 -0.2012 -0.2683  0.4256
10574TIP3    H153213   1.940   2.726   2.897  0.4348 -2.3603 -1.0809
10574TIP3    H253214   1.801   2.748   2.839 -0.2711  0.7172  1.4663
10575TIP3   OH253215   2.223   3.644   3.957  0.5635 -0.0456  0.0954
10575TIP3    H153216   2.318   3.641   3.950  0.7884  1.5767  1.8186
10575TIP3    H253217   2.202   3.585   4.029  0.3763  0.4468  0.4478
10576TIP3   OH253218   3.539   1.304  11.921  0.3161 -0.2786 -0.1713
10576TIP3    H153219   3.477   1.236  11.894  0.2080  0.0004 -0.6388
10576TIP3    H253220   3.488   1.385  11.922  0.4126 -0.2188  0.5104
10577TIP3   OH253221   6.417   6.517  14.467 -0.6564  0.2343 -0.1533
10577TIP3    H153222   6.413   6.596  14.413 -1.6285  2.2053  2.5664
10577TIP3    H253223   6.330   6.511  14.506 -0.7767 -2.5495 -0.6558
10578TIP3   OH253224   4.623   6.741  14.941 -0.1170 -0.1575  0.0207
10578TIP3    H153225   4.658   6.652  14.942 -0.6610 -0.3841 -0.5301
10578TIP3    H253226   4.696   6.795  14.969  1.0770 -0.4969 -2.1505
10579TIP3   OH253227   0.906   0.461  16.177 -0.1841  0.0353 -0.0031
10579TIP3    H153228   0.923   0.378  16.133 -1.5655 -0.9315  1.1807
10579TIP3    H253229   0.818   0.486  16.148  0.8813  2.0827 -1.7603
10580TIP3   OH253230   4.113   5.538   4.510  0.3959 -0.2753  0.2117
10580TIP3    H153231   4.159   5.456   4.492  0.1950 -0.4636  0.5469
10580TIP3    H253232   4.179   5.606   4.499  1.0070 -0.6143  1.6133
10581TIP3   OH253233   4.378   6.622   1.029  0.0206  0.1512  0.1168
10581TIP3    H153234   4.406   6.660   1.111  0.4569  0.5895 -0.2323
10581TIP3    H253235   4.443   6.650   0.965 -0.4966  0.0960 -0.4464
10582TIP3   OH253236   1.468   2.034  14.793  0.1595 -0.4574  0.5115
10582TIP3    H153237   1.422   2.107  14.752 -1.1383 -0.9585  1.0049
10582TIP3    H253238   1.556   2.067  14.810  0.1483  0.3880 -0.8936
10583TIP3   OH253239   6.628   4.142  15.145 -0.3433 -0.2647 -0.4076
10583TIP3    H153240   6.540   4.174  15.166 -0.0760 -0.0273  0.3695
10583TIP3    H253241   6.664   4.112  15.228  0.8679  1.0208 -0.4315
10584TIP3   OH253242   0.037   6.454   0.224  0.3042 -0.2860 -0.1308
10584TIP3    H153243   0.102   6.384   0.227 -0.1233 -0.6913 -0.2545
10584TIP3    H253244  -0.016   6.435   0.147  0.7270  0.6676 -0.6738
10585TIP3   OH253245   5.753   3.987  17.026 -0.4237 -0.0497  0.0097
10585TIP3    H153246   5.830   4.043  17.017 -0.8621  0.2404 -2.9140
10585TIP3    H253247   5.783   3.900  16.998 -0.4976 -0.6228  1.6208
10586TIP3   OH253248   0.659   5.598   2.518  0.2309 -0.1155  0.4921
10586TIP3    H153249   0.581   5.557   2.479  1.3695 -3.5020  1.4689
10586TIP3    H253250   0.635   5.610   2.610 -0.1445  1.7344  0.1876
10587TIP3   OH253251   6.227   2.700  13.975  0.3939 -0.4748 -0.3870
10587TIP3    H153252   6.277   2.781  13.986  1.0731 -0.9451  0.0727
10587TIP3    H253253   6.270   2.638  14.034 -0.4415 -1.0247 -0.3474
10588TIP3   OH253254   2.865   4.981   1.754 -0.4695  0.2947 -0.0765
10588TIP3    H153255   2.956   4.955   1.739  0.0426  1.6735  0.4800
10588TIP3    H253256   2.856   4.986   1.849 -0.5164  2.1070 -0.1368
10589TIP3   OH253257   6.149   5.462   3.736  0.1566  0.4261  0.1609
10589TIP3    H153258   6.192   5.376   3.742 -0.5629 -0.0531 -1.1328
10589TIP3    H253259   6.056   5.442   3.747 -0.0576  0.9671 -0.5990
10590TIP3   OH253260   6.206   2.691  16.251 -0.0565  0.2899 -0.0223
10590TIP3    H153261   6.261   2.693  16.172  0.6300  0.9857  0.4552
10590TIP3    H253262   6.119   2.717  16.220 -0.0127 -0.3449 -0.7076
10591TIP3   OH253263   1.568   1.973   3.257 -0.2190  0.7479 -0.0991
10591TIP3    H153264   1.559   1.878   3.254  0.0494  0.6150  1.9720
10591TIP3    H253265   1.659   1.989   3.232 -0.3130  0.4933 -0.6234
10592TIP3   OH253266   1.537   4.079  11.147 -0.8072 -0.2081 -0.4093
10592TIP3    H153267   1.482   4.075  11.226 -1.2821  0.8835 -0.6661
10592TIP3    H253268   1.489   4.137  11.088  1.5552  2.5134  0.1158
10593TIP3   OH253269   6.438   1.923  13.834 -0.0524 -0.3642  0.2740
10593TIP3    H153270   6.368   1.914  13.770  0.9297 -0.6394 -0.7809
10593TIP3    H253271   6.437   1.841  13.884 -0.0216 -0.6603 -0.2104
10594TIP3   OH253272   1.295   5.590   2.621  0.2581 -0.1090  0.2700
10594TIP3    H153273   1.219   5.637   2.585  0.0499 -1.0611 -0.5767
10594TIP3    H253274   1.327   5.647   2.692 -0.7268  0.7099  0.0832
10595TIP3   OH253275   6.037   6.274  16.043 -0.2512 -0.7488  0.3570
10595TIP3    H153276   6.109   6.317  16.090  2.0655 -1.9240 -1.8633
10595TIP3    H253277   6.041   6.183  16.070 -1.3318 -0.7289  0.6377
10596TIP3   OH253278   2.526   5.478  14.723 -0.2547 -0.2241 -0.1487
10596TIP3    H153279   2.462   5.469  14.652  0.0583  0.7762 -0.5863
10596TIP3    H253280   2.475   5.506  14.799 -0.7180 -2.1093  0.2864
10597TIP3   OH253281   4.140   6.643  13.722 -0.1194  0.7358  1.1081
10597TIP3    H153282   4.116   6.648  13.815  1.4620 -2.3394  1.8540
10597TIP3    H253283   4.235   6.653  13.722  0.1174 -1.0741  0.1155
10598TIP3   OH253284   0.319   1.821   4.163  0.1308  0.0688 -0.3316
10598TIP3    H153285   0.395   1.781   4.204 -0.3153  0.1848  0.6481
10598TIP3    H253286   0.299   1.765   4.088 -1.4181 -2.5620  1.8334
10599TIP3   OH253287   0.250   0.274   6.664  0.2678  0.0271 -0.1852
10599TIP3    H153288   0.233   0.180   6.657  0.4035 -0.1805  1.7321
10599TIP3    H253289   0.321   0.281   6.728 -1.6388  1.5293  1.9342
10600TIP3   OH253290   4.991   5.124  14.443  0.7165  0.1010  0.0363
10600TIP3    H153291   5.013   5.050  14.385 -0.5780  0.6677 -1.2411
10600TIP3    H253292   5.015   5.202  14.392 -0.3573  0.6160  0.3041
10601TIP3   OH253293   4.637   4.016  14.920  0.5205 -0.5545  0.6466
10601TIP3    H153294   4.689   4.024  14.840 -0.6817  2.8548  0.0035
10601TIP3    H253295   4.702   4.010  14.991  1.6727 -0.6006 -0.3842
10602TIP3   OH253296   2.183   2.955   0.846  0.2312 -0.1396  0.3973
10602TIP3    H153297   2.275   2.977   0.861  0.0903  1.4905 -0.8324
10602TIP3    H253298   2.148   3.031   0.800 -2.2433  0.1492  2.5243
10603TIP3   OH253299   3.307   4.480  11.760 -0.0419  0.3824 -0.5685
10603TIP3    H153300   3.349   4.485  11.846  0.3195  0.5770 -0.7564
10603TIP3    H253301   3.376   4.501  11.697  0.0954 -1.3033 -1.0196
10604TIP3   OH253302   4.141   2.642   1.356 -0.5092  0.0501  0.4413
10604TIP3    H153303   4.226   2.684   1.338 -0.2113 -0.0860  1.4773
10604TIP3    H253304   4.164   2.558   1.396 -1.0414 -1.9030 -2.9271
10605TIP3   OH253305   3.833   1.112  11.708 -0.3679  0.3602  0.3965
10605TIP3    H153306   3.924   1.129  11.685 -0.6727 -0.4317 -1.6166
10605TIP3    H253307   3.810   1.181  11.770  1.2808  1.2230  0.0927
10606TIP3   OH253308   3.998   2.156   3.922  0.0588 -0.3727  0.0119
10606TIP3    H153309   4.035   2.130   4.006 -0.6898  0.9650  0.7998
10606TIP3    H253310   4.067   2.208   3.880 -0.6756  1.7698  1.2953
10607TIP3   OH253311   0.996   0.244   1.968  0.0319  0.3698 -0.2871
10607TIP3    H153312   1.051   0.182   1.920 -0.2132  0.0136 -0.1122
10607TIP3    H253313   1.050   0.271   2.043  0.0168  0.1259 -0.1895
10608TIP3   OH253314   1.121   3.316   5.707  0.1128 -0.3377  0.2292
10608TIP3    H153315   1.061   3.368   5.759  2.5815  0.2457  2.6905
10608TIP3    H253316   1.106   3.226   5.735 -0.5211 -0.3532 -0.1550
10609TIP3   OH253317   1.788   2.162  12.679  0.3914  0.4811  0.2121
10609TIP3    H153318   1.819   2.234  12.624  0.2681  0.5589  0.2453
10609TIP3    H253319   1.805   2.191  12.769  1.8282 -0.1982  0.1845
10610TIP3   OH253320   4.006   0.312  16.482  0.0864 -0.3524 -0.2007
10610TIP3    H153321   3.965   0.267  16.409 -1.6022 -0.6562  0.8739
10610TIP3    H253322   4.059   0.381  16.441 -0.4731 -0.7795 -1.7127
10611TIP3   OH253323   1.161   2.111  13.502  0.4951  0.5872 -0.5582
10611TIP3    H153324   1.252   2.122  13.527  0.1155  1.5718  0.4944
10611TIP3    H253325   1.155   2.021  13.472  1.9332  0.6798 -1.2122
10612TIP3   OH253326   0.843   4.293  11.990  0.4237 -0.2939 -0.0868
10612TIP3    H153327   0.832   4.227  11.922  1.1426 -0.1814 -0.3275
10612TIP3    H253328   0.796   4.370  11.957 -1.6527 -1.1124  0.8570
10613TIP3   OH253329   1.698   1.181  14.912 -0.1230 -0.2419  0.0554
10613TIP3    H153330   1.758   1.166  14.839  1.4115  1.0089  0.9645
10613TIP3    H253331   1.612   1.155  14.880  0.6902 -0.7797 -1.7905
10614TIP3   OH253332   3.163   5.621   4.929 -0.5666  0.6236 -0.8712
10614TIP3    H153333   3.228   5.638   4.861  0.5545  3.4380  0.7503
10614TIP3    H253334   3.089   5.677   4.905 -0.9303  0.1989 -0.7548
10615TIP3   OH253335   0.295   6.786  16.164  0.9376  0.1929 -0.1589
10615TIP3    H153336   0.237   6.711  16.173  0.2417  0.7249 -0.1244
10615TIP3    H253337   0.317   6.789  16.071  0.7937  0.0833 -0.1961
10616TIP3   OH253338   0.721   4.612   5.392  0.4412 -0.0161  0.1797
10616TIP3    H153339   0.729   4.519   5.411  1.5882  0.2033  0.8873
10616TIP3    H253340   0.699   4.651   5.477  1.0039  0.4565  0.1177
10617TIP3   OH253341   1.307   1.240   2.532  0.2693 -0.6159  0.1505
10617TIP3    H153342   1.360   1.319   2.539 -1.0347  0.2102  1.3334
10617TIP3    H253343   1.324   1.208   2.444  1.7863  0.2757  0.0799
10618TIP3   OH253344   0.114   0.030  14.192 -0.0009 -0.3335  0.0476
10618TIP3    H153345   0.045  -0.029  14.162 -0.7289  0.7269 -0.4071
10618TIP3    H253346   0.189  -0.027  14.207 -0.6856 -1.3729 -0.3856
10619TIP3   OH253347   4.048   4.236   5.438 -0.1909  0.6276 -0.1366
10619TIP3    H153348   4.128   4.265   5.481 -0.4599  2.3344 -0.7323
10619TIP3    H253349   3.983   4.302   5.461 -1.2119 -0.2509 -0.4024
10620TIP3   OH253350   1.260   2.698   3.130 -0.4460  0.2295 -0.3305
10620TIP3    H153351   1.304   2.712   3.046  0.7023  0.1659  0.2278
10620TIP3    H253352   1.211   2.617   3.119 -1.6627  1.0964 -1.4542
10621TIP3   OH253353   6.665   5.042  13.446  0.3081 -0.2010  0.1003
10621TIP3    H153354   6.665   5.132  13.415  1.6641  0.2538  1.3192
10621TIP3    H253355   6.740   5.037  13.506 -0.8094 -1.6428  1.4612
10622TIP3   OH253356   4.104   0.668  15.253  0.2934  0.2957 -0.0554
10622TIP3    H153357   4.053   0.650  15.332  0.3697 -0.4913 -0.1758
10622TIP3    H253358   4.137   0.757  15.266 -0.5217  0.5509  0.3386
10623TIP3   OH253359   2.027   3.820   6.736 -0.3977 -0.1138  0.0711
10623TIP3    H153360   2.028   3.731   6.700 -1.0893 -0.2753  0.4350
10623TIP3    H253361   2.046   3.876   6.661 -1.6413 -0.4590 -0.5351
10624TIP3   OH253362   6.440   5.569  13.451 -0.0429  0.1966  0.4299
10624TIP3    H153363   6.362   5.561  13.507  0.8633  2.5474  2.1737
10624TIP3    H253364   6.405   5.576  13.362 -1.8335  0.9991  1.1452
10625TIP3   OH253365   6.501   5.294   0.564 -0.0831 -0.0257  0.2846
10625TIP3    H153366   6.534   5.287   0.653 -0.2350 -0.8736  0.2838
10625TIP3    H253367   6.526   5.211   0.523  1.3067  0.9272 -0.9254
10626TIP3   OH253368   2.275   4.827   2.693  0.0925  0.1417 -0.1404
10626TIP3    H153369   2.274   4.815   2.598 -0.7635  0.0335 -0.1175
10626TIP3    H253370   2.201   4.777   2.725  0.1768  0.4524  0.5608
10627TIP3   OH253371   4.579   3.322   0.888  0.4877 -0.8574  0.1463
10627TIP3    H153372   4.504   3.263   0.879 -0.3074  0.0882  0.2846
10627TIP3    H253373   4.654   3.272   0.858 -0.4060 -1.4200 -1.2235
10628TIP3   OH253374   2.939   5.785  14.734  0.1212  0.4926  0.1575
10628TIP3    H153375   2.938   5.702  14.686  0.8648  0.5477  0.0375
10628TIP3    H253376   2.947   5.852  14.666 -1.7395  0.7655  0.1512
10629TIP3   OH253377   0.838   1.313   5.087 -0.0229 -0.1474  0.4354
10629TIP3    H153378   0.921   1.275   5.060  0.9160  0.5692  2.1768
10629TIP3    H253379   0.776   1.240   5.082  1.5042 -1.7233  2.6994
10630TIP3   OH253380   4.491   6.111   3.477  0.1028  0.1696  0.1553
10630TIP3    H153381   4.445   6.073   3.402 -1.3054  1.0504  0.5415
10630TIP3    H253382   4.468   6.204   3.475 -1.3185 -0.0549  2.6056
10631TIP3   OH253383   2.442   1.115  16.796  0.0192  0.1514  0.0751
10631TIP3    H153384   2.533   1.135  16.776 -0.1497  2.4792  1.3645
10631TIP3    H253385   2.446   1.038  16.852  1.1800  0.1928  0.0697
10632TIP3   OH253386   3.692   0.471  13.347  0.3421 -0.0672 -0.3316
10632TIP3    H153387   3.763   0.514  13.300  0.8890  0.2823  0.7708
10632TIP3    H253388   3.722   0.380  13.358  0.9403  0.2315  0.6908
10633TIP3   OH253389   0.145   1.105  11.084  0.8103 -0.3728 -0.0802
10633TIP3    H153390   0.057   1.089  11.049  0.2500  0.8003  0.7208
10633TIP3    H253391   0.141   1.074  11.174  1.6529 -1.5490 -0.4177
10634TIP3   OH253392   6.588   2.632   3.759  0.3030  0.5232 -0.2914
10634TIP3    H153393   6.573   2.723   3.785  0.8578  0.7816 -0.8660
10634TIP3    H253394   6.541   2.623   3.676 -0.0873  0.1663 -0.0363
10635TIP3   OH253395   4.610   5.495   1.886  0.2994  0.1465  0.0260
10635TIP3    H153396   4.630   5.555   1.814 -0.2970 -1.5500 -1.6314
10635TIP3    H253397   4.555   5.428   1.847  0.9268 -1.4975  1.7986
10636TIP3   OH253398   1.663   6.422   4.026  0.1853 -0.5472  0.5159
10636TIP3    H153399   1.670   6.517   4.026 -0.7991 -0.4597  0.5463
10636TIP3    H253400   1.672   6.397   4.118  0.6856 -0.5044  0.4784
10637TIP3   OH253401   6.039   3.961  10.515  1.0811 -0.3641  0.4475
10637TIP3    H153402   6.053   4.047  10.475 -0.6037 -0.9242 -1.5850
10637TIP3    H253403   5.946   3.961  10.537  1.3327 -1.2297  1.5588
10638TIP3   OH253404   4.491   6.642  16.645 -0.2668 -0.7291  0.9409
10638TIP3    H153405   4.569   6.633  16.591 -0.6119 -0.9852  0.4759
10638TIP3    H253406   4.520   6.690  16.722  0.0110  0.5586  0.0661
10639TIP3   OH253407   6.366   0.501   0.488 -0.4313  0.0300  0.2519
10639TIP3    H153408   6.391   0.544   0.406  1.8102  1.0611  1.3858
10639TIP3    H253409   6.415   0.420   0.489  0.3908  0.5160  1.0120
10640TIP3   OH253410   4.357   3.936   0.994  0.5427  0.2481 -0.1632
10640TIP3    H153411   4.408   3.903   0.919  1.8804 -0.9701  1.2198
10640TIP3    H253412   4.283   3.875   1.001  1.9605 -1.4392  1.1883
10641TIP3   OH253413   4.305   4.870  13.076  0.3710  0.4790  0.3098
10641TIP3    H153414   4.230   4.870  13.136  0.5637  1.3966  0.5642
10641TIP3    H253415   4.378   4.841  13.130  0.8680  2.7631  0.9903
10642TIP3   OH253416   3.464   4.762   5.073 -0.0809 -0.2461  0.1027
10642TIP3    H153417   3.413   4.688   5.105  0.4956 -0.1861  1.1844
10642TIP3    H253418   3.490   4.810   5.151  1.1172  0.0657 -0.4652
10643TIP3   OH253419   3.530   4.127   5.510  0.3602  0.1502  0.2256
10643TIP3    H153420   3.600   4.107   5.447  0.6267  1.2051  0.1596
10643TIP3    H253421   3.545   4.219   5.533 -1.2381  0.5244 -0.0924
10644TIP3   OH253422   4.991   4.651  14.931  0.4397 -0.5056 -0.4915
10644TIP3    H153423   5.001   4.687  15.020 -1.7185  1.6965 -1.0243
10644TIP3    H253424   5.059   4.694  14.880 -0.4016  0.8510 -0.5318
10645TIP3   OH253425   0.506   0.678  12.336  0.0687  0.3660  0.3296
10645TIP3    H153426   0.572   0.644  12.276 -1.3635  0.3215 -1.2963
10645TIP3    H253427   0.526   0.772  12.343  0.4443  0.3099  0.0570
10646TIP3   OH253428   0.467   3.685   5.775 -0.2793  0.5353 -0.4967
10646TIP3    H153429   0.530   3.685   5.847  0.8278 -0.6755 -1.4114
10646TIP3    H253430   0.510   3.733   5.705 -0.1565 -0.6427 -1.2712
10647TIP3   OH253431   1.473   1.189   4.313  0.5747  0.3590 -0.4405
10647TIP3    H153432   1.510   1.125   4.374  0.0837  0.9998  0.5584
10647TIP3    H253433   1.405   1.234   4.364  0.9171  1.6771 -1.1072
10648TIP3   OH253434   4.711   4.646   0.522 -0.1404  0.0984 -0.3698
10648TIP3    H153435   4.661   4.572   0.557 -2.1719  3.2439  4.5069
10648TIP3    H253436   4.801   4.613   0.518 -1.1851 -3.1731 -0.4612
10649TIP3   OH253437   4.452   1.470  11.231 -0.5872  0.2873  0.0159
10649TIP3    H153438   4.384   1.450  11.167  0.9866 -2.4781 -0.9640
10649TIP3    H253439   4.431   1.558  11.262 -2.7215  0.8343 -2.6287
10650TIP3   OH253440   2.172   5.717   0.051 -0.5763  0.3406  0.6001
10650TIP3    H153441   2.154   5.740  -0.040  0.3528 -0.1739  0.2643
10650TIP3    H253442   2.166   5.621   0.054  0.2982  0.2804  0.8518
10651TIP3   OH253443   2.030   6.322   1.288 -0.0493  0.2882 -0.0922
10651TIP3    H153444   2.038   6.227   1.283 -0.8406  0.2461 -0.9163
10651TIP3    H253445   1.979   6.346   1.210 -2.0013  1.1157  1.3434
10652TIP3   OH253446   3.094   1.535  17.207 -0.2362  0.2974 -0.4090
10652TIP3    H153447   3.171   1.506  17.257  1.2813  0.3346 -2.5677
10652TIP3    H253448   3.031   1.561  17.274  0.4176 -2.5997  1.5623
10653TIP3   OH253449   5.537   4.349  15.274  0.3824 -0.3996 -0.1907
10653TIP3    H153450   5.449   4.312  15.278 -0.4946  1.5294 -0.5678
10653TIP3    H253451   5.548   4.376  15.183  0.2240  1.8521  0.3864
10654TIP3   OH253452   0.432   1.450  17.082  0.3258  0.0950  0.8059
10654TIP3    H153453   0.376   1.522  17.051  0.6948 -0.9229 -2.5114
10654TIP3    H253454   0.517   1.466  17.042  0.3844 -2.1981 -0.1623
10655TIP3   OH253455   3.959   4.298  15.566  0.1177  1.2493  0.5387
10655TIP3    H153456   3.886   4.319  15.624 -0.6684 -2.5532  1.1801
10655TIP3    H253457   3.921   4.240  15.499  2.5632 -1.7036  1.4471
10656TIP3   OH253458   1.379   3.911   5.392  0.6703 -0.1178 -0.3109
10656TIP3    H153459   1.368   3.911   5.487 -0.1149  0.4892 -0.3955
10656TIP3    H253460   1.367   4.002   5.366 -3.3252 -0.8088 -1.4400
10657TIP3   OH253461   4.726   1.109  14.205  0.7612  0.5588 -0.3758
10657TIP3    H153462   4.760   1.119  14.294 -0.1008  2.2787 -0.1847
10657TIP3    H253463   4.755   1.023  14.177  1.5788  0.2375  1.3454
10658TIP3   OH253464   2.958   1.387  14.171 -0.0463  0.9011 -0.0477
10658TIP3    H153465   3.003   1.430  14.244 -0.8441  0.8876  0.4656
10658TIP3    H253466   2.910   1.315  14.212 -0.1121  0.5908 -0.6621
10659TIP3   OH253467   6.450   4.456  15.580  0.3739 -0.6735 -0.5137
10659TIP3    H153468   6.538   4.436  15.548  0.6111 -0.8586  0.2375
10659TIP3    H253469   6.399   4.377  15.562  0.7111 -1.0811  0.2806
10660TIP3   OH253470   3.392   6.583   2.147  0.4103 -0.1369 -0.3736
10660TIP3    H153471   3.298   6.580   2.132  0.4824 -1.5605 -0.6963
10660TIP3    H253472   3.402   6.627   2.231 -0.5867 -0.4958 -0.0581
10661TIP3   OH253473   3.974   5.627  14.856 -0.0609 -0.7608  0.0382
10661TIP3    H153474   3.927   5.549  14.885 -0.3990 -1.0682 -1.2865
10661TIP3    H253475   3.909   5.680  14.810  1.1433 -2.0239 -3.4121
10662TIP3   OH253476   5.690   1.256   3.675  0.1962  0.0099 -0.5149
10662TIP3    H153477   5.742   1.241   3.596  0.4312  4.8087 -1.6308
10662TIP3    H253478   5.753   1.293   3.737 -0.9540  1.7103 -0.2818
10663TIP3   OH253479   0.445   0.691   3.115 -0.4139  0.5052 -0.2445
10663TIP3    H153480   0.379   0.728   3.057  0.1887  1.1980 -0.5011
10663TIP3    H253481   0.514   0.661   3.056 -0.9288 -1.1639 -0.0584
10664TIP3   OH253482   5.214   3.039   2.772 -0.0770 -0.8292 -0.3069
10664TIP3    H153483   5.289   3.098   2.782  0.2023 -1.3882  1.0057
10664TIP3    H253484   5.174   3.066   2.689  0.7571  0.3956 -0.3372
10665TIP3   OH253485   4.090   1.714   0.765  0.3420  0.2651  0.1627
10665TIP3    H153486   4.102   1.648   0.697 -0.6284  1.4654 -1.2440
10665TIP3    H253487   4.124   1.674   0.844  3.6576 -0.4270 -1.4185
10666TIP3   OH253488   0.395   2.737   1.501 -0.1334 -0.6605 -0.1247
10666TIP3    H153489   0.440   2.701   1.577  0.1236 -0.0123  0.0348
10666TIP3    H253490   0.309   2.762   1.533  0.6653  1.5085  0.4739
10667TIP3   OH253491   0.072   1.285   0.771 -0.5862 -0.0977  0.6325
10667TIP3    H153492  -0.009   1.277   0.821 -1.3254 -0.1030 -0.5457
10667TIP3    H253493   0.060   1.228   0.695 -0.1189  1.0901 -0.3694
10668TIP3   OH253494   6.648   2.662   3.141 -0.2948  0.1963  0.0124
10668TIP3    H153495   6.638   2.757   3.139  0.0782  0.2262 -2.0895
10668TIP3    H253496   6.694   2.640   3.060  0.4223 -1.7040  0.8650
10669TIP3   OH253497   4.233   1.662  12.906  0.2608 -0.2949 -0.7298
10669TIP3    H153498   4.322   1.629  12.891 -0.9261 -3.2547 -1.8591
10669TIP3    H253499   4.187   1.643  12.825 -1.6924  0.2270  0.2134
10670TIP3   OH253500   4.297   2.953   1.982  0.2286 -0.6375 -0.0778
10670TIP3    H153501   4.297   2.861   2.009  0.3289 -0.6524 -0.1262
10670TIP3    H253502   4.223   2.992   2.029  1.8830 -0.0873  2.2864
10671TIP3   OH253503   5.174   4.336  13.736 -0.4452 -0.5928 -0.1677
10671TIP3    H153504   5.080   4.325  13.749 -1.0771  3.8041  0.5653
10671TIP3    H253505   5.181   4.381  13.651  0.5466  2.0399  1.1871
10672TIP3   OH253506   6.595   2.499  14.820  0.3157  0.1431  0.0526
10672TIP3    H153507   6.604   2.572  14.882 -1.4649  1.0134 -0.6124
10672TIP3    H253508   6.580   2.422  14.876 -1.6201  0.9627  0.7777
10673TIP3   OH253509   1.028   1.491  16.739  0.1861 -0.1789  0.0099
10673TIP3    H153510   1.082   1.430  16.790  0.7208  0.8466  0.7049
10673TIP3    H253511   0.992   1.551  16.804 -0.3823  0.2184 -0.6564
10674TIP3   OH253512   2.798   3.990  17.274 -0.4300 -0.0816  0.2379
10674TIP3    H153513   2.849   4.048  17.330  0.3774 -2.0828  1.6934
10674TIP3    H253514   2.713   4.033  17.266  0.5056  1.8797  0.1913
10675TIP3   OH253515   2.505   0.369  11.187 -0.3378 -0.9324  0.2657
10675TIP3    H153516   2.481   0.306  11.255 -0.5493  0.1588  1.2363
10675TIP3    H253517   2.586   0.334  11.149 -0.6350 -1.9540  0.5519
10676TIP3   OH253518   3.305   0.999  16.466  0.2885  0.6406  0.2148
10676TIP3    H153519   3.237   1.009  16.399  1.5791 -0.3005 -1.3155
10676TIP3    H253520   3.305   0.906  16.486  0.6403  0.7493  0.7450
10677TIP3   OH253521   6.521   4.498  12.953 -0.2839  0.4508 -0.7572
10677TIP3    H153522   6.559   4.410  12.950  2.1118  1.0853  3.3052
10677TIP3    H253523   6.588   4.554  12.914  0.5804  0.9361  1.2880
10678TIP3   OH253524   2.509   2.177  15.909  0.0984  0.3699 -0.3949
10678TIP3    H153525   2.488   2.260  15.953  0.4754  1.3255 -1.9201
10678TIP3    H253526   2.432   2.159  15.855 -0.0961 -0.4412  0.1452
10679TIP3   OH253527   1.388   2.313  16.126 -0.5619  0.0007  0.4610
10679TIP3    H153528   1.418   2.224  16.139  0.0686  0.2905  1.0179
10679TIP3    H253529   1.324   2.307  16.054 -0.9723 -0.9781  0.8953
10680TIP3   OH253530   0.013   5.363   5.721 -1.2765 -0.4316 -0.0318
10680TIP3    H153531   0.092   5.323   5.757  0.5337  2.2701 -0.6748
10680TIP3    H253532   0.038   5.390   5.632 -2.7095  0.9809 -0.0535
10681TIP3   OH253533   2.272   2.947  13.985 -0.4544 -0.1311  0.1184
10681TIP3    H153534   2.264   2.851  13.981  1.2174 -0.3081 -0.0113
10681TIP3    H253535   2.357   2.961  14.027 -1.2619  1.3377  1.3332
10682TIP3   OH253536   2.422   1.245  11.828  0.5363  0.5289 -0.4038
10682TIP3    H153537   2.345   1.188  11.830  0.1901  0.9931 -0.3924
10682TIP3    H253538   2.387   1.332  11.808  0.9442  0.9409  0.6444
10683TIP3   OH253539   2.925   2.187   2.497  0.2320  0.0251  0.2852
10683TIP3    H153540   2.892   2.121   2.557 -1.5189  0.1041 -0.5494
10683TIP3    H253541   2.918   2.269   2.546  2.1252 -0.2960  1.2089
10684TIP3   OH253542   3.014   3.158   5.513 -0.2192  0.7835  0.2137
10684TIP3    H153543   3.013   3.248   5.545 -0.7286  1.2721 -1.1054
10684TIP3    H253544   2.924   3.127   5.525  0.2986 -0.1463  2.1593
10685TIP3   OH253545   1.385   4.326   0.288 -0.1960  0.0551  0.2128
10685TIP3    H153546   1.438   4.275   0.228 -1.2819 -0.7421 -0.0925
10685TIP3    H253547   1.354   4.401   0.237  0.5327  0.4704  0.3659
10686TIP3   OH253548   4.255   2.405  14.818  0.4243 -0.0986 -0.1499
10686TIP3    H153549   4.343   2.440  14.828  0.9907 -0.9793 -1.7078
10686TIP3    H253550   4.209   2.470  14.766  0.3083  0.1034  0.2002
10687TIP3   OH253551   1.038   0.029   0.513 -0.4292 -0.4027  0.1764
10687TIP3    H153552   1.076   0.023   0.425  0.3648 -0.2696  0.5043
10687TIP3    H253553   1.006  -0.060   0.531 -2.5085  0.0283 -1.0644
10688TIP3   OH253554   1.226   5.457  12.606  0.6373  0.3197  0.2214
10688TIP3    H153555   1.135   5.481  12.618  0.2089 -1.3835  0.6346
10688TIP3    H253556   1.239   5.457  12.511  1.2418  3.9985  0.1844
10689TIP3   OH253557   5.059   3.674  11.541 -0.2176 -0.3395  0.1057
10689TIP3    H153558   5.091   3.698  11.454 -0.9816 -2.7043 -0.9115
10689TIP3    H253559   4.968   3.650  11.527 -0.7286  0.4695  1.8318
10690TIP3   OH253560   5.410   3.655  14.730 -0.3723  0.0291 -0.4988
10690TIP3    H153561   5.478   3.695  14.675  1.5625  1.1253  2.4315
10690TIP3    H253562   5.356   3.729  14.758  1.3056  0.3071  2.3961
10691TIP3   OH253563   3.962   1.032  17.229 -0.4928 -0.5975  0.7047
10691TIP3    H153564   3.949   1.120  17.192 -2.7594 -0.0292  2.5933
10691TIP3    H253565   3.999   1.047  17.315 -0.5508 -1.5128  0.8984
10692TIP3   OH253566   5.841   1.342  15.229 -0.3447 -0.2538  0.2284
10692TIP3    H153567   5.880   1.299  15.306 -0.5743 -0.0921  0.4355
10692TIP3    H253568   5.751   1.360  15.255  0.0900  1.5202  0.6242
10693TIP3   OH253569   3.411   0.856  12.315 -0.0586 -0.1656 -0.4385
10693TIP3    H153570   3.318   0.878  12.309 -0.2226 -0.4721  0.8082
10693TIP3    H253571   3.420   0.776  12.263 -0.2863  0.3930 -1.3709
10694TIP3   OH253572   3.453   2.717   2.384 -0.5301  0.1255  0.4090
10694TIP3    H153573   3.502   2.797   2.403 -0.1673  0.1927 -0.7578
10694TIP3    H253574   3.520   2.654   2.356 -0.8086 -0.5995  1.3173
10695TIP3   OH253575   2.949   5.453   3.649 -0.0844  0.5122 -0.6057
10695TIP3    H153576   3.010   5.504   3.703 -0.5765  0.3770  0.0926
10695TIP3    H253577   2.864   5.496   3.663 -0.5026 -0.4728 -0.0307
10696TIP3   OH253578   4.097   5.032   6.164 -0.2011 -0.4738  0.1028
10696TIP3    H153579   4.032   5.102   6.151  0.0899  0.1162  1.5907
10696TIP3    H253580   4.046   4.959   6.198 -0.1729 -0.1592  0.8464
10697TIP3   OH253581   1.066   1.253   0.823  0.1734  0.3567 -0.1690
10697TIP3    H153582   1.089   1.167   0.856 -1.9149  0.3651  1.5351
10697TIP3    H253583   0.990   1.238   0.766 -1.3379  1.1606  1.5198
10698TIP3   OH253584   2.387   4.130   5.866 -0.1535 -0.1830  0.0837
10698TIP3    H153585   2.403   4.051   5.918  1.4734  0.1105  0.0670
10698TIP3    H253586   2.449   4.125   5.794  0.7456  1.6053  0.6666
10699TIP3   OH253587   2.707   2.498  15.180 -0.0654  0.0882  0.2281
10699TIP3    H153588   2.799   2.512  15.200  0.2551 -2.2059  0.6337
10699TIP3    H253589   2.706   2.429  15.114 -1.4564  1.6169 -1.4397
10700TIP3   OH253590   4.886   1.130   3.452 -0.1585  0.5280 -0.8964
10700TIP3    H153591   4.833   1.207   3.433 -0.8478  0.0795 -0.8294
10700TIP3    H253592   4.827   1.071   3.500  0.8517  0.6751  0.5794
10701TIP3   OH253593   1.757   6.476   6.710  0.0453 -0.5752  0.4074
10701TIP3    H153594   1.749   6.416   6.636  0.3411  1.8837 -1.8088
10701TIP3    H253595   1.675   6.466   6.758  0.0011 -2.5262  0.0001
10702TIP3   OH253596   4.417   4.447   0.720 -0.1228  0.3460  0.1770
10702TIP3    H153597   4.438   4.357   0.695  0.5155  0.7462 -0.7890
10702TIP3    H253598   4.360   4.479   0.650  0.0081  0.8237  0.2806
10703TIP3   OH253599   4.976   6.642   6.343 -0.9373 -0.3091 -0.2534
10703TIP3    H153600   4.961   6.580   6.413 -1.7143  1.3857  1.1663
10703TIP3    H253601   5.071   6.649   6.336 -0.7778  0.8749  2.0098
10704TIP3   OH253602   2.165   4.561   4.545 -0.4755  0.0599 -0.3586
10704TIP3    H153603   2.214   4.480   4.561 -0.1889  0.4548  0.8631
10704TIP3    H253604   2.202   4.624   4.607 -2.4521  0.3918  0.5399
10705TIP3   OH253605   0.969   2.354   1.466  0.8044  0.0374 -0.1615
10705TIP3    H153606   0.943   2.359   1.374  1.0454  0.5276 -0.2076
10705TIP3    H253607   0.999   2.264   1.478  0.0483 -0.2520 -0.3614
10706TIP3   OH253608   6.269   5.508  10.866  0.3938  0.4939 -0.1842
10706TIP3    H153609   6.277   5.596  10.828 -0.6095  1.7165  2.2445
10706TIP3    H253610   6.297   5.519  10.957  0.3254 -1.7438  0.1476
10707TIP3   OH253611   5.405   6.228  12.076  0.6184  0.0124 -0.2307
10707TIP3    H153612   5.453   6.148  12.098  1.1567  0.2684 -0.4380
10707TIP3    H253613   5.353   6.247  12.154  1.5083  0.1977  0.3310
10708TIP3   OH253614   5.393   4.865  15.193 -0.0661  0.0693  0.2025
10708TIP3    H153615   5.441   4.911  15.124 -0.7422  2.9298  1.4952
10708TIP3    H253616   5.450   4.871  15.270 -1.4818  1.5539  1.1821
10709TIP3   OH253617   4.495   2.740  16.021 -0.4276 -0.3783  0.3842
10709TIP3    H153618   4.570   2.700  15.977 -1.6278 -1.4215 -0.8280
10709TIP3    H253619   4.520   2.745  16.113  1.1823 -0.5109 -0.0145
10710TIP3   OH253620   2.245   5.868   3.081  0.0626  0.5637 -0.2449
10710TIP3    H153621   2.196   5.798   3.036  0.8985  0.0760 -0.4174
10710TIP3    H253622   2.313   5.822   3.129  0.5392  1.2617 -0.2461
10711TIP3   OH253623   6.191   2.245  15.806 -0.1520  0.4315 -0.0370
10711TIP3    H153624   6.225   2.287  15.727 -1.2922  1.3739 -0.0535
10711TIP3    H253625   6.096   2.250  15.797 -0.3039 -0.0581  1.0786
10712TIP3   OH253626   1.939   6.783  17.179 -0.4670  0.0168 -0.0703
10712TIP3    H153627   2.026   6.747  17.162  0.0021  2.3896 -3.8242
10712TIP3    H253628   1.886   6.753  17.105 -1.3586  2.6526 -0.6227
10713TIP3   OH253629   0.530   2.694   0.587  0.1637 -0.2001  0.1348
10713TIP3    H153630   0.540   2.770   0.643  0.2859  0.1601 -0.3668
10713TIP3    H253631   0.442   2.661   0.606 -0.3434  0.7498 -0.4664
10714TIP3   OH253632   1.068   4.291   4.616 -0.0008  0.0774 -0.0001
10714TIP3    H153633   1.002   4.249   4.561  0.4273  0.6188 -0.9575
10714TIP3    H253634   1.127   4.221   4.642 -0.1671 -0.1717 -0.2907
10715TIP3   OH253635   3.601   1.470  13.887  0.2508 -0.5780  0.1177
10715TIP3    H153636   3.566   1.385  13.858  1.1486 -1.8176  2.3890
10715TIP3    H253637   3.534   1.533  13.862  0.0605 -1.7279 -2.7044
10716TIP3   OH253638   5.010   0.784  15.260 -0.3171  0.5018  0.0226
10716TIP3    H153639   4.986   0.831  15.180  0.7504  1.0363 -0.0011
10716TIP3    H253640   4.927   0.775  15.308 -0.5115  2.6989  0.1809
10717TIP3   OH253641   5.363   1.496   0.323 -0.2456 -0.0043  0.2981
10717TIP3    H153642   5.333   1.448   0.400  0.0278 -0.0832  0.3578
10717TIP3    H253643   5.359   1.433   0.252  1.2491 -0.4821  0.6057
10718TIP3   OH253644   1.673   1.644  10.897 -0.2439  0.1717  0.1912
10718TIP3    H153645   1.739   1.714  10.895  0.6913 -0.6914  0.4400
10718TIP3    H253646   1.698   1.585  10.826 -1.7405  0.6832 -0.8370
10719TIP3   OH253647   5.263   5.028   1.088 -0.4752 -0.5918  1.1219
10719TIP3    H153648   5.306   4.952   1.126  0.8640  0.1867  1.2411
10719TIP3    H253649   5.335   5.081   1.053 -1.4865 -0.0933 -0.2877
10720TIP3   OH253650   2.433   3.305  15.750 -0.0178  0.1105  0.2558
10720TIP3    H153651   2.361   3.253  15.714  0.5330 -0.0173 -0.6952
10720TIP3    H253652   2.498   3.307  15.680 -0.0502  2.1415  0.2496
10721TIP3   OH253653   0.418   4.710   1.265 -0.1147 -0.5358  0.1657
10721TIP3    H153654   0.417   4.619   1.297 -4.4034 -0.9547 -0.6104
10721TIP3    H253655   0.343   4.751   1.307 -0.8684  1.3582 -2.7667
10722TIP3   OH253656   6.200   2.463  12.012  0.0947  0.3402 -0.2160
10722TIP3    H153657   6.239   2.379  11.989  0.0407  0.7334 -1.8580
10722TIP3    H253658   6.163   2.449  12.100  2.3569 -0.5454  0.6798
10723TIP3   OH253659   0.005   5.206  16.751  0.2393 -0.1782 -0.4747
10723TIP3    H153660   0.003   5.114  16.724 -0.8155 -0.5060  0.6336
10723TIP3    H253661   0.058   5.206  16.830 -1.2924 -0.1869  0.6085
10724TIP3   OH253662   3.279   0.733   0.081  0.1099  0.4938  0.4664
10724TIP3    H153663   3.308   0.800   0.019  0.6821 -0.5528 -0.4218
10724TIP3    H253664   3.354   0.719   0.138 -0.2664  1.1353  1.1378
10725TIP3   OH253665   4.998   6.731  12.506 -0.0702  0.5944 -0.0371
10725TIP3    H153666   4.942   6.766  12.437  0.7385  0.0230 -0.9961
10725TIP3    H253667   5.025   6.808  12.556  0.9514  1.2697 -1.5670
10726TIP3   OH253668   1.274   0.679  14.956  0.2700 -0.4454  0.4803
10726TIP3    H153669   1.226   0.761  14.937 -1.8986 -1.7843 -0.2300
10726TIP3    H253670   1.281   0.677  15.051 -0.6106  0.0737  0.5701
10727TIP3   OH253671   1.431   3.087  13.871 -0.0249 -0.1827 -0.5601
10727TIP3    H153672   1.475   3.146  13.933  0.8828  0.4652 -1.7853
10727TIP3    H253673   1.351   3.060  13.916  0.9642 -0.3365  1.2020
10728TIP3   OH253674   2.464   4.486  17.084 -0.4220 -0.2468  0.0175
10728TIP3    H153675   2.533   4.523  17.137 -0.9320  0.8125 -0.0269
10728TIP3    H253676   2.501   4.480  16.996  0.1393 -1.2198  0.3041
10729TIP3   OH253677   2.087   6.157   1.953 -0.0297 -0.5825 -0.0790
10729TIP3    H153678   2.000   6.190   1.972 -0.5168 -2.1075  0.4784
10729TIP3    H253679   2.143   6.235   1.949 -1.4682  0.4515 -0.8424
10730TIP3   OH253680   4.794   0.434   0.019 -0.4493 -0.3221 -0.1372
10730TIP3    H153681   4.823   0.383   0.095 -1.4015 -0.4085  0.1832
10730TIP3    H253682   4.727   0.380  -0.022 -0.9273  0.3356 -0.2324
10731TIP3   OH253683   1.964   0.630  14.420  0.2767 -0.2980  0.3391
10731TIP3    H153684   1.989   0.697  14.484  0.4222 -0.0184 -0.0041
10731TIP3    H253685   1.876   0.604  14.446  0.4295 -0.3712  0.8031
10732TIP3   OH253686   5.929   6.010  14.058  0.5116 -0.1126 -0.3294
10732TIP3    H153687   5.880   5.987  14.138  2.0573  0.7562  0.9331
10732TIP3    H253688   5.913   6.104  14.047  1.0182 -0.0507 -0.5364
10733TIP3   OH253689   2.407   3.835  11.471 -0.3230 -0.3637 -0.7429
10733TIP3    H153690   2.367   3.920  11.452  0.2168 -0.2626 -1.4437
10733TIP3    H253691   2.364   3.806  11.552 -0.2290  0.7504 -0.2843
10734TIP3   OH253692   6.581   2.599   0.109  0.2680 -0.2655  0.0706
10734TIP3    H153693   6.621   2.523   0.066  0.7294  0.2274 -0.3792
10734TIP3    H253694   6.514   2.561   0.167 -0.5227 -0.9341 -1.2404
10735TIP3   OH253695   4.023   2.184   2.367 -0.3815 -0.2927 -0.4624
10735TIP3    H153696   4.040   2.201   2.274  0.0969 -0.6894 -0.4491
10735TIP3    H253697   4.099   2.134   2.397 -0.6293 -0.3439  0.0950
10736TIP3   OH253698   5.952   5.682  12.693 -0.1187  0.1213 -0.3291
10736TIP3    H153699   5.925   5.630  12.617 -0.7374  0.4570 -0.3477
10736TIP3    H253700   5.952   5.621  12.766 -1.3768  0.1927 -0.2454
10737TIP3   OH253701   4.053   5.740  15.119  0.5288 -0.2320  0.2650
10737TIP3    H153702   4.034   5.713  15.029  0.6493 -0.2751  0.2522
10737TIP3    H253703   4.133   5.791  15.112  0.0310  0.5614  0.2176
10738TIP3   OH253704   0.268   1.278   5.427 -0.5437 -1.2313  0.3731
10738TIP3    H153705   0.314   1.210   5.476 -1.4927 -2.8715 -0.8806
10738TIP3    H253706   0.230   1.335   5.494 -0.4495 -2.4466  1.4978
10739TIP3   OH253707   1.252   2.614   4.056  0.6409  0.0036 -0.5232
10739TIP3    H153708   1.222   2.545   3.996  1.2431  0.1039 -0.9504
10739TIP3    H253709   1.219   2.586   4.141 -3.1800  1.5378 -1.2678
10740TIP3   OH253710   1.864   6.570  15.215 -0.3147  0.2155 -0.1901
10740TIP3    H153711   1.937   6.509  15.203  1.2126  2.0698 -0.9689
10740TIP3    H253712   1.830   6.583  15.126 -0.0627  1.0860 -0.1744
10741TIP3   OH253713   5.541   5.563  11.608  0.0234  0.1596  0.0599
10741TIP3    H153714   5.462   5.616  11.617  1.6851  2.9415 -0.6321
10741TIP3    H253715   5.570   5.579  11.518  2.1706  0.4929  0.7513
10742TIP3   OH253716   0.603   6.311  16.396 -0.2131 -0.2454  0.0123
10742TIP3    H153717   0.635   6.324  16.307 -0.0791  0.1827  0.1190
10742TIP3    H253718   0.538   6.380  16.409 -0.4056 -0.4512  0.1669
10743TIP3   OH253719   3.785   1.006  13.064 -0.3800  0.7340  0.4459
10743TIP3    H153720   3.723   1.076  13.043 -0.5722  0.8793  1.4649
10743TIP3    H253721   3.730   0.930  13.086 -0.1744  0.3016 -0.4777
10744TIP3   OH253722   1.395   0.520  12.353  0.2817  0.3153 -0.3308
10744TIP3    H153723   1.324   0.532  12.416  0.0883 -1.6767 -0.0983
10744TIP3    H253724   1.434   0.436  12.378  1.8946  0.7634 -1.2563
10745TIP3   OH253725   6.018   4.037  15.522 -0.7136 -0.0379  0.0731
10745TIP3    H153726   5.938   4.085  15.502 -0.7494  0.8677  2.1983
10745TIP3    H253727   5.993   3.945  15.517 -1.3475  0.1712 -1.2399
10746TIP3   OH253728   5.749   2.921  16.104 -0.3243 -0.1393 -0.2038
10746TIP3    H153729   5.800   2.984  16.055  1.6712 -1.0554  0.5789
10746TIP3    H253730   5.696   2.974  16.164  0.4051  0.8121 -0.3861
10747TIP3   OH253731   5.443   2.007  13.802  0.2482 -0.0368  0.2577
10747TIP3    H153732   5.388   1.973  13.872  0.4469  0.2113  0.5399
10747TIP3    H253733   5.446   2.101  13.818  0.4526 -0.0039  0.0296
10748TIP3   OH253734   4.797   0.162  12.011 -0.0452 -0.2820 -0.2643
10748TIP3    H153735   4.816   0.130  12.099 -2.2199  1.9339  1.1093
10748TIP3    H253736   4.760   0.086  11.965  0.6413 -1.3249  0.8478
10749TIP3   OH253737   6.491   5.254  12.089  0.0356  0.4516 -0.1698
10749TIP3    H153738   6.447   5.338  12.079 -0.7140  0.1416  0.3922
10749TIP3    H253739   6.443   5.195  12.030  1.5155  0.7258 -1.7563
10750TIP3   OH253740   3.929   0.188  16.255  0.3333 -0.1885 -0.1039
10750TIP3    H153741   3.902   0.241  16.180  0.4104  0.8337  0.5737
10750TIP3    H253742   3.906   0.098  16.230 -1.0189  0.3004 -0.7431
10751TIP3   OH253743   2.588   1.833   5.326 -0.0309  0.8515 -0.1869
10751TIP3    H153744   2.612   1.810   5.236  0.6150  0.6689  0.0345
10751TIP3    H253745   2.637   1.913   5.344  1.7978 -0.4465  0.8643
10752TIP3   OH253746   6.712   3.537   5.190  0.5438  0.0470  0.7346
10752TIP3    H153747   6.740   3.628   5.179 -0.3598  0.1429 -1.1354
10752TIP3    H253748   6.774   3.501   5.253  3.1452  1.0029 -1.1073
10753TIP3   OH253749   5.020   1.794  12.667  0.3383  0.5786  0.3191
10753TIP3    H153750   4.931   1.814  12.636  0.5992  0.8612 -0.2454
10753TIP3    H253751   5.008   1.719  12.724 -0.0604 -0.4165 -1.0276
10754TIP3   OH253752   4.623   3.886  11.983 -0.3481 -0.3364  0.1242
10754TIP3    H153753   4.625   3.867  12.077 -3.5164 -0.5838  0.2628
10754TIP3    H253754   4.633   3.981  11.977 -1.2625 -0.1804  0.8503
10755TIP3   OH253755   6.248   3.898  12.656  0.3846 -0.1290 -0.2831
10755TIP3    H153756   6.189   3.914  12.582  0.1878 -1.8258 -0.5333
10755TIP3    H253757   6.334   3.883  12.615  0.3390 -0.7660 -0.1494
10756TIP3   OH253758   5.570   3.624   0.255 -0.1629  0.2773  0.0417
10756TIP3    H153759   5.546   3.577   0.175 -0.5850  0.5269  0.0152
10756TIP3    H253760   5.657   3.592   0.277  0.8773  1.7307 -1.6837
10757TIP3   OH253761   6.060   4.581  16.644 -0.1617 -0.6151 -0.9984
10757TIP3    H153762   6.144   4.622  16.623 -0.3555  0.0543 -0.5133
10757TIP3    H253763   6.040   4.527  16.568  0.6862 -0.7418 -1.1388
10758TIP3   OH253764   1.401   3.497  16.683  0.3104 -0.1677 -0.1968
10758TIP3    H153765   1.477   3.450  16.649 -0.7187 -1.5064 -0.7597
10758TIP3    H253766   1.401   3.580  16.636  1.0703 -0.4148 -0.6514
10759TIP3   OH253767   4.084   6.624   4.477 -0.1391  0.2338  0.2735
10759TIP3    H153768   4.104   6.662   4.391 -0.7818 -0.9610 -0.4255
10759TIP3    H253769   3.992   6.598   4.471  0.3615 -1.7731  0.5666
10760TIP3   OH253770   3.947   5.557   0.732 -0.4445  0.1682 -0.3390
10760TIP3    H153771   3.980   5.642   0.703 -1.9476  0.8594 -0.0899
10760TIP3    H253772   3.855   5.573   0.754 -1.0613 -1.7371 -1.2785
10761TIP3   OH253773   2.607   3.438  14.175  0.1070  0.2190  0.4555
10761TIP3    H153774   2.511   3.434  14.183 -0.0985  1.7920 -0.7315
10761TIP3    H253775   2.635   3.493  14.248  0.2296 -0.9130  1.2967
10762TIP3   OH253776   6.182   3.330  13.138  0.4132  0.1139 -0.0244
10762TIP3    H153777   6.129   3.410  13.137  0.0750 -0.0701  1.1706
10762TIP3    H253778   6.238   3.337  13.061  1.4960  2.2723  0.8467
10763TIP3   OH253779   4.966   1.028   6.191  0.4592  0.1761 -0.2649
10763TIP3    H153780   4.992   1.083   6.266  2.4660 -0.2248 -0.6311
10763TIP3    H253781   4.930   0.949   6.231 -0.0283  0.6512  0.2619
10764TIP3   OH253782   6.188   3.593   0.865  0.6736 -0.0531  0.2712
10764TIP3    H153783   6.118   3.645   0.825  0.9397  0.1809  0.1027
10764TIP3    H253784   6.263   3.653   0.869  1.3411 -0.7564 -1.0070
10765TIP3   OH253785   3.251   1.283   5.526 -0.1091  0.6295  0.6073
10765TIP3    H153786   3.312   1.350   5.494 -1.2921  1.2787 -0.3820
10765TIP3    H253787   3.296   1.200   5.510  0.1793  1.0476 -0.9080
10766TIP3   OH253788   1.088   3.129   1.546  0.3750 -0.0478  0.4787
10766TIP3    H153789   1.051   3.042   1.534  1.7651 -0.9419  2.2359
10766TIP3    H253790   1.149   3.139   1.473  0.4480 -0.7092  0.4400
10767TIP3   OH253791   1.795   2.312  12.924  0.3063  0.5711 -0.4709
10767TIP3    H153792   1.740   2.388  12.901 -1.9854 -0.7097  0.4313
10767TIP3    H253793   1.876   2.350  12.958 -0.4314  2.5871 -0.8318
10768TIP3   OH253794   0.849   2.007  15.470 -0.7159  0.1410 -0.0761
10768TIP3    H153795   0.840   2.091  15.516  0.4060 -0.5282  1.4592
10768TIP3    H253796   0.925   1.966  15.511 -0.3402 -1.0001 -1.8162
10769TIP3   OH253797   0.520   6.635   2.424 -0.1687  0.2392  0.1963
10769TIP3    H153798   0.613   6.650   2.405 -0.9143  2.4833 -2.4713
10769TIP3    H253799   0.488   6.582   2.351 -0.8124 -1.4806  1.6649
10770TIP3   OH253800   6.480   0.796  16.135 -0.2404 -0.2766 -0.4887
10770TIP3    H153801   6.513   0.792  16.225  0.7894  1.6119 -0.7292
10770TIP3    H253802   6.519   0.720  16.092 -0.2420 -0.8556  0.4924
10771TIP3   OH253803   0.923   4.260  17.128  0.4286  0.1375  0.0189
10771TIP3    H153804   0.910   4.205  17.051 -0.7261  0.2105  0.1489
10771TIP3    H253805   0.876   4.341  17.107  0.1854  0.1898  0.7556
10772TIP3   OH253806   5.814   0.507  13.962 -0.2432 -0.0614 -0.1699
10772TIP3    H153807   5.772   0.510  14.048 -0.6424 -1.4902 -0.2836
10772TIP3    H253808   5.893   0.560  13.971 -0.9158  0.8427  0.6959
10773TIP3   OH253809   5.171   6.638  13.914  0.1586  0.0938  0.1520
10773TIP3    H153810   5.186   6.662  13.822  0.6093 -0.5069  0.0616
10773TIP3    H253811   5.193   6.717  13.963  1.0736  0.0530 -0.1757
10774TIP3   OH253812   5.678   2.822   2.695  0.1557  0.3142 -0.1111
10774TIP3    H153813   5.646   2.893   2.638  0.0854  1.0759  0.8553
10774TIP3    H253814   5.614   2.752   2.685 -0.1562  0.6535 -0.5326
10775TIP3   OH253815   2.438   1.888   4.950  0.2878 -0.4478 -0.6686
10775TIP3    H153816   2.350   1.861   4.973  0.5009 -1.0692 -0.5583
10775TIP3    H253817   2.458   1.960   5.010 -0.1972 -0.2031 -0.7993
10776TIP3   OH253818   6.315   4.505   0.695 -0.5204  1.0281 -0.2968
10776TIP3    H153819   6.251   4.435   0.680  0.5682 -0.2741  0.7887
10776TIP3    H253820   6.295   4.536   0.784  0.1378  0.8296 -0.0760
10777TIP3   OH253821   1.975   3.008   2.712  0.3426  0.1828  0.1218
10777TIP3    H153822   1.947   2.938   2.771 -0.8642  1.9202  1.7423
10777TIP3    H253823   1.921   3.083   2.736  1.7979  1.7863 -1.2978
10778TIP3   OH253824   1.844   0.762  10.243 -0.3337 -0.4753 -0.3195
10778TIP3    H153825   1.872   0.700  10.311  0.2082  0.4851  0.3473
10778TIP3    H253826   1.771   0.717  10.199 -0.9268 -0.9862  1.1175
10779TIP3   OH253827   5.723   5.335  13.794 -0.0677 -0.7326 -0.2451
10779TIP3    H153828   5.775   5.261  13.824  1.1881  0.5506  0.9361
10779TIP3    H253829   5.752   5.408  13.849 -0.4746  0.8722 -2.0373
10780TIP3   OH253830   2.304   4.217  15.506 -0.3970  0.5364 -0.4629
10780TIP3    H153831   2.228   4.260  15.548  0.5265  1.8362 -0.0506
10780TIP3    H253832   2.280   4.125  15.503 -1.2372  0.6394  1.3631
10781TIP3   OH253833   1.112   1.145   4.941  0.0868 -0.9391  0.7645
10781TIP3    H153834   1.168   1.074   4.908  1.4933 -0.4841  2.0140
10781TIP3    H253835   1.046   1.100   4.994  0.0715 -1.4038  0.3632
10782TIP3   OH253836   6.402   3.306  11.296 -0.7972 -0.1104  0.0798
10782TIP3    H153837   6.316   3.268  11.280 -0.9662  0.5486 -0.6488
10782TIP3    H253838   6.406   3.382  11.238  0.0372  0.2220  0.5492
10783TIP3   OH253839   4.524   2.988  13.234  0.1612 -0.0939  0.1952
10783TIP3    H153840   4.595   2.926  13.249  1.4124  1.1560 -0.3942
10783TIP3    H253841   4.495   2.972  13.144 -1.3069 -1.5615  0.8871
10784TIP3   OH253842   5.948   5.979   0.850 -0.5118  0.1719 -0.0528
10784TIP3    H153843   5.965   5.893   0.812  0.6424  0.7384 -0.8674
10784TIP3    H253844   5.852   5.987   0.851 -0.6041 -0.7196 -0.8634
10785TIP3   OH253845   2.536   6.734  15.194  0.0291  0.0301  0.5061
10785TIP3    H153846   2.601   6.783  15.242  2.3294 -2.4611  0.1741
10785TIP3    H253847   2.586   6.688  15.126 -2.4205 -0.2304 -1.2655
10786TIP3   OH253848   4.013   3.898   0.734  0.5134  0.2621  0.2951
10786TIP3    H153849   3.959   3.822   0.753  1.5558 -0.6602 -0.3145
10786TIP3    H253850   4.099   3.862   0.714  1.3423  1.6839  1.1416
10787TIP3   OH253851   2.013   5.208  17.080  0.3505 -0.4957  0.0430
10787TIP3    H153852   2.010   5.177  16.990 -2.3805 -1.2306  0.2838
10787TIP3    H253853   2.027   5.129  17.133 -1.8677 -0.7311  0.3942
10788TIP3   OH253854   6.326   2.941  13.755  0.2616  0.3618  0.3476
10788TIP3    H153855   6.235   2.941  13.725  0.6066 -1.0486 -0.7940
10788TIP3    H253856   6.320   2.936  13.851 -0.8820 -1.4857  0.2207
10789TIP3   OH253857   2.394   2.284   2.984 -0.0595  0.9165  0.1098
10789TIP3    H153858   2.410   2.356   3.045 -0.5832  0.5666  0.6702
10789TIP3    H253859   2.363   2.327   2.905 -0.4586  1.3055  0.4721
10790TIP3   OH253860   5.049   5.768   5.168  0.0487  0.5953  0.5497
10790TIP3    H153861   5.111   5.841   5.166 -0.2354  0.8329  0.3255
10790TIP3    H253862   4.972   5.801   5.122 -0.1649  0.2281  0.6427
10791TIP3   OH253863   1.120   1.065   0.386 -0.0747 -0.2936 -0.4431
10791TIP3    H153864   1.173   0.988   0.405  0.6347 -0.3720 -2.5492
10791TIP3    H253865   1.162   1.105   0.310 -0.4524  2.1537  0.5367
10792TIP3   OH253866   3.695   0.696   3.131 -0.0673 -0.2339 -0.4736
10792TIP3    H153867   3.713   0.703   3.225 -1.0845  1.1265 -0.3520
10792TIP3    H253868   3.782   0.683   3.092  0.5459  0.5827  0.5413
10793TIP3   OH253869   2.079   1.326   5.317  0.0131 -0.1102  0.6188
10793TIP3    H153870   2.106   1.246   5.362 -1.9839 -2.5203 -2.0827
10793TIP3    H253871   2.151   1.345   5.257  0.0378 -0.5149  0.5212
10794TIP3   OH253872   4.306   3.927  15.719  0.5058  0.8121 -0.7826
10794TIP3    H153873   4.328   3.902  15.629  0.5907 -0.4574 -0.4350
10794TIP3    H253874   4.344   3.857  15.773  0.8019  1.7555  0.2736
10795TIP3   OH253875   2.937   3.503  12.404  0.4616 -0.4740  0.3391
10795TIP3    H153876   2.966   3.591  12.379 -0.1085 -0.1295  0.8697
10795TIP3    H253877   2.848   3.516  12.436  0.5395 -1.1788  0.8519
10796TIP3   OH253878   5.810   3.149  15.210 -0.4262 -0.4393 -0.1021
10796TIP3    H153879   5.840   3.059  15.223  1.3311 -0.1858 -1.9918
10796TIP3    H253880   5.859   3.200  15.275  1.3044 -0.4266 -1.3300
10797TIP3   OH253881   0.059   0.540  16.719 -0.2691 -0.3030  0.8572
10797TIP3    H153882   0.007   0.460  16.713  0.5184 -0.8802  1.4284
10797TIP3    H253883   0.045   0.571  16.808  2.1336 -1.7761  1.8713
10798TIP3   OH253884   3.753   2.783  13.193 -0.6240  0.0329 -0.6499
10798TIP3    H153885   3.698   2.788  13.271 -3.0240 -1.3855 -2.1120
10798TIP3    H253886   3.795   2.697  13.199 -0.1368  0.2745 -0.5345
10799TIP3   OH253887   1.805   5.639   3.743 -0.0338 -0.0154 -0.8544
10799TIP3    H153888   1.722   5.628   3.789 -1.6068 -1.5498 -3.7390
10799TIP3    H253889   1.782   5.690   3.665  2.0328  0.6391 -1.0820
10800TIP3   OH253890   3.383   4.157   4.661  0.1950  0.0012 -0.4241
10800TIP3    H153891   3.444   4.087   4.683 -1.7316 -1.9922 -1.0716
10800TIP3    H253892   3.365   4.200   4.744  0.9216 -0.7027  0.1113
10801TIP3   OH253893   3.780   1.961  13.179  0.4460 -0.5320  0.3551
10801TIP3    H153894   3.731   2.038  13.207  0.0310 -0.2861 -0.9476
10801TIP3    H253895   3.744   1.940  13.093  3.3294  0.3169 -1.1941
10802TIP3   OH253896   4.314   3.243   1.396  0.1535  0.0278  0.3728
10802TIP3    H153897   4.227   3.237   1.357  1.3726  0.5668 -2.6764
10802TIP3    H253898   4.318   3.331   1.433 -1.1063 -0.5740  2.0860
10803TIP3   OH253899   0.354   6.720  15.077  0.2048 -0.2377 -0.2876
10803TIP3    H153900   0.285   6.775  15.114 -0.0452 -0.2998 -0.6529
10803TIP3    H253901   0.431   6.777  15.076  0.5903 -0.6609  1.6026
10804TIP3   OH253902   1.994   3.439   1.444 -0.2309  0.2404 -0.2679
10804TIP3    H153903   2.066   3.453   1.506  0.2251 -0.0344 -0.7254
10804TIP3    H253904   2.034   3.454   1.358 -0.6560 -0.1758 -0.5397
10805TIP3   OH253905   6.627   6.019   4.386  0.6209 -0.1002 -0.1015
10805TIP3    H153906   6.544   6.067   4.388  0.0912 -0.7006 -2.8242
10805TIP3    H253907   6.605   5.930   4.412  0.6003 -0.0381  0.0934
10806TIP3   OH253908   5.239   6.061  12.461  0.2312 -0.4180 -0.0417
10806TIP3    H153909   5.230   6.152  12.434  0.2813 -0.3533  0.1583
10806TIP3    H253910   5.322   6.058  12.508  0.3726 -0.6297 -0.3070
10807TIP3   OH253911   3.459   3.988  15.496  0.0590  0.0822 -0.2239
10807TIP3    H153912   3.370   3.963  15.517  0.2815  0.8414  1.8755
10807TIP3    H253913   3.502   4.000  15.581  2.1429 -0.1841 -1.1651
10808TIP3   OH253914   2.641   4.183   1.836 -0.7052  0.2028 -0.2427
10808TIP3    H153915   2.671   4.212   1.750 -0.7750  0.1162 -0.2963
10808TIP3    H253916   2.693   4.235   1.898 -0.6462  0.2568 -0.3364
10809TIP3   OH253917   2.822   6.417  14.412  0.0578 -0.3872  0.2173
10809TIP3    H153918   2.758   6.420  14.483 -0.0748  1.3465  0.0634
10809TIP3    H253919   2.871   6.499  14.420  1.7715 -1.3198 -0.1366
10810TIP3   OH253920   5.515   2.888  15.392 -0.3922  0.5279 -0.4817
10810TIP3    H153921   5.593   2.929  15.427  0.7029 -0.1812 -1.9943
10810TIP3    H253922   5.501   2.930  15.307 -1.3175  0.2340 -0.4911
10811TIP3   OH253923   0.587   4.414   3.738  0.2853 -0.2233 -0.1978
10811TIP3    H153924   0.644   4.386   3.810 -0.9176  2.4286  1.9432
10811TIP3    H253925   0.499   4.395   3.769 -0.3009  1.7108 -0.5969
10812TIP3   OH253926   0.740   1.888   0.982  0.7116  0.7036  0.0286
10812TIP3    H153927   0.737   1.860   0.890 -1.8367  3.5562 -0.8945
10812TIP3    H253928   0.683   1.827   1.028 -0.4376  1.0518 -0.9001
10813TIP3   OH253929   6.804   2.868  14.545 -0.2606  0.1460  0.1761
10813TIP3    H153930   6.746   2.881  14.620  1.0338  1.4848  1.0114
10813TIP3    H253931   6.812   2.955  14.507  0.8255 -0.1084 -0.1919
10814TIP3   OH253932   0.066   0.505   4.203  0.2894  0.0902  0.2179
10814TIP3    H153933   0.083   0.503   4.109  0.1065 -2.8081  0.1610
10814TIP3    H253934   0.089   0.594   4.230 -1.4214  1.6078 -2.8446
10815TIP3   OH253935   2.834   2.230  13.136  0.4338  0.1707 -0.0887
10815TIP3    H153936   2.740   2.232  13.153  0.4879  0.6927  0.1573
10815TIP3    H253937   2.871   2.296  13.194  1.0095 -0.3438  0.1375
10816TIP3   OH253938   1.817   3.188   3.121 -0.3311 -0.1107  0.5231
10816TIP3    H153939   1.773   3.108   3.151  0.6957 -1.2304 -0.7648
10816TIP3    H253940   1.895   3.194   3.175  0.4068 -0.9105 -0.4121
10817TIP3   OH253941   4.989   6.211   1.829 -0.2955  0.2031  0.6634
10817TIP3    H153942   5.010   6.292   1.876  1.1478  0.8421 -0.9697
10817TIP3    H253943   5.071   6.161   1.828 -0.3439  0.1010 -0.9068
10818TIP3   OH253944   5.687   4.840   5.836  0.0085 -0.2817 -0.5297
10818TIP3    H153945   5.611   4.849   5.893  0.5355  2.5478 -0.1216
10818TIP3    H253946   5.763   4.850   5.894  0.6255 -0.4500 -1.2824
10819TIP3   OH253947   2.834   3.795  13.035 -0.2578 -0.0236 -0.5882
10819TIP3    H153948   2.793   3.713  13.008  0.5371 -1.3316  1.8861
10819TIP3    H253949   2.913   3.802  12.981 -0.3802 -0.8273 -0.8828
10820TIP3   OH253950   0.417   5.335   4.965 -0.2389 -0.2233 -0.0768
10820TIP3    H153951   0.461   5.286   4.895 -0.2563 -0.1857 -0.1137
10820TIP3    H253952   0.462   5.419   4.967  0.9421 -0.8445  1.1307
10821TIP3   OH253953   2.486   3.054  17.014  0.3188  0.2447  0.2144
10821TIP3    H153954   2.438   3.116  16.959 -1.0926 -0.5729  0.4625
10821TIP3    H253955   2.555   3.019  16.957  0.9299  1.7754 -0.0208
10822TIP3   OH253956   3.528   5.798  12.003 -0.1361 -0.4169 -0.0542
10822TIP3    H153957   3.463   5.782  11.934 -0.4094 -1.3723  0.4072
10822TIP3    H253958   3.483   5.855  12.065 -0.0665  0.0292 -0.4156
10823TIP3   OH253959   3.987   0.476   3.976 -0.4734  0.6896 -0.7394
10823TIP3    H153960   4.061   0.484   3.916 -0.0828 -0.7949 -0.5105
10823TIP3    H253961   4.023   0.497   4.062 -0.9035  2.2745 -0.9143
10824TIP3   OH253962   1.298   3.341   0.419  0.3527 -0.0529 -0.4288
10824TIP3    H153963   1.358   3.287   0.470 -0.9098 -1.1675 -0.0426
10824TIP3    H253964   1.310   3.313   0.329  0.0753 -0.6408 -0.2906
10825TIP3   OH253965   3.188   4.630   0.672  0.0324  0.1566 -0.5314
10825TIP3    H153966   3.224   4.694   0.733 -0.2274 -1.0272  0.9043
10825TIP3    H253967   3.106   4.670   0.642  0.2540  0.8306 -0.2626
10826TIP3   OH253968   0.935   4.839   2.787  0.4574  0.0449  0.5557
10826TIP3    H153969   0.932   4.758   2.737 -1.5469  0.3717  0.0699
10826TIP3    H253970   0.996   4.895   2.738  0.6808 -0.6178  0.0632
10827TIP3   OH253971   4.613   3.582   1.218  0.1260  0.4197  0.6543
10827TIP3    H153972   4.518   3.594   1.228 -0.1643 -1.8199  1.2155
10827TIP3    H253973   4.629   3.588   1.124 -0.4616  1.3785  0.6028
10828TIP3   OH253974   0.926   6.325   1.963  0.1099 -0.0248  0.0312
10828TIP3    H153975   0.930   6.419   1.944 -0.1181 -0.0738 -0.2490
10828TIP3    H253976   0.915   6.321   2.058  3.4891  0.1986  0.5742
10829TIP3   OH253977   5.932   2.239  15.784 -0.2062 -0.2133  0.6199
10829TIP3    H153978   5.903   2.228  15.694  0.3028  1.4506  0.2075
10829TIP3    H253979   5.874   2.307  15.820  0.0743 -0.3250  1.3073
10830TIP3   OH253980   6.619   0.184   2.961 -0.3536 -0.0987  0.2808
10830TIP3    H153981   6.573   0.238   2.897  2.5053  1.0951 -0.9129
10830TIP3    H253982   6.571   0.101   2.961 -1.7400  0.6295 -1.7689
10831TIP3   OH253983   2.913   6.647   2.738 -0.2436  0.1952  0.2931
10831TIP3    H153984   2.911   6.559   2.776 -0.8605  0.2331  0.3513
10831TIP3    H253985   2.922   6.632   2.644  0.7227  0.0931  0.3873
10832TIP3   OH253986   0.974   3.916  14.025 -0.0142 -0.1471  0.3451
10832TIP3    H153987   1.036   3.967  13.973 -0.2340  0.2303  0.4449
10832TIP3    H253988   0.908   3.887  13.962 -0.7800  1.0888  0.5570
10833TIP3   OH253989   0.982   3.185   1.984  0.2133 -1.0014 -0.1724
10833TIP3    H153990   1.022   3.108   2.026  0.4201 -1.0857 -0.5189
10833TIP3    H253991   1.057   3.239   1.957  0.0600  0.1454  1.5569
10834TIP3   OH253992   1.756   2.281   5.568  0.6302  0.3837 -0.1053
10834TIP3    H153993   1.851   2.279   5.567  0.7219 -1.2193  2.3979
10834TIP3    H253994   1.734   2.350   5.632  0.1865 -0.3565  0.5634
10835TIP3   OH253995   0.506   5.416  15.175  0.3200 -0.3428 -0.3478
10835TIP3    H153996   0.545   5.331  15.154  1.8604  0.3027 -0.2673
10835TIP3    H253997   0.577   5.465  15.218 -0.8942  0.5604  0.7205
10836TIP3   OH253998   4.211   6.419   1.018  0.1625  0.3717  0.0862
10836TIP3    H153999   4.199   6.401   1.111  2.2333 -1.5673  0.0672
10836TIP3    H254000   4.284   6.481   1.015  0.3974  0.0842 -0.2429
10837TIP3   OH254001   2.472   2.836  12.809  0.3220  0.1667  0.0450
10837TIP3    H154002   2.451   2.929  12.817  2.3318  0.6077  0.8417
10837TIP3    H254003   2.550   2.825  12.863 -1.4148 -2.5859  2.2392
10838TIP3   OH254004   5.696   6.198  12.814  0.4811 -0.0418  0.2441
10838TIP3    H154005   5.608   6.191  12.850  1.4175 -1.6961  2.5112
10838TIP3    H254006   5.748   6.236  12.885  2.0407 -1.4599 -0.0705
10839TIP3   OH254007   1.960   3.618  11.022 -1.0486 -0.5146  0.3094
10839TIP3    H154008   1.914   3.636  11.104 -0.7300 -2.3353  0.9326
10839TIP3    H254009   1.911   3.547  10.982  0.2689 -1.4084  0.2089
10840TIP3   OH254010   4.526   4.762  11.077  0.0076 -0.2716 -0.1689
10840TIP3    H154011   4.460   4.820  11.116  1.3254  2.0377 -1.1659
10840TIP3    H254012   4.524   4.783  10.984  2.8563  0.7381 -0.1012
10841TIP3   OH254013   6.287   2.883   3.198 -0.1951 -0.4017  0.3360
10841TIP3    H154014   6.200   2.889   3.238 -0.4209  3.6404 -0.3755
10841TIP3    H254015   6.274   2.828   3.120 -2.5753  1.3695 -0.6443
10842TIP3   OH254016   0.156   0.806   2.322  0.5392 -0.0038 -0.0703
10842TIP3    H154017   0.134   0.898   2.306  0.0337 -0.1394 -0.1854
10842TIP3    H254018   0.113   0.785   2.405 -1.1711 -0.7169 -1.0813
10843TIP3   OH254019   2.406   3.030  16.119  0.2913 -0.0875 -0.2697
10843TIP3    H154020   2.498   3.005  16.122  0.3379  0.1179  0.0068
10843TIP3    H254021   2.381   3.020  16.027  0.7451  0.4228 -0.4502
10844TIP3   OH254022   2.765   0.612   1.563 -0.0722  0.1366  0.1645
10844TIP3    H154023   2.744   0.660   1.482 -0.0328 -0.2300 -0.0651
10844TIP3    H254024   2.822   0.672   1.611  1.0177 -0.1507 -0.6980
10845TIP3   OH254025   3.644   5.399  14.014 -0.4491 -0.3629 -0.5825
10845TIP3    H154026   3.559   5.354  14.018 -0.9136  0.5844  1.5489
10845TIP3    H254027   3.705   5.337  14.054 -0.7464  0.1433  0.6947
10846TIP3   OH254028   0.325   2.156  15.339 -0.2504 -0.0678 -0.5841
10846TIP3    H154029   0.303   2.088  15.275  0.0457 -2.5009  1.6804
10846TIP3    H254030   0.250   2.158  15.398  0.2845  0.6686  0.0868
10847TIP3   OH254031   1.994   6.663   5.207 -0.1045 -0.1291 -0.5226
10847TIP3    H154032   2.004   6.589   5.148  0.8960  1.0107 -1.8314
10847TIP3    H254033   2.064   6.652   5.272  0.3565 -0.0590 -1.0064
10848TIP3   OH254034   0.182   6.802   2.222  0.3848 -0.3417 -0.0091
10848TIP3    H154035   0.275   6.813   2.241  0.6815 -1.2480 -0.8715
10848TIP3    H254036   0.138   6.854   2.289  1.5023 -0.0542  0.5297
10849TIP3   OH254037   3.691   4.767   6.447 -0.1202 -0.0057 -0.0939
10849TIP3    H154038   3.674   4.805   6.534 -2.3159  1.2684 -0.9946
10849TIP3    H254039   3.674   4.839   6.386 -0.1759 -1.3101 -1.6741
10850TIP3   OH254040   4.274   3.827  10.605 -0.3443  0.0045 -0.5048
10850TIP3    H154041   4.272   3.732  10.613  0.1508 -0.1682 -2.0942
10850TIP3    H254042   4.185   3.855  10.628 -0.8171 -0.9427 -1.1230
10851TIP3   OH254043   2.085   4.377   4.005 -0.6099  0.1786 -0.2632
10851TIP3    H154044   2.160   4.421   3.968 -0.3291  0.5417  0.6989
10851TIP3    H254045   2.034   4.446   4.047 -1.1637 -0.1473 -0.3839
10852TIP3   OH254046   3.724   0.888  14.779 -0.5597  0.5585  0.0893
10852TIP3    H154047   3.817   0.906  14.793 -0.9305  1.3851  1.6712
10852TIP3    H254048   3.709   0.913  14.688  0.9170 -0.3240 -0.4314
10853TIP3   OH254049   5.961   5.029   3.836  0.0228  0.0963 -0.0390
10853TIP3    H154050   5.911   4.949   3.820 -1.1407  0.6307  0.7707
10853TIP3    H254051   5.940   5.053   3.926  0.9497  0.9100 -0.0239
10854TIP3   OH254052   2.630   1.719  12.940 -0.2186 -0.8119 -0.2944
10854TIP3    H154053   2.718   1.749  12.917  0.3221 -2.5001 -0.5759
10854TIP3    H254054   2.593   1.791  12.992  0.2414  1.1325 -2.4895
10855TIP3   OH254055   4.188   4.702   4.476  0.0597  0.1047 -0.1634
10855TIP3    H154056   4.213   4.616   4.444 -1.1923  0.2260 -1.5670
10855TIP3    H254057   4.097   4.690   4.507 -0.5880  1.1710 -1.5615
10856TIP3   OH254058   4.352   5.673  16.646  0.1315 -0.4082  0.5783
10856TIP3    H154059   4.380   5.588  16.612  0.9975 -0.1805  0.7063
10856TIP3    H254060   4.301   5.712  16.574 -0.0918 -0.9411  0.4435
10857TIP3   OH254061   3.393   5.040   1.296 -0.1650  0.0991 -0.3022
10857TIP3    H154062   3.472   5.047   1.351  0.0597  0.4749 -0.6656
10857TIP3    H254063   3.411   5.097   1.221 -0.3903 -0.5575 -0.8638
10858TIP3   OH254064   6.387   0.909   6.717 -0.1730 -0.5080  0.4715
10858TIP3    H154065   6.472   0.939   6.684 -1.0283 -0.6267 -2.0259
10858TIP3    H254066   6.402   0.819   6.745  0.6426 -0.3398  0.5892
10859TIP3   OH254067   1.170   1.100   5.492  0.2025  0.0653  0.1425
10859TIP3    H154068   1.136   1.112   5.403  0.2286  0.3985  0.1765
10859TIP3    H254069   1.152   1.183   5.536 -3.3873 -1.3348  1.6890
10860TIP3   OH254070   4.360   1.434  10.838  0.2488  0.1812  0.2166
10860TIP3    H154071   4.325   1.511  10.793 -0.7638 -0.3860  0.0126
10860TIP3    H254072   4.407   1.385  10.770  1.7783  1.1071  0.5588
10861TIP3   OH254073   6.576   0.730   0.716  0.0492  0.5555 -0.0146
10861TIP3    H154074   6.619   0.806   0.753  0.7380 -0.5306  1.4790
10861TIP3    H254075   6.647   0.673   0.686 -0.2401 -1.1253  2.2234
10862TIP3   OH254076   2.957   2.410  15.448  0.2193 -0.2638 -0.0649
10862TIP3    H154077   2.927   2.485  15.499  0.4727  0.1172 -0.4698
10862TIP3    H254078   3.052   2.421  15.441  0.0572  0.3954 -1.6977
10863TIP3   OH254079   5.402   3.242   3.848 -0.0994  0.5431 -0.5578
10863TIP3    H154080   5.399   3.329   3.887 -0.6187  0.8322 -1.2242
10863TIP3    H254081   5.494   3.215   3.856  0.0472  1.1219 -0.2885
10864TIP3   OH254082   5.531   0.672  13.915  0.2599  0.1379 -0.6855
10864TIP3    H154083   5.538   0.580  13.942  0.5276  0.1326 -0.7759
10864TIP3    H254084   5.598   0.683  13.848  0.2510  0.4087 -0.6522
10865TIP3   OH254085   4.282   5.846  11.315 -0.5242 -0.4439  0.3474
10865TIP3    H154086   4.296   5.928  11.267  0.7206 -0.8736 -0.0838
10865TIP3    H254087   4.365   5.832  11.362 -0.4165 -1.8397 -0.2094
10866TIP3   OH254088   2.691   5.911  12.696  0.0619  0.1971 -0.0380
10866TIP3    H154089   2.715   5.819  12.696  0.4397  0.2924  0.1109
10866TIP3    H254090   2.703   5.940  12.606 -0.0449  0.1052 -0.0823
10867TIP3   OH254091   4.071   5.784   1.241  0.3304 -0.0768  0.1470
10867TIP3    H154092   4.088   5.725   1.168  0.4789  1.1979 -0.8701
10867TIP3    H254093   4.130   5.858   1.228  0.7434 -0.0555  1.8609
10868TIP3   OH254094   0.823   5.965   4.772 -0.6971  0.4654  0.1455
10868TIP3    H154095   0.843   5.902   4.703  1.7745  1.3862 -0.0854
10868TIP3    H254096   0.757   6.022   4.734 -0.7839 -0.2090 -0.7433
10869TIP3   OH254097   6.750   0.908   3.496 -0.4636 -0.2585 -0.3421
10869TIP3    H154098   6.694   0.896   3.420  0.4444 -0.1627 -1.0523
10869TIP3    H254099   6.785   0.821   3.515 -1.0878 -0.3808  0.3041
10870TIP3   OH254100   1.915   5.938   0.250  0.2361  0.1682  0.5675
10870TIP3    H154101   1.912   6.007   0.316  1.1203  1.5131 -0.7373
10870TIP3    H254102   1.972   5.871   0.289 -0.0260  0.4869  1.5419
10871TIP3   OH254103   0.434   5.149  12.813 -0.5111  0.1615  0.1113
10871TIP3    H154104   0.441   5.231  12.860  1.1695  0.4328 -0.5366
10871TIP3    H254105   0.392   5.172  12.730 -0.2504  0.3383  0.0263
10872TIP3   OH254106   1.673   1.461  11.844 -0.0236 -0.2007 -0.0462
10872TIP3    H154107   1.687   1.402  11.918  0.9138 -0.3905 -0.3598
10872TIP3    H254108   1.686   1.406  11.766  3.1062  0.8185 -0.3846
10873TIP3   OH254109   4.989   2.633   0.278  0.2351 -0.0711 -0.1405
10873TIP3    H154110   5.031   2.695   0.218  0.9219  0.8951  1.2858
10873TIP3    H254111   4.907   2.676   0.303  1.3466  0.9839  1.9314
10874TIP3   OH254112   3.444   5.945  16.692  0.1587  0.2432 -0.9479
10874TIP3    H154113   3.401   5.954  16.776  1.7311 -0.9418  0.0434
10874TIP3    H254114   3.538   5.948  16.712  0.5813  0.6953 -2.7550
10875TIP3   OH254115   3.715   4.388  14.158  0.0486 -0.6319  0.4666
10875TIP3    H154116   3.767   4.327  14.210  0.6342 -2.0968 -1.7216
10875TIP3    H254117   3.630   4.345  14.150 -0.0654 -0.3741  0.3000
10876TIP3   OH254118   4.516   2.220   5.347  0.3450 -0.0707 -0.0926
10876TIP3    H154119   4.528   2.315   5.351 -0.0381  0.0909 -1.9448
10876TIP3    H254120   4.424   2.207   5.370 -0.1929  0.2500 -1.8819
10877TIP3   OH254121   5.015   1.015  10.972 -0.0449  0.0070  0.3677
10877TIP3    H154122   5.043   1.032  10.882 -0.7868 -1.4437 -0.1671
10877TIP3    H254123   5.097   1.014  11.022  0.9430 -3.3103 -1.0170
10878TIP3   OH254124   1.998   5.419   4.253  0.4890 -0.5671  0.2774
10878TIP3    H154125   1.956   5.492   4.207  1.8365  0.4604  0.6263
10878TIP3    H254126   2.016   5.355   4.184  1.0188  0.2643 -0.3814
10879TIP3   OH254127   6.420   3.859   3.544  0.2055 -0.1882  0.0324
10879TIP3    H154128   6.503   3.848   3.497 -0.4440 -1.2387 -0.9311
10879TIP3    H254129   6.420   3.950   3.572  2.2401 -0.4722  1.1479
10880TIP3   OH254130   5.933   3.438   1.583  0.2881 -0.2728 -0.0340
10880TIP3    H154131   6.019   3.454   1.544  0.8343 -2.7047 -0.0296
10880TIP3    H254132   5.931   3.343   1.597 -2.6710 -0.4101 -0.7018
10881TIP3   OH254133   6.470   2.034  14.643 -0.1886  0.0526 -0.1466
10881TIP3    H154134   6.476   2.130  14.648 -1.6002  0.1435  0.6204
10881TIP3    H254135   6.390   2.013  14.693  0.4990 -1.5841  0.3404
10882TIP3   OH254136   0.333   3.619   4.272  0.4367  0.3490  0.5630
10882TIP3    H154137   0.307   3.641   4.361 -2.7364 -2.5143  0.5261
10882TIP3    H254138   0.255   3.637   4.219  0.9439 -1.6066 -0.9598
10883TIP3   OH254139   5.015   6.535   1.276  0.2352 -0.9060  0.1701
10883TIP3    H154140   4.925   6.528   1.244  0.3903  1.7541 -1.1440
10883TIP3    H254141   5.006   6.565   1.366 -0.2451  0.7043 -0.3847
10884TIP3   OH254142   2.556   0.830   3.796 -0.0295 -0.5258 -0.1519
10884TIP3    H154143   2.520   0.912   3.763  1.0378 -0.8757 -2.3832
10884TIP3    H254144   2.583   0.850   3.885 -2.4755  0.6854  0.4059
10885TIP3   OH254145   2.542   0.112  10.309  0.0564  0.4786 -0.4011
10885TIP3    H154146   2.533   0.041  10.373 -2.1788 -0.2856 -1.4702
10885TIP3    H254147   2.632   0.142  10.320  0.1290 -0.4321  2.2311
10886TIP3   OH254148   0.015   3.783  13.758 -0.2113 -0.8323 -0.2373
10886TIP3    H154149  -0.053   3.724  13.790 -1.4614  1.8713  2.5406
10886TIP3    H254150   0.081   3.783  13.827 -0.5829  1.4796  0.1832
10887TIP3   OH254151   0.635   1.807   2.087 -0.3176  0.1450 -0.0229
10887TIP3    H154152   0.705   1.851   2.039  0.5059  0.6220  1.5136
10887TIP3    H254153   0.591   1.877   2.135 -1.3362 -0.2638 -0.3394
10888TIP3   OH254154   0.957   2.868  13.658  0.3133 -0.0486 -0.4956
10888TIP3    H154155   0.959   2.795  13.596 -1.9031 -1.6760  1.1752
10888TIP3    H254156   0.992   2.831  13.739 -3.3106 -0.2533  1.1718
10889TIP3   OH254157   6.101   3.900   5.626 -0.6923  0.3981  0.0306
10889TIP3    H154158   6.063   3.852   5.553 -1.2733  0.2642  0.4151
10889TIP3    H254159   6.188   3.925   5.596 -0.7402 -0.0894 -0.5158
10890TIP3   OH254160   2.127   2.803   3.597 -0.6084 -0.2087 -0.0886
10890TIP3    H154161   2.050   2.818   3.652 -1.2525  0.2464 -1.0753
10890TIP3    H254162   2.201   2.819   3.655 -1.2635 -0.0792  0.7361
10891TIP3   OH254163   4.144   4.659   3.612 -0.0984  0.2203  0.2215
10891TIP3    H154164   4.062   4.642   3.567 -1.1922  2.2072  1.3259
10891TIP3    H254165   4.134   4.615   3.697 -0.2550  0.8755  0.5510
10892TIP3   OH254166   6.535   4.110   0.720 -0.7340 -0.8294 -0.2120
10892TIP3    H154167   6.520   4.109   0.814 -0.7231  3.5224  0.0661
10892TIP3    H254168   6.449   4.124   0.682 -0.5476 -0.9865 -0.7041
10893TIP3   OH254169   2.623   3.036  15.441  0.5650  0.0008 -0.0686
10893TIP3    H154170   2.671   2.954  15.456  2.4780  1.1745  0.5273
10893TIP3    H254171   2.626   3.048  15.346  0.7599 -0.3306 -0.1046
10894TIP3   OH254172   3.978   5.525  12.206  0.3515 -0.3780  0.1758
10894TIP3    H154173   4.000   5.490  12.120 -0.0966  0.3135 -0.2185
10894TIP3    H254174   3.904   5.471  12.236  1.0406 -1.1706  0.5037
10895TIP3   OH254175   3.428   6.720   0.999 -0.0310  0.0717  0.0269
10895TIP3    H154176   3.489   6.698   1.069 -0.4745  0.4281  0.5344
10895TIP3    H254177   3.392   6.637   0.970 -0.3496 -0.0249  0.6897
10896TIP3   OH254178   5.263   3.529   3.190 -0.4774  0.3143 -0.6154
10896TIP3    H154179   5.226   3.464   3.130  0.4555  0.7305 -1.6885
10896TIP3    H254180   5.249   3.613   3.145 -0.0314  0.6664 -0.1025
10897TIP3   OH254181   5.628   6.569  15.843  1.2871  0.2222 -0.1071
10897TIP3    H154182   5.535   6.556  15.825  0.9164  2.1815  0.1408
10897TIP3    H254183   5.631   6.598  15.935  2.0468  0.9736 -0.3580
10898TIP3   OH254184   3.626   4.151  14.653  0.1966  0.2240 -0.3119
10898TIP3    H154185   3.662   4.105  14.576 -0.7763  0.5074 -0.9654
10898TIP3    H254186   3.590   4.232  14.617  1.5335  1.3405  0.7775
10899TIP3   OH254187   4.361   0.702  14.820  0.2433  0.2970  0.4835
10899TIP3    H154188   4.349   0.607  14.808 -0.1262  0.2713  1.0556
10899TIP3    H254189   4.450   0.718  14.788  0.3629 -0.2664  0.5067
10900TIP3   OH254190   5.978   4.248  14.651  0.2391 -0.5631 -0.3321
10900TIP3    H154191   5.977   4.177  14.715  0.6000  0.7148  1.1439
10900TIP3    H254192   6.070   4.272  14.641 -0.0351  1.2627  1.0401
10901TIP3   OH254193   1.269   0.274  12.504  0.3019 -0.9144  0.2326
10901TIP3    H154194   1.288   0.215  12.577 -0.1102 -0.4255  0.7450
10901TIP3    H254195   1.329   0.246  12.434  0.3702 -1.6892  0.5910
10902TIP3   OH254196   1.343   5.035   1.113  0.5538 -0.0818  0.0205
10902TIP3    H154197   1.434   5.004   1.104 -0.2857 -3.1288  0.8755
10902TIP3    H254198   1.303   5.014   1.029  0.5846  1.1598 -0.3145
10903TIP3   OH254199   0.634   3.582   0.846  0.0235 -0.5821  0.4581
10903TIP3    H154200   0.647   3.489   0.827  2.4821 -0.5301  1.5031
10903TIP3    H254201   0.567   3.584   0.914 -0.2662 -1.5603  0.2126
10904TIP3   OH254202   2.354   4.678  17.253 -0.9741  0.0521 -0.2986
10904TIP3    H154203   2.384   4.602  17.203  0.7215  0.4121  0.1100
10904TIP3    H254204   2.366   4.652  17.344 -0.2506  0.8351 -0.1591
10905TIP3   OH254205   5.685   4.192  15.728  0.1611  0.2526  0.7835
10905TIP3    H154206   5.735   4.162  15.652 -0.6562 -0.3785  0.4789
10905TIP3    H254207   5.704   4.127  15.796  0.3277  0.4194  0.8971
10906TIP3   OH254208   6.655   3.284  16.197 -0.1228 -0.2439  0.6830
10906TIP3    H154209   6.612   3.360  16.157  0.6491 -0.2054 -0.1009
10906TIP3    H254210   6.731   3.321  16.242  0.0576 -0.5104  0.5943
10907TIP3   OH254211   2.398   5.112  10.521 -0.6809 -0.0295 -0.3668
10907TIP3    H154212   2.481   5.065  10.524  0.1631  1.2022 -2.3735
10907TIP3    H254213   2.399   5.168  10.598 -0.6885 -1.5920  0.8177
10908TIP3   OH254214   3.780   0.190  16.605  0.3188  0.0608 -0.2233
10908TIP3    H154215   3.715   0.258  16.589  0.1649 -0.1722 -0.5796
10908TIP3    H254216   3.860   0.222  16.563  0.5735  0.5726  0.6263
10909TIP3   OH254217   4.501   1.438   3.281 -0.0395  0.4379  0.8846
10909TIP3    H154218   4.423   1.459   3.332 -0.8633  0.4603 -0.3507
10909TIP3    H254219   4.469   1.424   3.192  1.0934 -1.4362  0.7059
10910TIP3   OH254220   6.508   0.635  15.883 -0.0333 -0.1026 -0.2428
10910TIP3    H154221   6.469   0.557  15.923  0.8007 -0.8022 -0.7675
10910TIP3    H254222   6.438   0.670  15.828 -0.8118  0.2162  0.9152
10911TIP3   OH254223   6.316   4.812   5.181 -0.3040  0.7232  0.9867
10911TIP3    H154224   6.246   4.859   5.135  0.1070 -0.8777 -1.4670
10911TIP3    H254225   6.270   4.762   5.249 -1.6170 -0.2967 -0.5720
10912TIP3   OH254226   0.954   3.286   0.057  0.2174 -0.8591 -0.4890
10912TIP3    H154227   1.005   3.352   0.103  0.0649 -1.4035  0.5013
10912TIP3    H254228   0.998   3.203   0.077 -0.4428 -1.2201 -0.4753
10913TIP3   OH254229   4.921   0.648   2.136  0.0088  0.3521  0.1600
10913TIP3    H154230   4.938   0.732   2.178 -0.5809  0.5575 -0.0109
10913TIP3    H254231   4.840   0.617   2.177  0.7765 -0.6351  0.9925
10914TIP3   OH254232   4.274   1.384  16.046  0.3305 -1.0063 -0.7378
10914TIP3    H154233   4.333   1.422  15.980  0.4928  1.9300  0.9242
10914TIP3    H254234   4.187   1.415  16.022  0.2801 -0.5968 -0.0557
10915TIP3   OH254235   4.208   4.668  14.455  0.5619  0.0663  0.2086
10915TIP3    H154236   4.292   4.659  14.409  1.0231 -0.3543  1.1053
10915TIP3    H254237   4.194   4.762  14.463 -0.1592  0.2030 -1.8810
10916TIP3   OH254238   2.960   2.843  11.352 -0.9579  0.2864 -0.2336
10916TIP3    H154239   2.908   2.873  11.277 -0.7275 -0.4546 -0.6936
10916TIP3    H254240   3.018   2.776  11.316 -0.4507  0.3218  0.4991
10917TIP3   OH254241   4.170   4.186   2.972  0.6172  0.3908  0.7623
10917TIP3    H154242   4.135   4.159   2.887 -0.1161  2.3826  0.3823
10917TIP3    H254243   4.265   4.184   2.961  0.5550 -0.6403  0.3277
10918TIP3   OH254244   1.239   0.470  11.036  0.4260  0.5289 -0.5993
10918TIP3    H154245   1.183   0.427  10.971 -1.3035  1.3751  0.2681
10918TIP3    H254246   1.296   0.400  11.068 -0.5303 -0.5215 -1.0983
10919TIP3   OH254247   2.547   4.089   2.357  0.3904  0.4507 -0.1972
10919TIP3    H154248   2.536   4.158   2.291 -0.2176  1.1387  0.6021
10919TIP3    H254249   2.469   4.035   2.349  0.9172 -0.2251 -0.8959
10920TIP3   OH254250   6.461   5.533   1.606 -0.3461 -0.0815 -0.1842
10920TIP3    H154251   6.377   5.532   1.651 -1.6334 -0.2951 -2.4597
10920TIP3    H254252   6.520   5.485   1.664 -1.7687  0.0432  1.4498
10921TIP3   OH254253   4.874   6.709  14.636  0.0023  0.0486  0.9664
10921TIP3    H154254   4.916   6.665  14.711  0.2646 -1.6914 -0.1428
10921TIP3    H254255   4.856   6.798  14.668  1.0633 -0.3100  2.7400
10922TIP3   OH254256   3.150   6.116   0.183 -0.1764  0.0779 -0.1179
10922TIP3    H154257   3.112   6.058   0.116 -0.7984  0.1244  0.1919
10922TIP3    H254258   3.213   6.061   0.230 -0.8298 -0.3781  0.2353
10923TIP3   OH254259   2.657   6.081   3.816  0.1288  0.2967 -0.6133
10923TIP3    H154260   2.577   6.120   3.850 -0.3516 -0.1851 -1.1746
10923TIP3    H254261   2.649   6.089   3.720  0.3391 -0.5336 -0.7092
10924TIP3   OH254262   4.824   2.418   5.547 -0.1486 -0.5264  0.2799
10924TIP3    H154263   4.818   2.466   5.630  0.9001 -0.3739  0.2843
10924TIP3    H254264   4.774   2.338   5.562  0.3812 -0.6934  1.2033
10925TIP3   OH254265   3.494   1.272  12.688  0.1872  0.4925  0.1180
10925TIP3    H154266   3.448   1.189  12.703  0.4554  0.0007 -1.4910
10925TIP3    H254267   3.484   1.288  12.594  1.4376  1.4994  0.1231
10926TIP3   OH254268   5.728   3.203  14.031 -0.3968 -0.4636 -0.2139
10926TIP3    H154269   5.725   3.285  13.982  1.0814  0.3001  0.8885
10926TIP3    H254270   5.815   3.168  14.013 -1.5060 -2.6293 -1.8869
10927TIP3   OH254271   3.162   3.010   4.845  0.0828 -0.1714  0.1936
10927TIP3    H154272   3.081   3.011   4.896 -1.0456 -0.0021 -1.4831
10927TIP3    H254273   3.218   3.075   4.887 -1.1802  0.6877  0.6213
10928TIP3   OH254274   5.705   2.300   1.017  0.2107  0.7229 -0.3009
10928TIP3    H154275   5.683   2.314   0.925  1.7508  1.9677 -0.5174
10928TIP3    H254276   5.800   2.289   1.018  0.1361 -0.0915  1.0630
10929TIP3   OH254277   5.028   0.727  14.659 -0.8715  0.3509  0.0092
10929TIP3    H154278   4.992   0.809  14.628 -0.5043  0.9414  1.0893
10929TIP3    H254279   4.995   0.717  14.748 -0.7331 -0.5608 -0.0227
10930TIP3   OH254280   5.466   1.392   2.867 -0.2959  0.2512  0.1954
10930TIP3    H154281   5.509   1.307   2.878 -1.0373 -0.1505  0.0474
10930TIP3    H254282   5.388   1.388   2.922  0.2818  1.2920  1.1252
10931TIP3   OH254283   5.271   0.913   3.673 -0.0032  0.0853 -0.1828
10931TIP3    H154284   5.257   0.897   3.767 -1.5147  0.2804 -0.3483
10931TIP3    H254285   5.214   0.849   3.630  0.0898  0.5199 -0.9508
10932TIP3   OH254286   0.744   5.512  15.292  0.4789  0.6542  0.6427
10932TIP3    H154287   0.801   5.556  15.356 -0.9509  1.6681  1.2539
10932TIP3    H254288   0.789   5.525  15.208  1.4063  0.9796  1.1689
10933TIP3   OH254289   2.039   4.807   2.846 -0.0367  0.1687  0.0938
10933TIP3    H154290   2.093   4.874   2.888 -1.9233  1.9265 -0.1412
10933TIP3    H254291   1.962   4.800   2.903 -1.6767  1.0842 -1.8898
10934TIP3   OH254292   4.628   2.738   5.314  0.1960 -0.7020 -0.2439
10934TIP3    H154293   4.638   2.772   5.225  0.6850  0.6799  0.3153
10934TIP3    H254294   4.533   2.741   5.330  0.2487  0.8519 -0.0657
10935TIP3   OH254295   0.280   0.668   5.013  0.0111 -0.0995 -0.1077
10935TIP3    H154296   0.223   0.591   5.021 -2.5767  1.5328 -1.5761
10935TIP3    H254297   0.277   0.708   5.100  0.1199 -0.7873  0.2272
10936TIP3   OH254298   0.215   2.514   2.621 -0.1772  1.0314  0.7788
10936TIP3    H154299   0.257   2.598   2.635 -3.2366  2.7403  0.5986
10936TIP3    H254300   0.183   2.517   2.530 -0.7711 -0.0917  0.9181
10937TIP3   OH254301   3.303   1.673   3.289 -0.0776 -0.0746  0.3525
10937TIP3    H154302   3.217   1.661   3.249 -0.1292  0.8994  0.1442
10937TIP3    H254303   3.308   1.767   3.308  0.1610 -0.4208  2.1794
10938TIP3   OH254304   6.366   2.079  11.653 -0.2208 -0.5079 -0.0113
10938TIP3    H154305   6.330   2.122  11.575 -1.1772 -2.1457 -0.5378
10938TIP3    H254306   6.457   2.061  11.630  0.1989  1.1921  0.2285
10939TIP3   OH254307   5.104   1.505  13.321 -0.6940  0.2561 -0.6203
10939TIP3    H154308   5.035   1.449  13.356 -0.0385  1.2406  2.6403
10939TIP3    H254309   5.092   1.588  13.366  2.5464  0.4687  0.1080
10940TIP3   OH254310   2.136   3.603  16.607  0.1876  0.0045 -0.2897
10940TIP3    H154311   2.090   3.573  16.528  0.0579  0.1262 -0.2600
10940TIP3    H254312   2.210   3.543  16.616 -0.7327 -1.0562  0.4328
10941TIP3   OH254313   4.625   6.110  12.368 -0.2619 -0.5193  0.0543
10941TIP3    H154314   4.639   6.019  12.394 -0.8873 -0.9423 -1.0327
10941TIP3    H254315   4.612   6.106  12.274 -0.8971  0.6319  0.0774
10942TIP3   OH254316   2.136   5.014  13.713 -0.0643 -0.4937 -0.2430
10942TIP3    H154317   2.137   4.934  13.660 -0.3411 -1.4484  1.1396
10942TIP3    H254318   2.227   5.043  13.713  0.5874 -2.2651  1.2714
10943TIP3   OH254319   0.193   3.451   6.728 -0.2073 -0.0558  0.6921
10943TIP3    H154320   0.255   3.480   6.795 -0.0235  0.1626  0.4260
10943TIP3    H254321   0.240   3.459   6.646 -1.2236  2.0172  0.2426
10944TIP3   OH254322   6.705   3.962  15.643  0.0352 -0.7144  0.5246
10944TIP3    H154323   6.628   3.952  15.699 -0.8257  0.1047 -0.4832
10944TIP3    H254324   6.740   3.873  15.635 -1.1902 -1.2120  0.4493
10945TIP3   OH254325   1.811   3.785   5.260  0.4649  0.0661  0.2776
10945TIP3    H154326   1.820   3.875   5.227 -1.3073  0.2193  0.1103
10945TIP3    H254327   1.718   3.775   5.276  0.3587 -2.3302 -1.3405
10946TIP3   OH254328   1.199   4.577   3.377 -0.2041 -0.0398  0.3671
10946TIP3    H154329   1.105   4.587   3.389 -0.5085  0.3494 -1.8456
10946TIP3    H254330   1.221   4.495   3.421 -1.7668 -0.6616  0.0428
10947TIP3   OH254331   3.752   0.196  13.403  0.0422 -0.4826 -0.6526
10947TIP3    H154332   3.664   0.196  13.441 -0.2447 -0.0314 -1.2929
10947TIP3    H254333   3.806   0.151  13.468 -0.8156 -1.4776 -0.6078
10948TIP3   OH254334   4.799   0.917  15.390  0.0016  0.3267 -0.7514
10948TIP3    H154335   4.813   1.009  15.411  0.9500  0.1902 -0.7448
10948TIP3    H254336   4.766   0.878  15.470  0.9728  0.3746 -0.3161
10949TIP3   OH254337   0.059   5.611  17.147 -0.0358  0.1233  0.2908
10949TIP3    H154338  -0.004   5.673  17.109  1.0150  0.5627 -0.8363
10949TIP3    H254339   0.144   5.639  17.111  0.4926 -1.9334 -0.2015
10950TIP3   OH254340   3.539   1.268   0.481 -0.4008 -0.3031 -0.1746
10950TIP3    H154341   3.625   1.224   0.482 -0.2829 -0.0757  0.5505
10950TIP3    H254342   3.549   1.338   0.418  0.1168  0.0296  0.2639
10951TIP3   OH254343   4.272   0.462  12.786 -0.2033  0.0087 -0.1780
10951TIP3    H154344   4.361   0.449  12.819  0.1134  0.7535 -0.7002
10951TIP3    H254345   4.274   0.549  12.745 -1.3732  0.3574  0.4628
10952TIP3   OH254346   4.677   5.920  16.816 -0.1330 -0.1421  0.1798
10952TIP3    H154347   4.626   5.880  16.886 -0.0246 -1.7575 -0.6239
10952TIP3    H254348   4.692   5.849  16.754  2.0112  0.6023 -0.2192
10953TIP3   OH254349   6.431   3.767  16.007  0.3484 -0.3893  0.5262
10953TIP3    H154350   6.445   3.841  15.949  3.8990 -1.9908 -0.9795
10953TIP3    H254351   6.481   3.789  16.087 -1.3580  0.1800  1.4801
10954TIP3   OH254352   5.441   3.177  12.704 -0.2256  0.1255  0.1553
10954TIP3    H154353   5.498   3.162  12.628 -0.3204  0.0373  0.1028
10954TIP3    H254354   5.359   3.209  12.666 -0.3769 -0.2072  0.2015
10955TIP3   OH254355   6.112   6.410   2.757 -0.0778  0.0347 -0.0495
10955TIP3    H154356   6.202   6.388   2.731 -0.6815 -1.8208 -0.6955
10955TIP3    H254357   6.083   6.471   2.690  0.5329  0.2574 -0.1214
10956TIP3   OH254358   2.472   4.634  12.156  0.1928 -0.3351  0.2122
10956TIP3    H154359   2.425   4.562  12.198 -0.2196 -0.7049 -0.8352
10956TIP3    H254360   2.564   4.617  12.176 -0.0248 -0.2490  1.3218
10957TIP3   OH254361   0.482   2.356  15.921 -0.1178  0.2479  0.5748
10957TIP3    H154362   0.548   2.295  15.886  0.1296  0.7726  0.1248
10957TIP3    H254363   0.532   2.432  15.949 -0.4612  0.3700  0.8633
10958TIP3   OH254364   5.900   1.798  16.081  0.3139 -0.0473  0.1693
10958TIP3    H154365   5.915   1.870  16.020 -0.3097  0.5558  0.7051
10958TIP3    H254366   5.973   1.738  16.066  0.8794  0.7259 -0.2398
10959TIP3   OH254367   0.919   2.470  17.226  0.4240 -0.6816 -0.0665
10959TIP3    H154368   0.948   2.543  17.170 -3.1562  0.6114 -0.5023
10959TIP3    H254369   0.969   2.481  17.307  3.4639 -0.7245 -1.7611
10960TIP3   OH254370   1.859   4.431  17.197  0.2423 -0.5422  0.0397
10960TIP3    H154371   1.847   4.336  17.204  0.1304 -0.5669 -0.4079
10960TIP3    H254372   1.953   4.442  17.185  0.1530 -0.6649 -0.8256
10961TIP3   OH254373   3.183   1.293   4.893 -0.0745  0.1003  0.2639
10961TIP3    H154374   3.100   1.309   4.938  0.1611  0.2855  0.6370
10961TIP3    H254375   3.169   1.213   4.842 -0.6704  0.4536 -0.1378
10962TIP3   OH254376   5.003   3.870  10.955 -0.5970  0.4454  0.0230
10962TIP3    H154377   4.960   3.925  10.889 -1.3111 -1.3976 -1.1586
10962TIP3    H254378   4.939   3.862  11.025 -0.0416  1.9933  0.7421
10963TIP3   OH254379   0.008   2.244  14.245 -0.0862 -0.2636 -0.0398
10963TIP3    H154380  -0.007   2.248  14.151 -1.0630  0.2088  0.1263
10963TIP3    H254381   0.007   2.150  14.266 -0.5923 -0.3380 -0.3852
10964TIP3   OH254382   6.372   1.382   0.300 -0.0729  0.3481 -0.8738
10964TIP3    H154383   6.329   1.455   0.345  0.7782 -0.0323  0.6441
10964TIP3    H254384   6.448   1.421   0.258 -0.0023  0.4593 -0.6461
10965TIP3   OH254385   5.964   3.436   4.726 -0.1523  0.1496  0.4549
10965TIP3    H154386   5.886   3.390   4.694  0.3491 -0.3356 -0.0900
10965TIP3    H254387   5.935   3.526   4.739 -1.1450 -0.3048  1.5115
10966TIP3   OH254388   6.125   6.415   3.662  0.6516  0.2701  0.4889
10966TIP3    H154389   6.111   6.464   3.581  0.3773 -1.3584 -0.4940
10966TIP3    H254390   6.196   6.354   3.642  0.9057  0.1652  1.6340
10967TIP3   OH254391   2.508   2.373   5.435 -0.3758 -0.1559 -0.2542
10967TIP3    H154392   2.458   2.291   5.431  0.1331 -0.5253  0.6604
10967TIP3    H254393   2.543   2.375   5.524  1.7511 -0.2355 -1.0316
10968TIP3   OH254394   5.361   2.965  15.162  0.6988 -0.0419 -0.3528
10968TIP3    H154395   5.351   3.059  15.147 -0.4624 -0.1874 -0.6146
10968TIP3    H254396   5.283   2.941  15.213  1.3201 -0.7494  0.2896
10969TIP3   OH254397   5.729   3.265  16.568  0.3205 -0.3658  0.1729
10969TIP3    H154398   5.667   3.290  16.636 -2.7186 -2.2904 -1.6872
10969TIP3    H254399   5.731   3.340  16.509  1.8043  0.6910  1.4660
10970TIP3   OH254400   6.534   6.382  15.784 -0.6166 -0.5571 -0.3104
10970TIP3    H154401   6.556   6.350  15.871 -0.7941 -0.2735 -0.1614
10970TIP3    H254402   6.486   6.310  15.743 -0.4512 -0.7248 -0.2086
10971TIP3   OH254403   2.376   4.385   6.463 -0.3619 -0.9078  0.4194
10971TIP3    H154404   2.398   4.474   6.434 -2.7725  0.1227  1.4243
10971TIP3    H254405   2.460   4.341   6.473  0.8669  0.9377 -1.0867
10972TIP3   OH254406   2.145   5.500   5.570  0.7698  0.0011 -0.0020
10972TIP3    H154407   2.164   5.411   5.601  0.5575 -0.9125 -2.3370
10972TIP3    H254408   2.232   5.539   5.557  0.8655  0.3409  1.4441
10973TIP3   OH254409   1.311   0.720   3.717 -0.8276  0.0922  0.0593
10973TIP3    H154410   1.227   0.707   3.761 -1.1250  2.5841  0.3630
10973TIP3    H254411   1.297   0.797   3.663  1.2918  0.5801  0.1536
10974TIP3   OH254412   2.461   2.431  16.007 -0.2416 -0.1920 -0.0236
10974TIP3    H154413   2.450   2.465  15.918  1.6315 -0.2466 -0.3243
10974TIP3    H254414   2.555   2.438  16.023 -0.4469 -0.9141  1.6709
10975TIP3   OH254415   1.028   4.294  15.420  0.0518  0.2274  0.9086
10975TIP3    H154416   1.054   4.377  15.380 -1.6809  2.3109  3.7517
10975TIP3    H254417   0.939   4.278  15.387 -0.2601  0.4261  1.6279
10976TIP3   OH254418   1.597   0.891  15.639  0.4134  0.0469  0.4343
10976TIP3    H154419   1.525   0.829  15.651 -1.7192  2.5066  1.1004
10976TIP3    H254420   1.638   0.864  15.556  0.4044 -2.9135  1.2804
10977TIP3   OH254421   5.693   6.471  14.976 -0.3888 -0.2834 -0.8596
10977TIP3    H154422   5.762   6.444  15.037 -0.9199 -0.1442 -0.1804
10977TIP3    H254423   5.723   6.555  14.941 -1.6464  1.4334  1.8817
10978TIP3   OH254424   4.784   3.861  16.609  0.3734 -0.0981 -0.1348
10978TIP3    H154425   4.845   3.827  16.674  0.4071 -0.0553 -0.1434
10978TIP3    H254426   4.703   3.877  16.658  0.3409 -0.2425 -0.1413
10979TIP3   OH254427   0.439   3.849   0.147 -0.0584 -0.1143 -0.1507
10979TIP3    H154428   0.378   3.809   0.209  0.7978  1.2448  1.6857
10979TIP3    H254429   0.384   3.904   0.091 -1.1253 -2.9249 -2.0980
10980TIP3   OH254430   1.765   0.418   2.531  0.3146 -0.6833  0.5757
10980TIP3    H154431   1.703   0.358   2.572 -0.8361  0.5177  0.6771
10980TIP3    H254432   1.751   0.408   2.437 -0.6150  0.1236  0.6076
10981TIP3   OH254433   6.141   3.528   5.542  0.6874 -0.8499 -0.3567
10981TIP3    H154434   6.122   3.435   5.529  0.0672 -0.6287 -1.0841
10981TIP3    H254435   6.105   3.572   5.465 -0.2877  0.1532  0.6148
10982TIP3   OH254436   3.874   3.380   3.011 -0.0115  0.6462  0.0126
10982TIP3    H154437   3.859   3.345   2.924 -0.9906 -0.0594  0.4458
10982TIP3    H254438   3.966   3.361   3.029 -0.9970 -4.2360  1.2520
10983TIP3   OH254439   3.600   6.011   4.945  0.3311 -0.3221  0.0260
10983TIP3    H154440   3.649   5.930   4.940  1.9832  0.6495 -0.1841
10983TIP3    H254441   3.591   6.041   4.855  1.7284  0.8387  0.2347
10984TIP3   OH254442   4.884   3.480  11.398 -0.1468 -0.0670  0.2492
10984TIP3    H154443   4.894   3.394  11.359 -2.5443 -0.4821  0.3542
10984TIP3    H254444   4.923   3.540  11.335 -0.7612 -1.0351 -1.1044
10985TIP3   OH254445   6.198   1.827   4.964 -0.6033 -0.5256 -0.0072
10985TIP3    H154446   6.147   1.833   5.044 -0.0288  0.8549  0.2737
10985TIP3    H254447   6.139   1.858   4.895  0.0747  1.9253  0.4407
10986TIP3   OH254448   1.446   5.365  16.264  0.1233 -0.1769 -0.2512
10986TIP3    H154449   1.366   5.398  16.307  0.7985  1.8387 -0.4279
10986TIP3    H254450   1.439   5.396  16.174  0.9202 -0.3445 -0.3743
10987TIP3   OH254451   2.125   1.216   0.593  0.1199 -0.7789 -0.4261
10987TIP3    H154452   2.211   1.228   0.552  0.9155  2.7316  1.7986
10987TIP3    H254453   2.141   1.153   0.664  1.2073  0.6233  0.6352
10988TIP3   OH254454   5.221   3.623  12.421  0.0589 -0.1641  0.0093
10988TIP3    H154455   5.239   3.686  12.351  0.3825  0.2142  0.4298
10988TIP3    H254456   5.257   3.663  12.500 -1.4134  0.0069  0.6405
10989TIP3   OH254457   1.716   0.166   2.883 -0.3558 -0.3989 -0.6344
10989TIP3    H154458   1.691   0.258   2.870  0.4273 -0.1849 -0.6795
10989TIP3    H254459   1.664   0.138   2.959 -0.0310  0.3169 -0.1314
10990TIP3   OH254460   1.488   2.782  15.998  0.4783  0.1094 -0.2105
10990TIP3    H154461   1.534   2.854  16.040  0.3861  0.7417 -1.1757
10990TIP3    H254462   1.433   2.746  16.067  0.2862  1.1577  0.2020
10991TIP3   OH254463   5.153   6.283   6.152 -0.3609 -0.0343 -0.0855
10991TIP3    H154464   5.067   6.314   6.180 -1.2765 -2.4764  0.0680
10991TIP3    H254465   5.150   6.188   6.166  1.7493 -0.4160 -1.6828
10992TIP3   OH254466   0.050   3.416  11.692  0.0417  0.2327 -0.0236
10992TIP3    H154467  -0.015   3.348  11.708  0.2068 -0.3882 -1.7575
10992TIP3    H254468   0.002   3.484  11.644  0.6176 -0.2315 -1.3178
10993TIP3   OH254469   4.765   6.207   4.700  0.0828  0.1901  0.0204
10993TIP3    H154470   4.779   6.210   4.605  1.3459 -0.2021  0.1730
10993TIP3    H254471   4.847   6.171   4.735 -0.5863 -0.2266  1.2128
10994TIP3   OH254472   5.389   6.274  14.663  0.1583  0.2360 -0.2163
10994TIP3    H154473   5.405   6.352  14.717  0.5581 -0.3878  0.6088
10994TIP3    H254474   5.465   6.218  14.680 -1.6234 -1.7714  1.8341
10995TIP3   OH254475   6.469   3.611  12.629  0.0594 -0.0579  0.1736
10995TIP3    H154476   6.517   3.692  12.639 -0.6233  0.4438 -0.5210
10995TIP3    H254477   6.494   3.578  12.542  0.4909 -0.7038  0.5320
10996TIP3   OH254478   5.141   3.765   0.410  0.0205  0.4248 -0.3178
10996TIP3    H154479   5.221   3.721   0.438  0.0718 -0.1526 -1.3164
10996TIP3    H254480   5.167   3.816   0.333 -0.4877  0.5077 -0.4398
10997TIP3   OH254481   4.444   1.472   4.801  0.2053  0.0059  0.3401
10997TIP3    H154482   4.460   1.424   4.883 -1.1262  0.3337  0.8218
10997TIP3    H254483   4.353   1.502   4.809  0.6473  1.6218 -0.4639
10998TIP3   OH254484   3.961   1.499  12.282 -0.4500  0.1336 -0.5808
10998TIP3    H154485   3.884   1.484  12.228 -1.4211  0.8990  0.5449
10998TIP3    H254486   3.957   1.429  12.348 -0.6947  0.6939  0.0113
10999TIP3   OH254487   3.098   5.440  13.186 -0.2052 -0.0313 -0.1470
10999TIP3    H154488   3.062   5.528  13.176  2.2247  1.1059  0.4666
10999TIP3    H254489   3.114   5.410  13.097  0.7218  0.9582 -0.3358
11000TIP3   OH254490   0.614   2.975   1.637 -0.2733 -0.5999  0.1376
11000TIP3    H154491   0.626   2.880   1.631 -1.7183 -0.7239 -1.5737
11000TIP3    H254492   0.524   2.990   1.608  0.2480  1.3928 -0.6501
11001TIP3   OH254493   0.862   4.994  11.598 -0.0041 -0.0076  0.1845
11001TIP3    H154494   0.805   5.045  11.656 -0.1595  0.5190 -0.4160
11001TIP3    H254495   0.802   4.946  11.541  0.1199  1.3067 -1.1095
11002TIP3   OH254496   5.313   6.315  12.339 -0.2251  0.1966  0.6953
11002TIP3    H154497   5.363   6.320  12.420 -1.1277 -0.1151  1.2863
11002TIP3    H254498   5.239   6.374  12.351  0.1892  0.9572 -0.3235
11003TIP3   OH254499   5.682   1.132   1.669 -0.4470  0.3680  0.0599
11003TIP3    H154500   5.674   1.132   1.574  0.9700 -1.0834 -0.1106
11003TIP3    H254501   5.676   1.040   1.694  2.4508  0.3070  0.9706
11004TIP3   OH254502   5.934   0.265  17.191 -0.0397 -0.0937  0.5946
11004TIP3    H154503   6.003   0.302  17.248 -0.5108  2.7040 -0.4825
11004TIP3    H254504   5.867   0.334  17.188 -1.9144 -1.8621 -0.1350
11005TIP3   OH254505   0.255   3.946  12.555 -0.5618  0.0035 -0.7949
11005TIP3    H154506   0.273   4.031  12.515 -0.4109 -0.5347 -1.9075
11005TIP3    H254507   0.330   3.891  12.529  0.1175 -0.0638  1.1646
11006TIP3   OH254508   1.741   4.532   0.751  0.3327  0.7168  0.4029
11006TIP3    H154509   1.675   4.571   0.694  1.0828  1.5090  0.0537
11006TIP3    H254510   1.781   4.607   0.796  1.3738  0.3063  0.1901
11007TIP3   OH254511   6.412   6.697   4.445 -0.3405 -0.6121  0.1212
11007TIP3    H154512   6.391   6.607   4.423 -0.0859 -0.2874 -1.5629
11007TIP3    H254513   6.327   6.741   4.450 -0.4144 -0.7537  0.1206
11008TIP3   OH254514   1.412   4.347   0.637 -0.0055  0.3676 -0.7954
11008TIP3    H154515   1.449   4.428   0.603  1.3978 -0.1926 -0.6389
11008TIP3    H254516   1.408   4.359   0.731 -0.1765  0.4064 -0.8070
11009TIP3   OH254517   4.291   0.306  17.047  0.7087  0.9653 -0.0842
11009TIP3    H154518   4.215   0.361  17.063 -0.2547 -0.4598  0.4001
11009TIP3    H254519   4.277   0.269  16.960  1.9881  2.4179 -0.9694
11010TIP3   OH254520   3.456   0.897  15.101 -0.0790 -0.1011 -0.2086
11010TIP3    H154521   3.361   0.885  15.112 -0.1356 -0.4993 -1.0735
11010TIP3    H254522   3.495   0.828  15.155 -0.3015 -0.4201 -0.4488
11011TIP3   OH254523   5.736   0.773   0.492  0.3282 -0.1863 -0.3820
11011TIP3    H154524   5.785   0.773   0.574  0.9952  1.3466 -0.7456
11011TIP3    H254525   5.702   0.684   0.485  0.6117 -0.4720  1.3343
11012TIP3   OH254526   0.999   3.415  13.435 -0.1312  0.2052  0.8651
11012TIP3    H154527   0.996   3.489  13.496  1.6586 -1.4007  3.0810
11012TIP3    H254528   0.976   3.339  13.489  0.1267 -1.1335 -0.8290
11013TIP3   OH254529   0.117   2.920   5.132 -0.5179  0.3483  0.1736
11013TIP3    H154530   0.172   2.871   5.193  1.6231  1.4888 -0.7288
11013TIP3    H254531   0.066   2.853   5.086  0.1966 -0.7684  0.9796
11014TIP3   OH254532   5.271   3.040  14.503 -0.2865 -0.4487  0.7414
11014TIP3    H154533   5.349   2.992  14.478  0.3324  1.5805 -1.7120
11014TIP3    H254534   5.199   2.993  14.461  0.3304  0.7125 -1.7962
11015TIP3   OH254535   4.316   5.592  13.592  0.1057 -0.3649 -0.3507
11015TIP3    H154536   4.363   5.652  13.650 -0.4972 -0.3541  0.1433
11015TIP3    H254537   4.301   5.514  13.646 -1.2666 -0.0050 -0.1626
11016TIP3   OH254538   5.776   5.792   5.857  0.3487  0.0845  0.1592
11016TIP3    H154539   5.855   5.776   5.909  0.5622  0.7526  0.0542
11016TIP3    H254540   5.733   5.866   5.901 -0.4262 -0.5257  0.4440
11017TIP3   OH254541   3.802   5.211   5.461 -0.2176  0.0761 -0.5879
11017TIP3    H154542   3.723   5.262   5.444  0.6207  1.5600 -0.1998
11017TIP3    H254543   3.872   5.276   5.466  0.8990 -1.1230 -0.0543
11018TIP3   OH254544   6.293   4.026   4.893  0.1919 -0.1892 -0.1663
11018TIP3    H154545   6.238   4.025   4.971  0.7558 -1.5091  0.2297
11018TIP3    H254546   6.381   4.005   4.924  0.9942  1.9138 -0.7860
11019TIP3   OH254547   5.376   4.830  10.653  0.2665 -0.1215 -0.3593
11019TIP3    H154548   5.401   4.753  10.704 -1.9523 -0.1800  0.7358
11019TIP3    H254549   5.297   4.803  10.605  0.8574  0.7370 -1.8862
11020TIP3   OH254550   3.378   1.208  13.938  0.1202  0.5795  0.1218
11020TIP3    H154551   3.412   1.120  13.926 -1.0514 -0.3826  3.0616
11020TIP3    H254552   3.283   1.199  13.926 -0.2050  1.0394  2.0506
11021TIP3   OH254553   1.825   0.294  15.632  0.8352 -0.2648 -0.0845
11021TIP3    H154554   1.834   0.323  15.541  4.6013 -1.0278 -0.1236
11021TIP3    H254555   1.805   0.374  15.681  0.9592  0.5619 -1.3415
11022TIP3   OH254556   0.497   3.038   2.959  0.2745  0.2616  0.0582
11022TIP3    H154557   0.465   2.947   2.966  0.4896  0.0703 -1.2188
11022TIP3    H254558   0.540   3.054   3.043 -0.5699 -0.4996  0.6661
11023TIP3   OH254559   0.986   5.220  14.666 -0.1005 -0.6688  0.0857
11023TIP3    H154560   1.038   5.277  14.723 -0.6523 -0.6318  0.5499
11023TIP3    H254561   0.913   5.274  14.637  0.3365 -0.5872 -0.9145
11024TIP3   OH254562   3.452   2.738   1.470  0.9725  0.0670  0.3059
11024TIP3    H154563   3.409   2.656   1.496 -0.3713  0.5535 -0.2629
11024TIP3    H254564   3.478   2.722   1.379 -0.8303  0.8006 -0.3973
11025TIP3   OH254565   1.121   0.004   5.677  0.1394  1.3096 -0.3166
11025TIP3    H154566   1.099   0.062   5.604  0.5165  1.6843 -0.1373
11025TIP3    H254567   1.201  -0.040   5.649 -0.5093  0.3634 -0.7363
11026TIP3   OH254568   1.635   2.384   2.383  0.3479  0.9047 -0.0502
11026TIP3    H154569   1.637   2.352   2.292  1.9497  2.9606 -0.8151
11026TIP3    H254570   1.642   2.304   2.436  2.2176 -0.2056 -1.8059
11027TIP3   OH254571   0.818   6.715  15.334  0.3061  0.2845 -0.4029
11027TIP3    H154572   0.904   6.756  15.337 -0.1928  1.3752  2.6210
11027TIP3    H254573   0.826   6.639  15.392 -0.0540 -1.2735 -2.3129
11028TIP3   OH254574   0.437   1.335   5.813 -0.6262  0.4858  0.0808
11028TIP3    H154575   0.474   1.421   5.829 -1.7081  0.7421  1.3883
11028TIP3    H254576   0.512   1.276   5.816 -0.1586  1.0897  1.7925
11029TIP3   OH254577   1.869   3.319  13.496 -0.3338  0.3181 -0.3088
11029TIP3    H154578   1.808   3.258  13.537  0.0747  1.5104  2.2438
11029TIP3    H254579   1.955   3.278  13.507 -0.2654  0.4389 -0.3881
11030TIP3   OH254580   2.189   5.317  16.166 -0.2017  0.0997  0.3994
11030TIP3    H154581   2.196   5.407  16.199 -0.7055  0.9376 -1.6143
11030TIP3    H254582   2.229   5.321  16.079 -0.8095 -1.4688  0.0261
11031TIP3   OH254583   0.032   0.536  13.898  0.2630  0.4811  0.3870
11031TIP3    H154584   0.034   0.614  13.842  2.2899  0.1103 -0.1431
11031TIP3    H254585   0.006   0.465  13.839  1.6697  0.2223  0.0281
11032TIP3   OH254586   0.990   0.367   3.917 -0.0748  0.3213 -0.0012
11032TIP3    H154587   0.981   0.281   3.875 -1.6104  0.4997 -0.0772
11032TIP3    H254588   0.935   0.425   3.865  0.2854  1.1800  0.5560
11033TIP3   OH254589   6.070   1.914  16.383 -0.1088  0.0147  0.5824
11033TIP3    H154590   5.994   1.904  16.326  0.2113  1.0344 -0.0475
11033TIP3    H254591   6.040   1.974  16.452 -0.2216 -0.5057  0.9918
11034TIP3   OH254592   2.769   2.225   3.590  0.0005  0.5634  0.1593
11034TIP3    H154593   2.725   2.231   3.675 -1.8509  0.4931 -0.7426
11034TIP3    H254594   2.771   2.132   3.571 -0.2732  0.6261 -0.1919
11035TIP3   OH254595   5.436   3.267  11.998 -0.1693  0.2679  0.5148
11035TIP3    H154596   5.513   3.271  11.941  0.2528  0.4880  1.0810
11035TIP3    H254597   5.420   3.359  12.022 -1.6366  0.4221 -0.9261
11036TIP3   OH254598   0.615   5.524  17.268  0.3434  0.2225 -0.2285
11036TIP3    H154599   0.567   5.453  17.226 -0.5486  0.1006  0.9610
11036TIP3    H254600   0.686   5.544  17.207 -1.1281  0.3251 -1.9882
11037TIP3   OH254601   5.761   4.733   1.985 -0.3571  0.2100 -0.4343
11037TIP3    H154602   5.852   4.719   1.958 -0.2637  0.1805 -0.1101
11037TIP3    H254603   5.744   4.665   2.050 -0.4499  0.5167 -0.1304
11038TIP3   OH254604   2.775   2.579  12.512 -0.0681  0.6733 -0.3071
11038TIP3    H154605   2.781   2.488  12.542  1.1393  0.8474  0.0669
11038TIP3    H254606   2.683   2.602  12.520 -0.1710 -0.0946  0.9149
11039TIP3   OH254607   0.507   6.624   5.465  0.1291  0.1450  0.5138
11039TIP3    H154608   0.560   6.636   5.386 -1.5860 -0.1244 -0.7387
11039TIP3    H254609   0.458   6.705   5.473 -0.1744 -0.0789  0.9457
11040TIP3   OH254610   1.642   4.756  10.922 -0.2861 -0.6285 -0.0882
11040TIP3    H154611   1.589   4.819  10.873 -0.6907 -0.6616  0.2969
11040TIP3    H254612   1.580   4.689  10.950 -0.2363 -0.1717  1.1928
11041TIP3   OH254613   2.618   6.141   2.090 -0.3389  0.1966 -0.4538
11041TIP3    H154614   2.534   6.108   2.059 -0.3633 -1.2089  1.0299
11041TIP3    H254615   2.666   6.064   2.119  1.2017  1.0507 -0.5675
11042TIP3   OH254616   6.139   4.719   6.321 -0.4159 -0.3803 -0.2276
11042TIP3    H154617   6.097   4.735   6.406  0.6450  2.8510 -0.1913
11042TIP3    H254618   6.232   4.715   6.341  0.0542  2.6244 -1.3755
11043TIP3   OH254619   0.569   5.699   3.389  0.4579  0.0342  0.3910
11043TIP3    H154620   0.536   5.754   3.318 -0.2134 -0.4591  0.3042
11043TIP3    H254621   0.490   5.670   3.435  0.6453 -2.1720 -0.5571
11044TIP3   OH254622   4.310   1.885  14.764 -0.3716  0.1567  0.3376
11044TIP3    H154623   4.279   1.852  14.680 -0.7747  0.8428  0.2013
11044TIP3    H254624   4.238   1.870  14.825 -1.2877  2.2910 -0.1108
11045TIP3   OH254625   4.768   3.543   4.778 -0.2032 -0.2690  0.4472
11045TIP3    H154626   4.831   3.541   4.850 -2.9867  1.5206  3.1568
11045TIP3    H254627   4.757   3.636   4.758  1.5131 -0.6826 -3.5143
11046TIP3   OH254628   4.981   0.721  11.744 -0.2390  0.7829 -0.4011
11046TIP3    H154629   5.066   0.720  11.789 -1.2333  0.1854  1.5761
11046TIP3    H254630   4.932   0.790  11.788 -1.2210  0.2579 -0.6559
11047TIP3   OH254631   5.420   2.323  16.962 -0.2181  0.6609 -0.2881
11047TIP3    H154632   5.419   2.228  16.950  0.7846  0.2588  2.1350
11047TIP3    H254633   5.334   2.344  16.999 -0.6454  0.8073 -1.3382
11048TIP3   OH254634   5.315   1.348   3.787  0.1137  0.0160  0.0840
11048TIP3    H154635   5.281   1.432   3.755  0.6336  0.0958 -0.2781
11048TIP3    H254636   5.381   1.323   3.722 -1.1679 -1.4849 -0.7097
11049TIP3   OH254637   6.244   3.084   2.872  0.1351 -0.2465  0.3241
11049TIP3    H154638   6.276   3.075   2.782  0.7531  0.3431  0.4799
11049TIP3    H254639   6.288   3.162   2.906 -0.9037  0.1639  0.7942
11050TIP3   OH254640   4.729   3.712   0.314 -0.1707 -0.0753  0.3634
11050TIP3    H154641   4.690   3.669   0.389 -0.5390 -1.1524 -0.4279
11050TIP3    H254642   4.822   3.690   0.319 -0.0206  0.6569  1.0201
11051TIP3   OH254643   5.237   2.403   0.622 -0.1454  0.6155 -0.0425
11051TIP3    H154644   5.261   2.313   0.601  2.3796  1.2078 -0.1120
11051TIP3    H254645   5.204   2.439   0.540  3.5377  1.0549 -1.5663
11052TIP3   OH254646   4.427   1.185  11.599 -0.2653  0.0573  0.1622
11052TIP3    H154647   4.499   1.237  11.563 -2.2414  3.2525  0.4113
11052TIP3    H254648   4.391   1.139  11.523  1.5639 -1.0808 -0.0722
11053TIP3   OH254649   2.533   5.301  14.083  0.6267 -1.1656 -0.7875
11053TIP3    H154650   2.544   5.304  14.178  2.2676  0.8674 -0.9425
11053TIP3    H254651   2.456   5.247  14.069 -0.4147 -0.5178  1.7710
11054TIP3   OH254652   6.201   3.794  13.340 -0.1919  0.0724  0.2166
11054TIP3    H154653   6.295   3.779  13.330  0.1116  0.8906  1.5804
11054TIP3    H254654   6.172   3.729  13.404 -0.5630 -0.1631 -0.1813
11055TIP3   OH254655   4.856   2.233   0.743 -0.1398  0.2728 -0.6084
11055TIP3    H154656   4.764   2.215   0.764  0.3602 -0.9124  0.6855
11055TIP3    H254657   4.890   2.148   0.714  0.9391  0.3231  0.4539
11056TIP3   OH254658   4.906   5.164   3.514 -0.2329 -0.9581 -0.0847
11056TIP3    H154659   4.916   5.162   3.609  2.8344  1.1754 -0.2254
11056TIP3    H254660   4.875   5.253   3.496  2.7321 -0.0164 -1.1630
11057TIP3   OH254661   3.243   5.502   4.139  0.1898  0.1177  0.2021
11057TIP3    H154662   3.229   5.486   4.232 -0.2379 -0.5660  0.0251
11057TIP3    H254663   3.253   5.415   4.101 -0.6630  0.3388 -0.5511
11058TIP3   OH254664   4.397   3.449  14.699 -0.0648 -0.0316 -0.5667
11058TIP3    H154665   4.327   3.510  14.725 -1.8138 -2.8145  1.8348
11058TIP3    H254666   4.454   3.444  14.776 -0.2894 -1.8099 -0.4801
11059TIP3   OH254667   2.160   3.602  14.331 -0.5873  0.2324 -0.0592
11059TIP3    H154668   2.190   3.687  14.300 -0.1837  0.3537  0.6424
11059TIP3    H254669   2.077   3.620  14.375  0.0106  0.4448  1.0193
11060TIP3   OH254670   6.525   4.485  10.674 -0.9009  0.0223 -0.3219
11060TIP3    H154671   6.523   4.556  10.738 -1.2524  0.6215 -0.9711
11060TIP3    H254672   6.604   4.435  10.695 -0.7513  0.4951  0.2679
11061TIP3   OH254673   6.357   5.348  12.983  0.5137 -0.3481 -0.0263
11061TIP3    H154674   6.296   5.285  13.021 -2.4199  0.3216 -3.1730
11061TIP3    H254675   6.358   5.420  13.046 -1.9200 -0.4414  0.2157
11062TIP3   OH254676   2.437   1.615  12.270  0.1272  0.0751  0.7607
11062TIP3    H154677   2.357   1.642  12.315  0.2354 -0.5127  1.3142
11062TIP3    H254678   2.502   1.605  12.339  0.5419  0.0416  0.3744
11063TIP3   OH254679   4.587   2.843  12.595  0.1725 -0.3281 -0.6371
11063TIP3    H154680   4.651   2.908  12.566  0.3788 -0.0851  0.3436
11063TIP3    H254681   4.635   2.786  12.655  0.0725 -1.5990 -1.7229
11064TIP3   OH254682   5.072   3.152   2.557  0.1807  0.2372 -0.3177
11064TIP3    H154683   5.104   3.094   2.487  2.1619 -1.0271  1.5075
11064TIP3    H254684   5.028   3.223   2.511 -0.1173 -1.3975 -2.7700
11065TIP3   OH254685   0.540   2.608  12.687  0.0877  0.4484 -0.6871
11065TIP3    H154686   0.584   2.573  12.764  2.3481 -0.4160 -2.2625
11065TIP3    H254687   0.512   2.530  12.638 -0.4829  0.9621 -1.2037
11066TIP3   OH254688   6.270   1.776   3.829 -0.0874 -0.2005 -0.7672
11066TIP3    H154689   6.195   1.817   3.872  0.8651  0.9223 -0.1210
11066TIP3    H254690   6.240   1.687   3.809 -1.6408  0.2789 -0.7041
11067TIP3   OH254691   0.757   4.831   3.810  0.6506 -0.2468 -0.1461
11067TIP3    H154692   0.816   4.777   3.862  0.0016 -1.1710 -0.3437
11067TIP3    H254693   0.805   4.912   3.796  1.9824 -1.0641 -0.5219
11068TIP3   OH254694   5.151   0.377  14.558 -0.1921  0.5222 -0.7217
11068TIP3    H154695   5.129   0.468  14.542 -1.1942  0.3911 -0.1713
11068TIP3    H254696   5.086   0.347  14.621  0.6618 -0.3257 -0.2080
11069TIP3   OH254697   4.109   2.795  12.461  0.0457  0.6013  0.0596
11069TIP3    H154698   4.118   2.887  12.485 -0.4246  0.5861  0.3028
11069TIP3    H254699   4.198   2.766  12.442  0.3293  0.8405  0.9770
11070TIP3   OH254700   6.707   2.696  13.373 -0.0091 -0.1889 -0.1791
11070TIP3    H154701   6.649   2.697  13.449 -0.0481 -0.4563 -0.2046
11070TIP3    H254702   6.737   2.786  13.365 -1.2843  0.2013 -0.8275
11071TIP3   OH254703   0.264   6.028  14.279  0.4169 -0.1477  0.7523
11071TIP3    H154704   0.301   5.940  14.280 -0.3912 -0.5532 -1.0178
11071TIP3    H254705   0.183   6.020  14.228 -1.5076  0.9384  3.4032
11072TIP3   OH254706   5.769   1.983  16.369 -0.1465  0.1841  0.5758
11072TIP3    H154707   5.718   1.907  16.344  1.0759 -0.4214 -0.1469
11072TIP3    H254708   5.730   2.056  16.320  0.2178 -0.4237 -0.6293
11073TIP3   OH254709   1.287   5.308   2.633 -0.5517 -0.2337  0.5468
11073TIP3    H154710   1.326   5.266   2.556 -1.9271  0.8398 -0.8150
11073TIP3    H254711   1.283   5.401   2.610 -2.2850 -0.0703  1.2949
11074TIP3   OH254712   4.170   6.015  10.612 -0.2661 -0.7209 -0.2325
11074TIP3    H154713   4.156   5.930  10.571 -0.3976 -0.3549 -0.9471
11074TIP3    H254714   4.263   6.016  10.633 -0.3391 -1.1967  0.1396
11075TIP3   OH254715   6.177   2.999   2.283 -0.0977  0.2230  0.2195
11075TIP3    H154716   6.122   3.067   2.322  0.4011 -0.2134  1.7830
11075TIP3    H254717   6.255   3.046   2.252 -0.0619  0.4676  0.6638
11076TIP3   OH254718   3.384   3.845  12.431 -0.0862  0.3300  0.2608
11076TIP3    H154719   3.431   3.920  12.392  1.2773 -0.9603 -0.6899
11076TIP3    H254720   3.376   3.868  12.523  3.4948  0.2142  0.7534
11077TIP3   OH254721   1.640   5.647  15.153  0.5536 -0.3195 -0.2938
11077TIP3    H154722   1.621   5.557  15.128 -3.1271  0.4951 -1.1711
11077TIP3    H254723   1.587   5.662  15.232 -0.3354  1.4568 -1.1430
11078TIP3   OH254724   2.295   0.223  16.785  0.8511  0.4177 -0.1223
11078TIP3    H154725   2.234   0.169  16.835  1.8370  0.8181  1.5710
11078TIP3    H254726   2.356   0.160  16.746 -0.4169  0.0343 -1.6250
11079TIP3   OH254727   3.644   3.572   0.759  0.7922  0.6337  0.4943
11079TIP3    H154728   3.641   3.485   0.798 -0.5826 -0.4180 -1.7721
11079TIP3    H254729   3.574   3.620   0.804 -0.5455 -0.4472 -0.3597
11080TIP3   OH254730   3.150   3.301  12.398  0.4573  0.1877  0.0723
11080TIP3    H154731   3.074   3.349  12.430  2.3095  3.5131 -0.1316
11080TIP3    H254732   3.222   3.331  12.453  1.8407 -2.2506 -0.2701
11081TIP3   OH254733   0.985   4.894  12.537 -0.2352 -0.5101  0.1247
11081TIP3    H154734   1.031   4.865  12.458  1.6030  0.5486  0.7438
11081TIP3    H254735   0.894   4.906  12.509  0.0582 -1.6259 -1.4251
11082TIP3   OH254736   0.563   0.738  16.533 -0.2289  0.1370 -0.5509
11082TIP3    H154737   0.530   0.794  16.463  1.5804 -0.0428 -1.6035
11082TIP3    H254738   0.547   0.649  16.502 -0.0479  0.0584 -0.4182
11083TIP3   OH254739   1.913   3.193  15.788 -0.1280  0.9517  0.6831
11083TIP3    H154740   1.897   3.114  15.736 -0.9658  1.0060  0.8552
11083TIP3    H254741   1.826   3.227  15.809  0.2164  1.5721  1.1502
11084TIP3   OH254742   5.130   3.781  11.266 -0.2033  0.3935  0.3010
11084TIP3    H154743   5.218   3.819  11.262 -0.3622  0.6632 -1.2547
11084TIP3    H254744   5.126   3.724  11.188 -1.5582  0.7204  0.1209
11085TIP3   OH254745   1.891   1.179  12.249 -0.0274 -0.6274  0.5509
11085TIP3    H154746   1.818   1.117  12.253 -0.7100  0.2005  1.7426
11085TIP3    H254747   1.966   1.130  12.283  0.3612 -1.9228 -1.9652
11086TIP3   OH254748   4.372   0.840  16.394  0.6905 -0.2387  0.6063
11086TIP3    H154749   4.322   0.917  16.367  0.2221  0.3432  2.9469
11086TIP3    H254750   4.448   0.839  16.336 -0.9501  0.0072 -1.6995
11087TIP3   OH254751   3.529   3.062   1.016  0.4365  0.1794  0.5150
11087TIP3    H154752   3.465   3.025   1.077 -1.3678 -0.1254 -1.4407
11087TIP3    H254753   3.489   3.051   0.929  1.5443  3.2066 -0.5307
11088TIP3   OH254754   2.074   0.399   1.793 -0.7206  0.8200  0.4332
11088TIP3    H154755   2.166   0.421   1.810 -0.3497 -1.0663  1.1219
11088TIP3    H254756   2.056   0.325   1.851 -1.3547 -1.7720 -2.7598
11089TIP3   OH254757   5.183   4.486   2.719 -0.2618  0.4715 -0.2799
11089TIP3    H154758   5.126   4.559   2.744  0.0592  0.8002 -0.4754
11089TIP3    H254759   5.130   4.408   2.730 -0.7834  0.7796 -0.5596
11090TIP3   OH254760   5.380   0.292  12.049 -0.3837 -0.4479  0.0454
11090TIP3    H154761   5.465   0.258  12.023 -0.4407 -0.3204 -0.3180
11090TIP3    H254762   5.360   0.248  12.132 -0.5098 -1.3668 -0.4682
11091TIP3   OH254763   6.413   5.761   2.715 -0.3746  0.3836  0.6049
11091TIP3    H154764   6.338   5.703   2.715  0.1188 -0.2621  1.0869
11091TIP3    H254765   6.427   5.783   2.807 -1.7893  2.9078  0.3054
11092TIP3   OH254766   3.401   5.564  16.238  0.3091  0.2767  0.1447
11092TIP3    H154767   3.417   5.581  16.331  0.2907 -2.3119  0.7252
11092TIP3    H254768   3.320   5.512  16.237  0.0278  0.6904 -1.3674
11093TIP3   OH254769   5.194   5.193  13.284  0.5074 -0.1509  0.0074
11093TIP3    H154770   5.204   5.197  13.380 -0.5754 -0.0348  0.1244
11093TIP3    H254771   5.231   5.276  13.253 -2.0668  1.3625  0.6339
11094TIP3   OH254772   0.744   1.505   2.873  0.1207 -0.4988  0.0857
11094TIP3    H154773   0.668   1.513   2.931  0.5769  0.4552  0.5699
11094TIP3    H254774   0.768   1.413   2.878 -2.4870 -1.4493 -2.0069
11095TIP3   OH254775   4.475   1.979   2.695 -0.1822  0.2795  0.2390
11095TIP3    H154776   4.519   2.052   2.739  0.4508  0.5987 -0.8915
11095TIP3    H254777   4.543   1.940   2.640 -0.4688 -1.2563  0.8930
11096TIP3   OH254778   4.943   3.115  11.513  0.1854  0.1827 -0.3012
11096TIP3    H154779   5.027   3.070  11.520 -0.5963 -1.2173  0.5289
11096TIP3    H254780   4.919   3.106  11.420 -0.2317 -1.6923 -0.0435
11097TIP3   OH254781   1.384   5.906  14.780  0.1197  0.3757  0.2197
11097TIP3    H154782   1.379   5.946  14.694 -0.2275  0.4549  0.2777
11097TIP3    H254783   1.374   5.979  14.842 -1.4798  0.0935  0.3270
11098TIP3   OH254784   1.588   0.532   1.921 -0.3270  0.1345 -0.0990
11098TIP3    H154785   1.592   0.552   2.015 -0.2733  0.3753 -0.1520
11098TIP3    H254786   1.494   0.524   1.903 -0.3776  0.8731 -0.1868
11099TIP3   OH254787   3.768   5.202  12.178  0.6379 -0.3607 -0.3788
11099TIP3    H154788   3.835   5.153  12.131  0.1183 -1.5933  0.1155
11099TIP3    H254789   3.766   5.162  12.265 -0.6651 -0.2690 -0.3539
11100TIP3   OH254790   2.203   0.084   3.169  0.3123 -0.5974  0.0758
11100TIP3    H154791   2.109   0.092   3.183  0.1432  0.2793 -1.3743
11100TIP3    H254792   2.234   0.031   3.243 -1.0424  0.5227  1.5029
11101TIP3   OH254793   1.188   0.457  12.110  0.6942 -0.2163 -0.4080
11101TIP3    H154794   1.225   0.372  12.133  2.3379  0.0777 -1.7676
11101TIP3    H254795   1.232   0.518  12.168  0.1805 -0.1930 -0.0441
11102TIP3   OH254796   1.592   4.108   5.652  0.1427  0.3862 -0.0974
11102TIP3    H154797   1.537   4.186   5.661  0.3269  0.5635 -0.4946
11102TIP3    H254798   1.529   4.036   5.641 -0.0191  0.7582 -1.9271
11103TIP3   OH254799   3.509   6.362   4.821 -0.1736 -0.2619 -0.1941
11103TIP3    H154800   3.416   6.339   4.816 -0.0237 -0.6342 -3.4168
11103TIP3    H254801   3.513   6.453   4.793  0.4546 -0.3947 -0.5621
11104TIP3   OH254802   0.739   6.062  10.351 -0.0978 -0.6812  0.5957
11104TIP3    H154803   0.682   6.107  10.414 -1.9974 -0.1879 -1.3452
11104TIP3    H254804   0.796   6.132  10.317 -1.3300 -0.1966 -0.5741
11105TIP3   OH254805   5.850   1.474   0.695 -0.6010  0.4390 -0.2279
11105TIP3    H154806   5.817   1.554   0.737 -2.5540  0.4395 -1.6113
11105TIP3    H254807   5.887   1.504   0.612 -0.2961  0.0189 -0.2453
11106TIP3   OH254808   6.639   4.906   4.099  0.6900 -0.0437  0.3948
11106TIP3    H154809   6.643   4.848   4.022 -0.2468  0.1203  0.2168
11106TIP3    H254810   6.679   4.988   4.069  0.1526  0.0846  0.0233
11107TIP3   OH254811   0.009   1.534   5.456  0.3325 -0.6831 -0.0183
11107TIP3    H154812  -0.079   1.499   5.441  0.1667 -0.7413  1.0185
11107TIP3    H254813   0.001   1.585   5.537  1.0880 -0.0858 -0.3098
11108TIP3   OH254814   6.471   5.697   6.835 -0.5113 -0.1222  0.0989
11108TIP3    H154815   6.498   5.747   6.912 -0.1308  2.2210 -1.4398
11108TIP3    H254816   6.434   5.763   6.776 -1.2887 -1.9149 -1.5073
11109TIP3   OH254817   4.277   4.552   0.505 -0.0215  0.5272 -1.0365
11109TIP3    H154818   4.267   4.634   0.553 -1.0346  1.2114 -2.3588
11109TIP3    H254819   4.313   4.577   0.420  0.2886 -0.4726 -1.2153
11110TIP3   OH254820   6.031   2.657   4.652 -0.5761  0.4630 -0.2020
11110TIP3    H154821   5.985   2.739   4.635  0.4065  0.8156 -1.3217
11110TIP3    H254822   6.104   2.657   4.590  0.6862 -0.2736  1.2113
11111TIP3   OH254823   1.096   3.196   3.716  0.7906  0.1308  0.0608
11111TIP3    H154824   1.131   3.283   3.731  0.8609 -0.0525  1.0273
11111TIP3    H254825   1.166   3.150   3.669  0.3647  0.8775 -1.3552
11112TIP3   OH254826   6.022   4.104   3.967  0.0126 -0.0297 -0.8865
11112TIP3    H154827   6.017   4.199   3.975 -3.2902 -0.1798  0.3508
11112TIP3    H254828   5.953   4.082   3.904 -0.0717 -1.6539 -0.2750
11113TIP3   OH254829   0.214   3.646   5.639  0.2072 -0.8109  0.0133
11113TIP3    H154830   0.153   3.711   5.675 -0.1985 -1.0472 -0.2404
11113TIP3    H254831   0.295   3.660   5.687  0.7134  1.1130 -1.2838
11114TIP3   OH254832   0.386   0.990  15.203  0.7301  0.0992 -0.0683
11114TIP3    H154833   0.407   0.903  15.239 -0.3981  0.3011  1.1524
11114TIP3    H254834   0.448   1.049  15.246  0.7907  0.0560 -0.0947
11115TIP3   OH254835   4.049   0.582  16.572 -0.0543 -0.2851  0.1350
11115TIP3    H154836   3.955   0.583  16.552  0.0377 -1.5639 -0.4662
11115TIP3    H254837   4.061   0.653  16.636 -1.7418 -1.2974  1.6627
11116TIP3   OH254838   3.160   1.051  15.390 -0.0157 -0.2019 -0.1919
11116TIP3    H154839   3.198   1.033  15.475 -0.5048 -0.0216  0.0669
11116TIP3    H254840   3.140   0.965  15.353  1.1428 -0.3222 -0.5653
11117TIP3   OH254841   4.897   3.190   4.158  0.6629 -0.0121  0.0875
11117TIP3    H154842   4.926   3.153   4.241 -0.7164 -0.3156  0.4504
11117TIP3    H254843   4.924   3.126   4.092  2.2992  0.5122  0.2069
11118TIP3   OH254844   5.887   0.395  14.523  0.0470 -0.2396 -0.1021
11118TIP3    H154845   5.877   0.477  14.475  0.1916  0.7421  1.4759
11118TIP3    H254846   5.866   0.327  14.459 -3.2392  1.1187 -0.6944
11119TIP3   OH254847   3.587   5.415  13.538 -0.1510 -0.3910  0.0493
11119TIP3    H154848   3.499   5.400  13.572  0.0613 -0.3699  0.6087
11119TIP3    H254849   3.592   5.510  13.528 -0.3562 -0.4268 -0.4365
11120TIP3   OH254850   2.112   5.051   2.663  0.0955 -0.1109  0.5887
11120TIP3    H154851   2.159   5.013   2.589  0.5408  2.9354 -0.8408
11120TIP3    H254852   2.139   4.998   2.738  1.6444 -1.7255 -0.9929
11121TIP3   OH254853   2.964   4.198   1.540 -0.1030 -0.4682  0.9424
11121TIP3    H154854   3.036   4.136   1.527  1.0226  1.0574 -0.6415
11121TIP3    H254855   2.979   4.266   1.474 -2.6656  0.2411  0.9831
11122TIP3   OH254856   3.074   1.084   6.026 -0.0867  1.2707 -0.0750
11122TIP3    H154857   3.083   1.071   5.932 -0.3471 -1.9468  0.2408
11122TIP3    H254858   2.980   1.099   6.039 -0.2152  0.6260 -0.2393
11123TIP3   OH254859   6.561   2.640  14.326 -0.3094 -0.4057  0.4170
11123TIP3    H154860   6.488   2.604  14.276 -1.2400  1.0056  0.7197
11123TIP3    H254861   6.534   2.631  14.418 -2.1906  4.0347  0.5198
11124TIP3   OH254862   3.604   3.379   3.463 -0.3755  0.2125  0.0682
11124TIP3    H154863   3.619   3.291   3.498  1.4090 -1.2217 -3.7185
11124TIP3    H254864   3.509   3.392   3.468 -0.5988 -1.5802  1.3623
11125TIP3   OH254865   0.105   5.605   5.133 -0.2501  0.5380  0.8014
11125TIP3    H154866   0.057   5.687   5.130 -1.7651 -0.3356 -0.2207
11125TIP3    H254867   0.094   5.574   5.223 -2.7773 -0.2676  0.2718
11126TIP3   OH254868   5.955   6.114   3.472  0.7798 -0.8017  0.4491
11126TIP3    H154869   5.877   6.148   3.429  0.1842 -0.4794  1.7478
11126TIP3    H254870   6.027   6.162   3.432  0.2058 -0.1746  0.1504
11127TIP3   OH254871   5.262   6.769  15.185  0.4644 -0.2782 -0.3768
11127TIP3    H154872   5.166   6.766  15.182  0.4937 -0.8808 -1.2141
11127TIP3    H254873   5.283   6.862  15.172 -0.0056 -0.1171 -0.0111
11128TIP3   OH254874   4.826   4.421   2.679  0.9170 -0.0971 -0.4447
11128TIP3    H154875   4.826   4.431   2.584 -3.4992 -1.1757 -0.7786
11128TIP3    H254876   4.851   4.330   2.694  0.6134 -0.2238 -0.6964
11129TIP3   OH254877   4.881   5.409  16.288 -0.1974 -0.1428  0.0894
11129TIP3    H154878   4.927   5.489  16.311  0.5435 -0.6366  0.3874
11129TIP3    H254879   4.888   5.403  16.193 -0.1263  0.0747  0.0816
11130TIP3   OH254880   1.167   4.838   0.637 -0.1318  0.1155 -0.4165
11130TIP3    H154881   1.247   4.845   0.585 -0.9502  0.2218 -1.7014
11130TIP3    H254882   1.148   4.744   0.641 -0.9225  0.1901 -1.7092
11131TIP3   OH254883   3.234   5.147  16.135  0.3083  0.2970 -0.1378
11131TIP3    H154884   3.212   5.054  16.131 -2.3246  0.8567 -2.3757
11131TIP3    H254885   3.317   5.154  16.088  0.0257 -0.8159 -0.8426
11132TIP3   OH254886   4.727   1.599  16.375 -0.2228 -0.5152 -0.4440
11132TIP3    H154887   4.688   1.520  16.339  0.1643 -0.6283 -0.6183
11132TIP3    H254888   4.653   1.660  16.383 -0.8434 -1.4537  1.3167
11133TIP3   OH254889   2.167   0.709  15.788 -0.1567 -0.0249  0.1664
11133TIP3    H154890   2.227   0.767  15.835  0.2727  0.1134 -0.5487
11133TIP3    H254891   2.088   0.761  15.776 -0.2454 -0.0369  0.6704
11134TIP3   OH254892   6.253   6.334   1.330  0.1252  0.0346 -0.0925
11134TIP3    H154893   6.235   6.341   1.423  1.2916 -1.1619  0.2592
11134TIP3    H254894   6.330   6.390   1.316 -0.9498  1.4087 -0.6496
11135TIP3   OH254895   3.999   6.358   5.144 -0.4919 -0.0614 -0.1391
11135TIP3    H154896   3.968   6.270   5.123  1.1433 -0.9567  1.0356
11135TIP3    H254897   4.031   6.393   5.061 -1.2530 -0.4992 -0.6310
11136TIP3   OH254898   0.623   2.282   5.455 -0.2260 -0.1490  0.0451
11136TIP3    H154899   0.587   2.360   5.414  1.0114 -0.1176 -1.0341
11136TIP3    H254900   0.574   2.209   5.415 -0.0722 -0.0333 -0.3528
11137TIP3   OH254901   4.062   1.569   1.390  0.0872 -0.3640 -0.0622
11137TIP3    H154902   4.105   1.517   1.322  0.5838  0.0786 -0.0969
11137TIP3    H254903   4.010   1.506   1.439  0.8897 -0.9457  0.0655
11138TIP3   OH254904   0.154   4.710  14.672 -0.0598 -0.0144  0.3067
11138TIP3    H154905   0.152   4.666  14.586  0.2466  0.0956  0.2423
11138TIP3    H254906   0.242   4.691  14.706 -0.7173 -1.4341  1.3185
11139TIP3   OH254907   5.364   0.122  17.198 -0.6467 -0.3837  0.2552
11139TIP3    H154908   5.299   0.176  17.154  0.6027 -0.7685 -2.2131
11139TIP3    H254909   5.430   0.103  17.131  0.8235 -1.9442  2.0119
11140TIP3   OH254910   2.380   3.766  11.898 -0.8131  0.3094  0.0453
11140TIP3    H154911   2.462   3.738  11.938 -0.1922 -0.9686 -1.9688
11140TIP3    H254912   2.351   3.840  11.952 -0.0339 -1.1857  2.7286
11141TIP3   OH254913   3.694   0.593  14.594 -0.1686  0.5050 -0.0193
11141TIP3    H154914   3.767   0.648  14.621  1.7196 -1.8916  0.1116
11141TIP3    H254915   3.616   0.637  14.629  1.3037  2.5092  0.9104
11142TIP3   OH254916   2.106   0.058  15.246  0.6634  0.1675  0.7526
11142TIP3    H154917   2.158   0.136  15.267  2.0591 -0.4694 -0.1510
11142TIP3    H254918   2.092   0.064  15.151 -0.3478 -0.0355  0.8765
11143TIP3   OH254919   0.941   0.763  14.797  0.5627 -0.2298  0.0110
11143TIP3    H154920   0.922   0.828  14.864 -0.6641 -0.7151  0.1675
11143TIP3    H254921   1.023   0.792  14.758  0.8461  0.5451  1.1226
11144TIP3   OH254922   2.991   0.960  15.672  0.0520  0.5864 -0.4902
11144TIP3    H154923   3.061   0.897  15.690 -0.6459 -0.0621 -0.0014
11144TIP3    H254924   3.016   1.038  15.721 -0.3773 -0.1906  1.0178
11145TIP3   OH254925   3.876   4.570   2.348  0.1474 -0.6853 -0.4643
11145TIP3    H154926   3.968   4.547   2.342  0.3163 -0.1420  0.0291
11145TIP3    H254927   3.847   4.580   2.257 -0.3618 -4.4794 -0.8857
11146TIP3   OH254928   0.762   4.764  12.417 -0.4440 -0.1103  0.2119
11146TIP3    H154929   0.746   4.672  12.395 -1.1165  0.3070 -1.2294
11146TIP3    H254930   0.719   4.776  12.502 -0.4610 -1.0895  0.3579
11147TIP3   OH254931   2.035   3.039  13.829  0.5489  0.0246  0.7446
11147TIP3    H154932   2.102   3.008  13.890  1.3027  1.4427  0.6879
11147TIP3    H254933   2.085   3.074  13.755 -0.3109 -0.1412  0.0731
11148TIP3   OH254934   4.248   2.481   5.753  0.5876 -0.0716  0.3413
11148TIP3    H154935   4.225   2.574   5.763 -0.5243 -0.0663 -1.6996
11148TIP3    H254936   4.218   2.440   5.833  1.3962  1.3538  1.4372
11149TIP3   OH254937   3.551   6.452  11.039 -0.0827 -0.2449 -0.3251
11149TIP3    H154938   3.580   6.500  11.116 -1.6176 -0.7900  0.6436
11149TIP3    H254939   3.495   6.382  11.075  0.1461 -1.2448 -1.8489
11150TIP3   OH254940   1.085   5.178  12.235 -0.4243 -0.2114  0.3423
11150TIP3    H154941   1.081   5.187  12.330 -1.5371 -0.8009  0.3718
11150TIP3    H254942   1.066   5.266  12.202 -0.2186 -0.0471  0.6567
11151TIP3   OH254943   4.105   2.214   6.222 -0.0038 -0.1214  0.3406
11151TIP3    H154944   4.038   2.171   6.170  0.3666  1.5262 -1.6675
11151TIP3    H254945   4.164   2.144   6.249 -0.1100 -1.0591 -1.7022
11152TIP3   OH254946   5.972   2.796  11.938  0.1605 -0.2709 -0.5117
11152TIP3    H154947   5.939   2.767  12.023 -0.2599 -0.1644 -0.6382
11152TIP3    H254948   6.067   2.801  11.950  0.1417 -0.6818 -0.1792
11153TIP3   OH254949   3.813   6.310  16.703 -0.0076  0.4731 -0.4836
11153TIP3    H154950   3.795   6.304  16.797  1.4423 -0.8364 -0.2552
11153TIP3    H254951   3.841   6.401  16.690  0.1607  0.5648  0.4320
11154TIP3   OH254952   4.016   6.271  13.382 -0.2134 -0.0928 -0.3935
11154TIP3    H154953   4.079   6.200  13.391  1.3523  1.1651 -0.9225
11154TIP3    H254954   4.069   6.350  13.374 -1.8843  1.1500  0.0649
11155TIP3   OH254955   1.582   3.713  14.545  0.0821 -0.0990  0.5665
11155TIP3    H154956   1.633   3.773  14.491  0.3536 -2.6040 -2.2426
11155TIP3    H254957   1.501   3.760  14.564  0.2960  1.2205 -1.4603
11156TIP3   OH254958   5.504   2.902   6.409 -0.0736 -0.2796 -0.2978
11156TIP3    H154959   5.453   2.832   6.450 -2.1694  2.1506  1.5872
11156TIP3    H254960   5.571   2.924   6.474 -0.0789  0.1207 -0.4220
11157TIP3   OH254961   1.998   0.138  13.731  0.2657  0.5244  0.1731
11157TIP3    H154962   2.072   0.139  13.670 -0.8840 -2.5863 -1.5303
11157TIP3    H254963   1.921   0.134  13.674 -1.0303  0.3059  1.8719
11158TIP3   OH254964   4.209   0.832   4.902 -0.2820 -0.2592  0.5625
11158TIP3    H154965   4.198   0.927   4.890  0.3522 -0.1288  1.0207
11158TIP3    H254966   4.150   0.810   4.974  1.8792  0.3361  2.5978
11159TIP3   OH254967   5.551   0.981  13.911 -0.9663 -0.3362 -0.3418
11159TIP3    H154968   5.599   0.985  13.829 -0.8901 -0.3600 -0.2981
11159TIP3    H254969   5.602   0.921  13.966  0.1699  1.3470  0.5139
11160TIP3   OH254970   1.058   4.750  14.866 -0.3871  0.4903 -0.6828
11160TIP3    H154971   1.085   4.714  14.781  2.6896 -0.3658  0.4983
11160TIP3    H254972   1.121   4.820  14.884 -2.0269  1.8051  0.1806
11161TIP3   OH254973   1.284   6.506   1.277  0.1350 -0.5292  0.2497
11161TIP3    H154974   1.216   6.565   1.244  2.7495  1.1085 -2.7826
11161TIP3    H254975   1.321   6.552   1.352 -1.1320 -0.7910  1.0666
11162TIP3   OH254976   3.560   6.096  13.980  0.4487 -0.4225 -0.0962
11162TIP3    H154977   3.613   6.017  13.971  2.4751  0.9487 -0.9732
11162TIP3    H254978   3.606   6.149  14.045 -0.1070  0.5920 -0.4978
11163TIP3   OH254979   6.048   1.312   3.345  0.0907  0.3851  0.1385
11163TIP3    H154980   6.017   1.267   3.423 -1.7636  1.1234 -0.1260
11163TIP3    H254981   6.045   1.405   3.368 -1.4319  0.6862 -1.0868
11164TIP3   OH254982   3.931   6.250  13.108  0.3660 -0.0681  0.3578
11164TIP3    H154983   3.921   6.344  13.092  2.5724  0.2245  0.3945
11164TIP3    H254984   3.978   6.244  13.192 -0.5030 -1.2527  0.7993
11165TIP3   OH254985   5.253   2.706  14.235 -0.2637 -0.1009  0.1653
11165TIP3    H154986   5.336   2.742  14.266 -0.2679  0.3150 -0.2845
11165TIP3    H254987   5.271   2.682  14.144 -0.3604 -0.9260  0.3561
11166TIP3   OH254988   0.638   5.658  16.594  0.1375  0.0731 -0.3541
11166TIP3    H154989   0.586   5.599  16.539 -1.1770 -0.5835  1.5104
11166TIP3    H254990   0.657   5.607  16.673  1.4086  1.2084  0.1113
11167TIP3   OH254991   0.810   1.455   2.339 -0.2904  0.7043  0.7359
11167TIP3    H154992   0.793   1.465   2.433 -0.4545  0.4311  0.7401
11167TIP3    H254993   0.812   1.360   2.326 -0.1072  0.7419  0.4908
11168TIP3   OH254994   1.949   1.487   2.567  0.1095 -0.0996 -0.3207
11168TIP3    H154995   1.922   1.436   2.492  1.1810 -0.9750 -0.1319
11168TIP3    H254996   1.985   1.568   2.530  1.3638 -0.8586 -0.8217
11169TIP3   OH254997   4.337   0.293  11.573 -0.2112  0.5169 -0.3874
11169TIP3    H154998   4.254   0.254  11.601 -0.7694  2.5437  0.9993
11169TIP3    H254999   4.403   0.235  11.610 -1.0144  0.4397  1.0327
11170TIP3   OH255000   5.866   0.870   2.763 -0.5409  0.0501 -0.7598
11170TIP3    H155001   5.932   0.841   2.700  1.0798  1.0010  0.4278
11170TIP3    H255002   5.912   0.931   2.820 -2.1142 -0.2675  0.9581
11171TIP3   OH255003   1.555   4.362  16.422  0.5042  0.1125 -0.4152
11171TIP3    H155004   1.590   4.298  16.483 -1.3582 -0.6394 -0.0546
11171TIP3    H255005   1.583   4.331  16.336  1.3505 -0.0242 -0.0943
11172TIP3   OH255006   3.506   4.557  13.182  0.0620 -0.2612  0.2183
11172TIP3    H155007   3.533   4.498  13.111  0.3067  0.4956 -0.3243
11172TIP3    H255008   3.430   4.514  13.221 -0.3321 -0.4851 -0.7739
11173TIP3   OH255009   3.444   5.694  16.483 -0.8185 -0.0063  0.4591
11173TIP3    H155010   3.461   5.788  16.485 -0.1568 -0.0821 -0.7148
11173TIP3    H255011   3.521   5.654  16.524  0.2770 -0.1589 -1.6275
11174TIP3   OH255012   3.240   5.176  16.447  0.5673 -0.1270  0.0138
11174TIP3    H155013   3.174   5.245  16.440 -0.2606 -0.5689  2.5562
11174TIP3    H255014   3.221   5.117  16.375  2.0747  2.7818 -3.0620
11175TIP3   OH255015   5.923   0.892   3.703 -0.5787  0.0343 -0.2586
11175TIP3    H155016   5.951   0.962   3.644 -0.5088 -0.9489 -1.4257
11175TIP3    H255017   5.839   0.922   3.737  0.4523  1.6787  1.0104
11176TIP3   OH255018   3.160   0.875  15.964 -0.6319 -0.2610  0.1652
11176TIP3    H155019   3.158   0.971  15.963 -2.5838 -0.2683  0.0839
11176TIP3    H255020   3.072   0.849  15.989 -0.7697 -2.0661 -1.9106
11177TIP3   OH255021   3.780   6.796  17.193  0.9322 -0.0822 -0.2506
11177TIP3    H155022   3.720   6.724  17.210  2.1612 -0.6775  1.8626
11177TIP3    H255023   3.766   6.857  17.266  1.8758  0.4567 -0.5029
11178TIP3   OH255024   3.473   0.008   2.750 -0.1666  0.1725 -0.0749
11178TIP3    H155025   3.458   0.069   2.821 -0.2851 -0.3705  0.3753
11178TIP3    H255026   3.514  -0.068   2.791  2.1863  0.8520 -0.9806
11179TIP3   OH255027   5.642   1.305  13.942  0.2392  1.1775 -0.2714
11179TIP3    H155028   5.730   1.289  13.908 -0.0866 -0.5905 -0.3758
11179TIP3    H255029   5.585   1.294  13.867 -0.1383  1.3902 -0.0178
11180TIP3   OH255030   3.902   5.615  15.529  0.2130 -0.1302 -0.4815
11180TIP3    H155031   3.828   5.606  15.588 -0.1690 -0.0548 -0.9470
11180TIP3    H255032   3.912   5.529  15.488 -0.2271  0.1235 -1.1326
11181TIP3   OH255033   4.277   3.768  14.373 -0.4986 -0.3301  0.4042
11181TIP3    H155034   4.309   3.858  14.368  0.3014 -0.6305 -0.0969
11181TIP3    H255035   4.253   3.746  14.283 -0.8953 -0.5500  0.5588
11182TIP3   OH255036   3.446   1.995  12.272 -0.5530  0.0028 -0.5730
11182TIP3    H155037   3.528   2.012  12.319 -0.2518 -3.0748  0.2443
11182TIP3    H255038   3.390   1.953  12.337 -1.7492 -0.4583 -1.8578
11183TIP3   OH255039   5.405   5.784  15.340 -0.2196 -0.7469  0.0057
11183TIP3    H155040   5.316   5.819  15.340  0.0864  0.1245 -1.3310
11183TIP3    H255041   5.401   5.709  15.399 -1.5500 -0.0356  0.8816
11184TIP3   OH255042   3.412   6.059  16.410 -0.0785 -0.4570 -0.5084
11184TIP3    H155043   3.474   6.110  16.462  1.0029  0.3385 -2.4765
11184TIP3    H255044   3.466   6.014  16.345 -1.3606 -1.4075 -0.9547
11185TIP3   OH255045   1.152   0.127  16.957 -0.3018 -0.2983 -0.6230
11185TIP3    H155046   1.063   0.092  16.958 -0.6985  0.6843 -0.7543
11185TIP3    H255047   1.157   0.183  17.035 -0.1865  0.5518 -1.2214
11186TIP3   OH255048   3.680   2.467   1.911  0.1317  0.0446  0.3699
11186TIP3    H155049   3.635   2.500   1.833  0.8606  0.1255 -0.0255
11186TIP3    H255050   3.615   2.475   1.981  0.2237  2.2303  0.2749
11187TIP3   OH255051   6.246   1.195  15.845  0.1217  0.6256  0.4698
11187TIP3    H155052   6.338   1.185  15.871 -0.1462 -1.7864  0.8089
11187TIP3    H255053   6.200   1.217  15.927 -0.0275 -1.9121  1.1757
11188TIP3   OH255054   6.688   6.626  13.378 -0.3541 -0.2105 -0.1129
11188TIP3    H155055   6.636   6.549  13.356 -1.6872  0.9073 -1.0368
11188TIP3    H255056   6.637   6.700  13.345  1.0283  1.0593  0.4726
11189TIP3   OH255057   0.959   5.587   0.013  0.1922  0.1055  0.0403
11189TIP3    H155058   0.909   5.668   0.008  0.1607  0.0934  0.1506
11189TIP3    H255059   0.919   5.538   0.085 -0.9058 -0.7664 -1.1127
11190TIP3   OH255060   6.820   3.036   0.045  0.1355  0.7841  0.7667
11190TIP3    H155061   6.766   2.960   0.024  0.3708  1.4049 -2.7034
11190TIP3    H255062   6.771   3.083   0.112 -0.6994 -1.6343  1.9580
11191TIP3   OH255063   2.645   4.999   0.366  0.1594 -0.1136 -0.1789
11191TIP3    H155064   2.593   5.076   0.391 -0.5546 -1.2437  2.1333
11191TIP3    H255065   2.581   4.940   0.326  0.2897 -0.3242 -0.0728
11192TIP3   OH255066   1.238   3.192   3.095  0.2058 -0.0096 -0.1149
11192TIP3    H155067   1.273   3.157   3.013  0.1659  0.1562 -0.2022
11192TIP3    H255068   1.235   3.116   3.153 -2.2204 -0.7097 -1.0485
11193TIP3   OH255069   1.861   3.327   2.476  0.2009 -0.4946  0.8659
11193TIP3    H155070   1.831   3.409   2.517  1.5717  0.2243  0.5209
11193TIP3    H255071   1.785   3.270   2.476 -0.4593  0.3378  2.2695
11194TIP3   OH255072   3.593   6.337   2.664  0.5156  0.4652 -0.2362
11194TIP3    H155073   3.582   6.341   2.569  1.2621 -3.4067 -0.6353
11194TIP3    H255074   3.672   6.388   2.682  1.8035 -0.7614 -2.0992
11195TIP3   OH255075   4.585   5.351  10.315  0.0136  0.1616  0.1650
11195TIP3    H155076   4.637   5.431  10.318 -0.5538  0.5474 -0.1707
11195TIP3    H255077   4.494   5.380  10.311 -0.2240 -0.5041  0.5058
11196TIP3   OH255078   4.818   0.683  11.530  0.0401  0.1494 -0.1767
11196TIP3    H155079   4.735   0.690  11.578  0.4130 -0.8169  0.6361
11196TIP3    H255080   4.885   0.695  11.597  0.5734  0.7580 -0.8061
11197TIP3   OH255081   4.009   6.321   3.558  0.2434 -0.3158  0.3625
11197TIP3    H155082   3.996   6.227   3.547 -0.3753 -0.1262 -0.5652
11197TIP3    H255083   4.104   6.331   3.566  0.2981 -1.0330  0.6732
11198TIP3   OH255084   4.359   0.953   4.443 -0.0196 -0.1997 -0.2234
11198TIP3    H155085   4.315   0.971   4.526 -0.7586  0.6529 -0.7723
11198TIP3    H255086   4.304   0.888   4.399  0.1343 -0.3243 -0.2351
11199TIP3   OH255087   5.827   3.001  15.846 -0.2450 -0.7307  0.4008
11199TIP3    H155088   5.908   2.969  15.886  0.4655 -1.0905 -1.2432
11199TIP3    H255089   5.839   3.096  15.840  0.3855 -0.8598 -0.5063
11200TIP3   OH255090   1.056   6.627   1.403  0.0599 -0.2010 -0.0075
11200TIP3    H155091   1.118   6.662   1.467 -0.2599 -0.8108  0.6462
11200TIP3    H255092   1.058   6.690   1.331  0.6607  0.3291  0.4640
11201TIP3   OH255093   1.239   5.653  13.143 -0.2973  0.4067  0.5914
11201TIP3    H155094   1.180   5.634  13.216  2.4062 -2.8328  2.2305
11201TIP3    H255095   1.215   5.589  13.076  0.7457 -0.3962  0.9540
11202TIP3   OH255096   2.731   6.659   1.707  0.0785  0.4817 -0.5234
11202TIP3    H155097   2.823   6.671   1.731  0.1315  2.8561 -1.6321
11202TIP3    H255098   2.685   6.652   1.791  1.3644 -2.3185  0.0456
11203TIP3   OH255099   5.435   2.308  11.472 -0.4136  0.0280  0.4779
11203TIP3    H155100   5.412   2.298  11.379  2.7140  1.6380 -0.6042
11203TIP3    H255101   5.442   2.218  11.504  0.6229 -0.6569 -1.4842
11204TIP3   OH255102   0.490   4.761  11.344  0.0043  0.0926  0.1702
11204TIP3    H155103   0.453   4.734  11.261  0.3066  0.8358 -0.2141
11204TIP3    H255104   0.582   4.734  11.339 -0.2237 -0.8116  0.6974
11205TIP3   OH255105   3.493   1.810   1.773  0.3790 -0.1760  0.0762
11205TIP3    H155106   3.509   1.814   1.679  2.4160  0.9512  0.4151
11205TIP3    H255107   3.502   1.717   1.795  1.8668 -0.2127 -0.5658
11206TIP3   OH255108   0.538   1.847  17.016 -0.0638  0.3277  0.4487
11206TIP3    H155109   0.456   1.835  17.064  0.3821 -0.0088  1.1449
11206TIP3    H255110   0.588   1.910  17.068  0.0720  0.6217 -0.0320
11207TIP3   OH255111   3.115   3.203  14.356  0.3715  0.5978  0.0075
11207TIP3    H155112   3.182   3.216  14.289 -0.2595 -2.4412 -1.4050
11207TIP3    H255113   3.164   3.192  14.438  1.7175 -1.7326 -1.0200
11208TIP3   OH255114   3.046   6.595  13.305  0.4794 -0.4290 -0.4363
11208TIP3    H155115   3.114   6.562  13.245 -1.0469 -1.6772 -1.5672
11208TIP3    H255116   3.080   6.679  13.334  1.8903 -0.3635 -2.0531
11209TIP3   OH255117   0.313   6.714  11.472  0.5543 -0.7443  0.0642
11209TIP3    H155118   0.378   6.785  11.478  0.5926 -0.7678 -0.0851
11209TIP3    H255119   0.347   6.645  11.529  0.3224 -0.4877  0.5220
11210TIP3   OH255120   4.263   0.214  15.500 -0.2405 -0.6463  0.2420
11210TIP3    H155121   4.333   0.158  15.466  0.0707 -0.5890  0.7857
11210TIP3    H255122   4.287   0.230  15.591  0.8247  2.0556 -0.3934
11211TIP3   OH255123   1.906   3.996   0.338  0.4602 -0.2851  0.2440
11211TIP3    H155124   1.818   3.971   0.364 -0.2559 -0.5876 -2.1747
11211TIP3    H255125   1.901   4.089   0.317  0.8520 -0.1848  0.5707
11212TIP3   OH255126   2.590   4.579   0.656  0.0457  0.0586  0.2433
11212TIP3    H155127   2.604   4.490   0.686 -0.2969 -0.4730 -1.1196
11212TIP3    H255128   2.495   4.591   0.659 -0.0547 -0.2236 -1.1640
11213TIP3   OH255129   2.010   2.264  15.691  0.1702  0.1542 -0.6056
11213TIP3    H155130   2.103   2.288  15.695  0.0896  1.2126 -2.9626
11213TIP3    H255131   1.965   2.348  15.686 -0.5914 -0.3150 -3.0538
11214TIP3   OH255132   2.400   4.111   1.557  0.0178 -0.2016  0.2917
11214TIP3    H155133   2.494   4.114   1.580  0.0829 -1.8816  0.3520
11214TIP3    H255134   2.398   4.119   1.462  0.2459 -0.4030  0.2688
11215TIP3   OH255135   0.748   1.997  14.744 -0.0978  0.4349 -0.5010
11215TIP3    H155136   0.782   2.085  14.727  2.4687 -0.6782 -1.5966
11215TIP3    H255137   0.783   1.974  14.829  0.7643 -0.1889 -1.0135
11216TIP3   OH255138   0.617   5.396   6.003  0.5242  0.2995 -0.1990
11216TIP3    H155139   0.598   5.400   5.910 -0.1402  0.4062 -0.0607
11216TIP3    H255140   0.707   5.428   6.011  1.0720 -0.9741 -0.9487
11217TIP3   OH255141   4.220   0.317  13.450  0.2549  0.0032 -0.2896
11217TIP3    H155142   4.240   0.275  13.533  0.1090  0.6695  0.0904
11217TIP3    H255143   4.163   0.255  13.405  0.9386 -0.6907 -0.2197
11218TIP3   OH255144   4.692   4.972  12.370  0.0125 -0.8752 -0.6103
11218TIP3    H155145   4.787   4.965  12.380 -0.0776 -0.3693  0.7889
11218TIP3    H255146   4.659   4.889  12.405 -0.2289  0.3793  2.4252
11219TIP3   OH255147   2.122   1.972   3.932 -0.9470  0.6071 -0.3798
11219TIP3    H155148   2.130   2.065   3.954 -1.8856  1.0528 -1.7893
11219TIP3    H255149   2.090   1.931   4.013  0.4021  1.3188  0.5547
11220TIP3   OH255150   5.657   4.804  13.139 -0.0271  0.3612 -0.3761
11220TIP3    H155151   5.710   4.865  13.190 -1.1365  0.7655  0.3457
11220TIP3    H255152   5.580   4.855  13.113  0.0548 -0.1292 -1.6259
11221TIP3   OH255153   3.268   2.333  11.590  0.4112 -0.1920  0.3472
11221TIP3    H155154   3.358   2.337  11.557  0.6578 -1.8530  0.7246
11221TIP3    H255155   3.215   2.313  11.513  0.5282 -0.4654  0.3363
11222TIP3   OH255156   3.730   4.492   4.506  0.1971 -0.0230 -0.3033
11222TIP3    H155157   3.679   4.574   4.504 -0.9802 -0.7299 -2.1059
11222TIP3    H255158   3.664   4.423   4.511  1.1968 -0.9289  2.3469
11223TIP3   OH255159   1.015   5.739   5.027 -0.3310  0.2491  1.1268
11223TIP3    H155160   0.979   5.813   5.075  0.2272  1.6160 -0.4728
11223TIP3    H255161   0.954   5.726   4.954  0.5398  0.3039  0.3793
11224TIP3   OH255162   2.517   2.737   0.318  0.1770  0.2353 -0.2002
11224TIP3    H155163   2.485   2.804   0.378 -0.1446 -0.7231  0.7382
11224TIP3    H255164   2.450   2.731   0.250 -1.0561 -0.8468  1.0521
11225TIP3   OH255165   1.375   1.696  10.923 -0.2107 -0.0759 -0.7448
11225TIP3    H155166   1.368   1.687  10.828  1.8384  0.6737 -1.0281
11225TIP3    H255167   1.301   1.751  10.948 -0.9947 -0.6016 -1.8352
11226TIP3   OH255168   1.944   2.919  13.074  0.1994 -0.8154 -0.3331
11226TIP3    H155169   1.857   2.878  13.070  0.5377 -1.4939 -1.0681
11226TIP3    H255170   1.927   3.008  13.104 -0.9743 -0.3777 -2.1422
11227TIP3   OH255171   3.833   5.279   5.096 -0.1973  0.0219  0.4654
11227TIP3    H155172   3.782   5.257   5.018 -2.7071  1.9140  1.4614
11227TIP3    H255173   3.842   5.196   5.143 -0.1941 -0.8082 -0.9586
11228TIP3   OH255174   2.764   6.156  10.740  0.1220  0.0084 -0.6429
11228TIP3    H155175   2.738   6.217  10.671  0.2760 -1.4059 -2.0177
11228TIP3    H255176   2.847   6.120  10.710  1.1424  0.7178  1.2258
11229TIP3   OH255177   3.201   1.227   0.172 -0.8253 -0.9186  0.0130
11229TIP3    H155178   3.247   1.301   0.131 -2.3401  0.9631  1.5177
11229TIP3    H255179   3.268   1.159   0.179  1.3151  1.1031  0.6292
11230TIP3   OH255180   3.079   5.310   3.251 -0.5271 -0.6959  0.0251
11230TIP3    H155181   3.001   5.257   3.234 -0.5766 -1.0978  1.4132
11230TIP3    H255182   3.131   5.256   3.311  0.1487  0.1850  0.2388
11231TIP3   OH255183   4.300   5.950  10.881 -0.6024  0.0104 -0.3332
11231TIP3    H155184   4.369   5.994  10.831  1.1091 -1.1524  0.8633
11231TIP3    H255185   4.275   5.875  10.826  1.0708 -1.1048  0.3503
11232TIP3   OH255186   1.582   2.294  14.572 -0.3364  0.1329 -0.0255
11232TIP3    H155187   1.666   2.256  14.547 -0.7626  0.0852 -1.5023
11232TIP3    H255188   1.589   2.308  14.666  1.1656 -0.2506 -0.0501
11233TIP3   OH255189   1.971   3.855   3.792  0.2658  0.4138  0.7499
11233TIP3    H155190   1.976   3.766   3.828  2.4175  1.3876  3.2680
11233TIP3    H255191   1.927   3.906   3.861 -2.4591  1.0921 -1.3456
11234TIP3   OH255192   5.912   4.250  15.892  0.2575 -0.0691  0.4572
11234TIP3    H155193   5.948   4.297  15.818 -0.0887  0.4806  0.6346
11234TIP3    H255194   5.875   4.170  15.854 -0.4476  0.4875 -0.0427
11235TIP3   OH255195   1.728   1.289  12.040  0.1845 -0.6655  0.2178
11235TIP3    H155196   1.819   1.303  12.065  0.2628 -0.9353  0.0874
11235TIP3    H255197   1.707   1.202  12.073 -0.3581 -0.1842  1.1993
11236TIP3   OH255198   1.010   1.196  12.739  0.4204 -0.2407  0.3081
11236TIP3    H155199   1.020   1.108  12.776  1.0950 -0.2539  0.1186
11236TIP3    H255200   1.026   1.184  12.645 -0.1528 -0.0242  0.1823
11237TIP3   OH255201   0.437   3.495  11.369 -0.3438  0.1201  0.1377
11237TIP3    H155202   0.425   3.578  11.415 -1.3233 -0.9144  1.8727
11237TIP3    H255203   0.369   3.437  11.406 -1.2043 -0.8051 -2.6510
11238TIP3   OH255204   1.583   4.737   1.966  0.2040 -0.5561 -0.4416
11238TIP3    H155205   1.490   4.738   1.942  0.0449 -1.6985  0.0432
11238TIP3    H255206   1.590   4.802   2.036 -0.7806 -2.1918  1.2660
11239TIP3   OH255207   5.508   0.630   0.708  0.3865  0.2017 -0.2266
11239TIP3    H155208   5.415   0.643   0.727 -0.0436 -1.1492 -1.2750
11239TIP3    H255209   5.546   0.717   0.716 -0.8343  0.6633  0.9021
11240TIP3   OH255210   6.186   2.221  13.445  0.1272  0.0857 -0.4407
11240TIP3    H155211   6.109   2.182  13.487 -0.9892  0.8461 -1.6954
11240TIP3    H255212   6.200   2.168  13.366  3.2440 -2.4263  1.5239
11241TIP3   OH255213   3.980   1.902   6.346 -0.4419 -0.3528  0.4747
11241TIP3    H155214   3.911   1.962   6.375  0.0298 -1.2683  3.9539
11241TIP3    H255215   4.061   1.945   6.371  0.0109 -1.3275  0.7024
11242TIP3   OH255216   5.833   4.131   5.534  0.1170 -0.1631 -0.0556
11242TIP3    H155217   5.783   4.189   5.591  0.0400  0.0710 -0.3548
11242TIP3    H255218   5.767   4.077   5.490  0.0639  0.6243 -0.9745
11243TIP3   OH255219   3.528   0.575  11.350 -0.1523 -0.1899 -0.6525
11243TIP3    H155220   3.603   0.565  11.409 -2.1939  1.3175  2.4880
11243TIP3    H255221   3.493   0.662  11.371 -2.1914 -0.3955 -2.7802
11244TIP3   OH255222   4.566   4.069   1.777  0.3409  0.2952 -0.1735
11244TIP3    H155223   4.503   4.137   1.799  2.2614  1.5852  1.7781
11244TIP3    H255224   4.515   3.989   1.769 -1.6418  1.4630  0.2723
11245TIP3   OH255225   0.523   0.275  12.766 -0.8372  0.3594  0.5336
11245TIP3    H155226   0.581   0.309  12.833 -1.2198 -2.4394  2.5067
11245TIP3    H255227   0.577   0.267  12.687  0.1659  1.8851  1.0367
11246TIP3   OH255228   2.327   2.199  10.657  0.1681  0.2642 -0.3852
11246TIP3    H155229   2.234   2.218  10.671  0.3259  0.3284  0.6038
11246TIP3    H255230   2.339   2.110  10.691  0.6332  0.5627  0.2442
11247TIP3   OH255231   6.615   5.067   4.840 -0.3549  0.7280 -1.0820
11247TIP3    H155232   6.693   5.088   4.789  1.5599  0.6628  1.5664
11247TIP3    H255233   6.575   5.151   4.860  0.3967  0.9771 -0.5638
11248TIP3   OH255234   1.541   1.354  10.994 -0.3061  0.2922 -0.1838
11248TIP3    H155235   1.542   1.352  10.898  2.9948 -1.7082 -0.2735
11248TIP3    H255236   1.491   1.277  11.019 -1.2930  0.8947 -0.2545
11249TIP3   OH255237   5.278   4.792  13.593 -0.1753  0.2524 -0.3224
11249TIP3    H155238   5.241   4.843  13.665 -0.8555 -0.9828  0.2416
11249TIP3    H255239   5.285   4.853  13.520 -1.4176  1.0264  0.1877
11250TIP3   OH255240   2.705   6.617  15.929  0.2344 -0.0874  0.5329
11250TIP3    H155241   2.782   6.563  15.944  1.4436  0.9461 -1.4884
11250TIP3    H255242   2.723   6.662  15.846 -3.3436 -1.1787 -1.0362
11251TIP3   OH255243   6.295   3.903   0.564 -0.0606 -0.3246  0.1343
11251TIP3    H155244   6.341   3.847   0.627 -0.6850 -0.5599  0.3857
11251TIP3    H255245   6.291   3.989   0.606 -0.5022 -0.4887  0.4280
11252TIP3   OH255246   6.321   3.766   5.888  0.3392  0.1248  0.0547
11252TIP3    H155247   6.259   3.700   5.920 -0.9820  1.1729 -0.2305
11252TIP3    H255248   6.358   3.727   5.808 -0.0270 -0.4930  0.1777
11253TIP3   OH255249   4.069   3.112   5.838 -0.6617 -0.3103  0.1748
11253TIP3    H155250   4.142   3.165   5.869 -1.6863  0.8231  0.7393
11253TIP3    H255251   4.102   3.070   5.758  0.7821 -0.2940  0.7351
11254TIP3   OH255252   6.534   0.842  11.629  0.2575 -0.2847 -0.0242
11254TIP3    H155253   6.562   0.895  11.704  2.9174 -1.5375 -0.0127
11254TIP3    H255254   6.480   0.774  11.668 -0.0248  0.2041  0.4693
11255TIP3   OH255255   0.426   0.097   2.335 -0.1167  0.2221  0.0582
11255TIP3    H155256   0.430   0.192   2.324 -0.2504  0.4651  1.9057
11255TIP3    H255257   0.509   0.065   2.300 -0.2564  0.9532 -0.9874
11256TIP3   OH255258   4.817   3.732  13.332 -0.0539  0.4015  0.2532
11256TIP3    H155259   4.879   3.684  13.386 -2.6517 -1.3955  1.9027
11256TIP3    H255260   4.740   3.744  13.389 -1.1908  2.6658 -1.5708
11257TIP3   OH255261   1.396   1.529  12.309  0.3485 -0.6502  0.3297
11257TIP3    H155262   1.305   1.515  12.338  0.9136  0.6183  3.0824
11257TIP3    H255263   1.409   1.464  12.240 -2.7077 -0.7289 -0.3434
11258TIP3   OH255264   5.806   4.399   1.754 -0.0542  0.2900  0.2120
11258TIP3    H155265   5.746   4.414   1.682 -0.9293 -0.3335  0.7819
11258TIP3    H255266   5.750   4.370   1.826  0.8007  0.8292  1.1225
11259TIP3   OH255267   4.485   2.448  17.085 -0.0232  0.7107 -0.0409
11259TIP3    H155268   4.532   2.528  17.107  0.5157 -0.1257  2.0889
11259TIP3    H255269   4.525   2.380  17.139 -0.2382 -1.1165 -2.0129
11260TIP3   OH255270   3.828   5.674  14.455  0.4519 -0.2126 -0.3310
11260TIP3    H155271   3.738   5.674  14.488  0.5830  1.6434  0.1758
11260TIP3    H255272   3.834   5.595  14.402 -0.5000 -2.0746  2.1705
11261TIP3   OH255273   0.243   1.068  16.229 -0.1169 -0.3340 -0.2080
11261TIP3    H155274   0.221   1.137  16.167  2.9056  1.4775  0.5015
11261TIP3    H255275   0.302   1.009  16.180  0.2256 -0.3451  0.2115
11262TIP3   OH255276   2.561   2.355  12.317  0.3285  0.1237  0.2131
11262TIP3    H155277   2.476   2.390  12.290  1.0937  1.5438 -0.5119
11262TIP3    H255278   2.587   2.297  12.246  1.4675  2.3614 -1.3030
11263TIP3   OH255279   3.502   0.329  12.545 -0.0259  0.0537  0.2709
11263TIP3    H155280   3.580   0.298  12.592  0.7484  0.8549 -0.4564
11263TIP3    H255281   3.471   0.403  12.597 -1.2078 -1.1482  1.3757
11264TIP3   OH255282   0.095   0.094   1.584  0.0747 -0.2891 -0.7227
11264TIP3    H155283   0.031   0.047   1.531  1.2757 -2.6636 -0.1977
11264TIP3    H255284   0.063   0.087   1.673 -0.1076  0.5583 -0.7143
11265TIP3   OH255285   3.857   0.594   5.207  0.3603  0.1960  0.1688
11265TIP3    H155286   3.935   0.538   5.207  0.1575 -0.1089  1.1107
11265TIP3    H255287   3.789   0.540   5.168 -0.2142 -0.8284  2.4000
11266TIP3   OH255288   6.680   5.851   0.622 -0.9031  0.4994  0.3349
11266TIP3    H155289   6.643   5.767   0.646  0.6024 -0.3596 -0.1832
11266TIP3    H255290   6.660   5.909   0.696 -2.0463 -0.2637  0.6440
11267TIP3   OH255291   1.667   3.479   4.532  0.2358 -0.5133 -0.0324
11267TIP3    H155292   1.608   3.457   4.460 -1.2335  1.9402  0.2896
11267TIP3    H255293   1.737   3.530   4.492  0.6891 -1.1337 -0.0362
11268TIP3   OH255294   6.626   5.335  10.727 -0.3550  0.2078  0.0678
11268TIP3    H155295   6.560   5.351  10.659 -0.5823 -0.0230  0.2307
11268TIP3    H255296   6.686   5.409  10.720 -0.2338  0.0614 -0.5512
11269TIP3   OH255297   5.555   1.793  14.949  0.0694  0.6211 -0.0267
11269TIP3    H155298   5.556   1.859  15.018  3.0515  1.4215 -0.6655
11269TIP3    H255299   5.551   1.709  14.996  0.7288  1.1820  1.0713
11270TIP3   OH255300   5.330   3.930  12.437 -0.0653 -0.2745  0.2060
11270TIP3    H155301   5.383   3.880  12.374  0.0706 -0.5295  0.5191
11270TIP3    H255302   5.374   4.015  12.443  0.3230 -0.4911  0.4795
11271TIP3   OH255303   6.598   0.933  14.368 -0.6732 -0.0981 -0.1873
11271TIP3    H155304   6.597   1.020  14.407 -0.8423 -0.1255 -0.1345
11271TIP3    H255305   6.592   0.873  14.442 -2.4276 -0.1390 -0.3332
11272TIP3   OH255306   5.953   0.383  12.506  0.2662 -0.3298  0.5632
11272TIP3    H155307   5.912   0.468  12.493 -0.3089 -0.4515  1.5251
11272TIP3    H255308   5.885   0.319  12.485  0.0298 -0.5330  1.8539
11273TIP3   OH255309   3.763   4.481   4.230  0.6244  0.5190  0.4732
11273TIP3    H155310   3.769   4.475   4.325  0.9031  1.2070  0.5014
11273TIP3    H255311   3.669   4.476   4.211  0.6672 -1.8158  0.6163
11274TIP3   OH255312   6.213   5.206   3.798  0.0175 -0.2726  0.1230
11274TIP3    H155313   6.275   5.141   3.833 -0.1151  0.1037  1.1021
11274TIP3    H255314   6.129   5.160   3.797 -0.0183 -0.2261  0.5267
11275TIP3   OH255315   0.433   4.094   3.366 -0.0211  0.1794 -0.0359
11275TIP3    H155316   0.454   4.156   3.436  2.0104  0.0891 -0.5029
11275TIP3    H255317   0.433   4.008   3.408 -1.9642  0.3574  0.4332
11276TIP3   OH255318   2.304   6.138   3.048  0.2993  0.6041  0.0797
11276TIP3    H155319   2.303   6.048   3.082  1.1692  0.5278 -0.0480
11276TIP3    H255320   2.215   6.154   3.018  0.2691 -0.4544 -0.4608
11277TIP3   OH255321   6.468   2.538   4.024 -0.2386  0.1174  0.3727
11277TIP3    H155322   6.413   2.466   3.994 -1.0062  1.4197 -1.5440
11277TIP3    H255323   6.496   2.582   3.944  3.9065 -0.6109  1.2010
11278TIP3   OH255324   3.668   5.048   6.344 -0.5006 -0.0498  0.4958
11278TIP3    H155325   3.731   5.099   6.395 -0.4776  1.8655 -1.3286
11278TIP3    H255326   3.603   5.111   6.316 -3.1074 -1.9039  1.9365
11279TIP3   OH255327   2.241   0.349   5.553 -0.1191 -0.6627  0.3547
11279TIP3    H155328   2.323   0.351   5.503 -0.6820 -0.0672 -0.5599
11279TIP3    H255329   2.247   0.268   5.604  2.3021  0.6983  2.4744
11280TIP3   OH255330   3.722   0.877  16.949 -0.1887 -0.6681 -0.7630
11280TIP3    H155331   3.650   0.854  16.891 -0.8880 -0.9046  0.1809
11280TIP3    H255332   3.800   0.871  16.893 -0.6076 -2.8724 -1.1984
11281TIP3   OH255333   2.782   2.882   0.529 -0.2592  0.0251 -0.2997
11281TIP3    H155334   2.731   2.953   0.489  0.5278 -1.4246 -4.4620
11281TIP3    H255335   2.716   2.817   0.554 -0.7876  0.8969  0.6452
11282TIP3   OH255336   4.245   2.845  11.810  0.0497 -0.3599 -0.2856
11282TIP3    H155337   4.228   2.861  11.903 -0.9219 -0.4937 -0.4297
11282TIP3    H255338   4.237   2.751  11.800 -0.8298 -0.2493 -0.6863
11283TIP3   OH255339   1.920   0.619  11.421 -0.4211  0.8951 -0.1988
11283TIP3    H155340   1.891   0.699  11.465  1.1987  0.8165  1.1219
11283TIP3    H255341   1.977   0.651  11.350 -1.0516  0.9490 -0.6860
11284TIP3   OH255342   2.746   0.046  13.052 -0.0586 -0.1755  0.0622
11284TIP3    H155343   2.794  -0.019  13.102  0.4142 -0.5491 -0.8409
11284TIP3    H255344   2.792   0.050  12.968 -2.0453 -1.1177 -1.1438
11285TIP3   OH255345   2.154   1.344  11.621 -0.5060  0.0540  0.2897
11285TIP3    H155346   2.231   1.363  11.569 -0.5038  0.8576  0.5750
11285TIP3    H255347   2.169   1.256  11.655  0.7536  0.5863  1.1653
11286TIP3   OH255348   3.659   0.811   2.440  0.6361  0.4260 -0.2572
11286TIP3    H155349   3.576   0.857   2.451 -0.5954 -1.6192 -0.4471
11286TIP3    H255350   3.658   0.744   2.508  0.5797 -1.6974 -2.2223
11287TIP3   OH255351   0.342   1.892   2.965 -0.3361  0.6619 -0.2077
11287TIP3    H155352   0.280   1.819   2.961  0.1086  0.3298 -1.9001
11287TIP3    H255353   0.411   1.869   2.903  0.8895  1.5833  0.7449
11288TIP3   OH255354   4.544   0.505  13.717  0.9870 -0.1836  0.0474
11288TIP3    H155355   4.505   0.459  13.643  0.3491  1.8837 -0.9630
11288TIP3    H255356   4.532   0.598  13.697  1.1613  0.4517  2.5485
11289TIP3   OH255357   3.034   4.574  11.317 -0.0018  0.2058  0.4280
11289TIP3    H155358   3.096   4.614  11.378 -0.0527  1.3473 -0.2254
11289TIP3    H255359   2.994   4.502  11.366  1.7800 -0.5279  0.8902
11290TIP3   OH255360   1.289   2.734   0.906  0.2828  0.6091  0.3082
11290TIP3    H155361   1.241   2.657   0.938  0.9436  1.0084  2.4182
11290TIP3    H255362   1.230   2.807   0.921 -1.2780  0.4177 -3.7719
11291TIP3   OH255363   3.500   5.133  13.478  0.2577  0.5712 -0.4890
11291TIP3    H155364   3.538   5.174  13.400  1.6481  1.7843  0.7560
11291TIP3    H255365   3.498   5.203  13.543  0.1780 -0.6786  0.8991
11292TIP3   OH255366   5.019   0.367  15.773  0.1638  0.3112  0.1898
11292TIP3    H155367   4.949   0.358  15.708  0.5367  0.1838 -0.1956
11292TIP3    H255368   5.074   0.437  15.738  2.2771 -2.0116 -1.3818
11293TIP3   OH255369   4.329   5.446  10.318  0.0486  0.1366  0.4808
11293TIP3    H155370   4.330   5.535  10.354  1.5428 -0.0316  0.9150
11293TIP3    H255371   4.248   5.442  10.267 -1.3336  0.9303  2.4561
11294TIP3   OH255372   5.957   5.952  13.793 -0.6674  0.1114  0.1619
11294TIP3    H155373   5.916   5.961  13.879 -0.7255 -3.3738  0.6283
11294TIP3    H255374   6.042   5.995  13.802 -0.2795 -0.9697  2.3236
11295TIP3   OH255375   6.062   3.837   0.804 -0.2126  0.5570 -0.0707
11295TIP3    H155376   6.001   3.906   0.776 -0.2247  0.2479 -0.8097
11295TIP3    H255377   6.114   3.878   0.873  0.0341  1.4284 -0.7637
11296TIP3   OH255378   4.315   0.825   2.294  0.1504 -0.3706  0.0804
11296TIP3    H155379   4.334   0.844   2.202 -0.1109 -0.3450  0.0300
11296TIP3    H255380   4.399   0.836   2.338  0.4796 -1.3147 -0.2981
11297TIP3   OH255381   0.538   4.032  12.105  0.0300  0.1153  1.1723
11297TIP3    H155382   0.486   3.994  12.035  0.0964  1.2564  0.4692
11297TIP3    H255383   0.523   4.127  12.098  0.3323  0.2895  2.4600
11298TIP3   OH255384   5.140   2.399  13.077 -0.1894  0.4482 -0.0274
11298TIP3    H155385   5.226   2.358  13.084  0.0712  1.1709  1.2188
11298TIP3    H255386   5.157   2.485  13.040 -0.4288  0.4171 -0.2089
11299TIP3   OH255387   5.993   6.811  15.738 -0.0920  0.4306  0.2292
11299TIP3    H155388   5.988   6.873  15.666 -0.9055 -0.0973 -0.1826
11299TIP3    H255389   5.914   6.758  15.729 -0.8484  1.1208  2.2050
11300TIP3   OH255390   2.815   4.965  13.260  0.0143  0.4700 -0.0925
11300TIP3    H155391   2.813   4.936  13.169 -0.0246  1.7134 -0.5036
11300TIP3    H255392   2.850   5.054  13.257 -1.1364  1.0044  0.9659
11301TIP3   OH255393   4.617   5.038   5.211 -0.3953 -0.2087 -0.2646
11301TIP3    H155394   4.562   5.014   5.285  0.0555 -0.0619  0.1187
11301TIP3    H255395   4.626   5.133   5.217 -1.7710  0.0466 -1.4966
11302TIP3   OH255396   2.947   6.166   5.507 -0.2136 -0.2991  0.3530
11302TIP3    H155397   2.985   6.111   5.439 -0.2309 -0.4455  0.4619
11302TIP3    H255398   3.021   6.188   5.564 -0.3684 -0.9384  0.8082
11303TIP3   OH255399   1.839   6.239  11.395  0.1497  0.1927  0.4650
11303TIP3    H155400   1.884   6.281  11.469 -0.2166 -1.0158  1.4086
11303TIP3    H255401   1.908   6.222  11.331  0.7089  0.0277  1.1088
11304TIP3   OH255402   1.545   6.407   3.265  0.2801  0.1707  0.4359
11304TIP3    H155403   1.516   6.497   3.254 -0.3094  0.0385  0.8669
11304TIP3    H255404   1.581   6.404   3.354 -0.8684 -0.3167  0.9082
11305TIP3   OH255405   3.502   5.449  12.591  0.1700  0.4399 -0.2088
11305TIP3    H155406   3.464   5.434  12.505  1.1750  0.0559 -0.5972
11305TIP3    H255407   3.597   5.453  12.576  0.3264  0.9886  0.7866
11306TIP3   OH255408   2.354   6.221  17.211 -0.0789  0.0260  1.0551
11306TIP3    H155409   2.322   6.276  17.140  0.6175  0.8601  1.3693
11306TIP3    H255410   2.445   6.248  17.223  0.3565 -1.3954  1.0398
11307TIP3   OH255411   1.158   2.509  12.460  0.1667  0.1036 -0.3314
11307TIP3    H155412   1.183   2.426  12.420  0.1767  0.0604 -0.2360
11307TIP3    H255413   1.063   2.506  12.467  0.1779  0.0441 -0.2050
11308TIP3   OH255414   0.523   1.509  15.748  0.1548 -0.2585  0.4986
11308TIP3    H155415   0.503   1.602  15.739  0.1178 -0.2235  0.9215
11308TIP3    H255416   0.618   1.505  15.760  0.4461 -0.4271 -1.5407
11309TIP3   OH255417   6.019   2.112  12.095  0.1253  0.0438  0.1168
11309TIP3    H155418   6.051   2.174  12.160 -0.8423  1.3959 -0.6410
11309TIP3    H255419   6.085   2.112  12.026  1.4503 -1.8399  1.2914
11310TIP3   OH255420   0.456   0.692   1.738  0.2021  0.6522  0.2606
11310TIP3    H155421   0.511   0.770   1.751  0.4094  0.6035 -0.2927
11310TIP3    H255422   0.485   0.656   1.654 -0.2190  0.2443  0.2855
11311TIP3   OH255423   3.284   2.801   1.009  0.0507  0.0205 -0.5966
11311TIP3    H155424   3.229   2.794   0.931 -1.3636 -1.4344  0.4793
11311TIP3    H255425   3.372   2.778   0.979 -0.1047  1.2713 -2.1109
11312TIP3   OH255426   0.864   0.002  13.529  0.1906  0.0666 -0.5336
11312TIP3    H155427   0.869   0.007  13.625  2.0410  1.3160 -0.6361
11312TIP3    H255428   0.791   0.060  13.506  0.8186  1.1198  0.0516
11313TIP3   OH255429   3.839   2.677  12.520 -0.3256  0.2624 -0.3249
11313TIP3    H155430   3.850   2.692  12.614 -0.5712  2.6016 -0.6069
11313TIP3    H255431   3.926   2.687  12.484 -0.1891 -0.8767 -0.3545
11314TIP3   OH255432   2.710   4.087  14.103  0.4134  0.0971  0.4992
11314TIP3    H155433   2.727   4.171  14.060  1.7633 -0.8442 -0.9012
11314TIP3    H255434   2.792   4.039  14.094 -0.7826 -1.9297 -0.0082
11315TIP3   OH255435   3.366   6.623   2.433 -0.5717  0.2999  0.3793
11315TIP3    H155436   3.376   6.713   2.462 -0.5770  0.7645 -1.0013
11315TIP3    H255437   3.369   6.571   2.514 -1.6149  1.6055  1.2931
11316TIP3   OH255438   1.804   0.422  17.054 -0.2995  0.1649 -0.2306
11316TIP3    H155439   1.720   0.460  17.079  0.0460  0.8069 -0.0326
11316TIP3    H255440   1.817   0.350  17.117 -1.8319 -1.5451 -1.7563
11317TIP3   OH255441   6.263   6.444  16.076  0.5186 -0.1238 -0.4030
11317TIP3    H155442   6.256   6.529  16.034  1.2271  0.0586 -0.1646
11317TIP3    H255443   6.265   6.464  16.170  0.7488 -0.3984 -0.3489
11318TIP3   OH255444   4.663   0.210  15.014 -0.2765 -0.8291  0.4442
11318TIP3    H155445   4.620   0.245  14.935 -0.3946  0.0213  0.8733
11318TIP3    H255446   4.679   0.287  15.069 -1.3506 -1.5323  1.8191
11319TIP3   OH255447   0.544   2.810  11.669  0.3726  0.7075  0.1340
11319TIP3    H155448   0.527   2.901  11.643 -2.6581  0.2611  0.1410
11319TIP3    H255449   0.520   2.759  11.592 -1.6573 -0.2251  1.2902
11320TIP3   OH255450   5.301   3.021  11.266 -0.0326 -0.2723  0.4160
11320TIP3    H155451   5.212   3.005  11.296 -0.3482  0.2063 -0.2401
11320TIP3    H255452   5.295   3.018  11.170  1.0790 -2.4663  0.3554
11321TIP3   OH255453   2.662   1.577  15.231  0.7959  0.3741 -0.1605
11321TIP3    H155454   2.646   1.514  15.301 -0.2818  1.4661  0.6155
11321TIP3    H255455   2.582   1.630  15.227  1.1870  0.9100 -1.6191
11322TIP3   OH255456   5.600   5.473  16.340  0.3555 -0.2504 -0.0599
11322TIP3    H155457   5.649   5.429  16.271 -0.7320 -0.2718 -0.8560
11322TIP3    H255458   5.534   5.409  16.368  0.7856 -0.2405  1.0129
11323TIP3   OH255459   5.349   0.229  14.894 -0.3058 -0.2676 -0.5664
11323TIP3    H155460   5.310   0.314  14.914  2.4842  1.0190 -0.1583
11323TIP3    H255461   5.404   0.245  14.817 -0.5411 -1.9805 -1.1449
11324TIP3   OH255462   1.337   5.940   6.211  0.1036  0.5299 -0.0920
11324TIP3    H155463   1.329   5.876   6.282 -2.5481 -1.1978 -1.8010
11324TIP3    H255464   1.284   6.014   6.240 -1.4688 -0.4118 -0.4342
11325TIP3   OH255465   1.055   2.622  12.869  0.4008 -0.2418 -0.5438
11325TIP3    H155466   1.112   2.652  12.798 -0.9460 -1.1887 -2.0997
11325TIP3    H255467   1.004   2.700  12.892  0.5245 -0.0360 -0.9454
11326TIP3   OH255468   4.828   1.317   1.979  0.8790 -0.0887 -0.1783
11326TIP3    H155469   4.793   1.228   1.979 -0.5750  0.4501 -1.2305
11326TIP3    H255470   4.911   1.310   1.932  0.2300 -0.7180 -1.2664
11327TIP3   OH255471   3.147   3.936  14.292  0.0118 -0.3044  0.1501
11327TIP3    H155472   3.236   3.913  14.319  0.7695  2.0570 -0.1574
11327TIP3    H255473   3.133   4.024  14.327 -1.5461  0.0599 -1.2783
11328TIP3   OH255474   1.539   3.418   2.413 -0.2233 -0.0974 -0.0823
11328TIP3    H155475   1.611   3.456   2.463  0.1416 -1.6915  0.6895
11328TIP3    H255476   1.582   3.361   2.349 -0.7552 -0.7574  0.1299
11329TIP3   OH255477   1.687   6.396   4.917  0.0073  0.0890  0.1413
11329TIP3    H155478   1.621   6.433   4.858 -1.6561 -0.3329  1.6261
11329TIP3    H255479   1.720   6.472   4.965  0.2304  0.2425 -0.2502
11330TIP3   OH255480   1.696   5.569  14.631  0.5389  0.6306 -0.3007
11330TIP3    H155481   1.611   5.567  14.587 -0.3119  0.2628  1.2940
11330TIP3    H255482   1.752   5.621  14.573 -0.3979 -0.1909 -2.0072
11331TIP3   OH255483   3.107   4.718  11.906  0.4000 -0.1176 -0.4055
11331TIP3    H155484   3.060   4.638  11.883  1.3372 -0.2939 -1.8083
11331TIP3    H255485   3.187   4.687  11.949  0.1360  0.1217  0.2707
11332TIP3   OH255486   4.567   5.781  13.340  0.2981  0.2883  0.1269
11332TIP3    H155487   4.507   5.762  13.267 -0.8639 -0.3147  1.2074
11332TIP3    H255488   4.582   5.697  13.382  1.5523  0.5140  0.1758
11333TIP3   OH255489   1.727   5.939  16.213  0.0504  0.3617 -0.2885
11333TIP3    H155490   1.646   5.888  16.214  0.3303 -0.0939  0.2772
11333TIP3    H255491   1.794   5.877  16.244  0.5095  0.8919 -0.2069
11334TIP3   OH255492   3.357   4.263   3.324  0.4864 -0.0950 -0.2500
11334TIP3    H155493   3.383   4.323   3.394 -0.0367 -0.7877  0.5579
11334TIP3    H255494   3.410   4.289   3.249  0.4767  1.1905  0.1627
11335TIP3   OH255495   3.689   5.283   0.232 -0.0304 -0.5134  0.5500
11335TIP3    H155496   3.746   5.294   0.156 -0.3416 -0.2279  0.3587
11335TIP3    H255497   3.656   5.370   0.251 -0.2745 -0.6489  0.7646
11336TIP3   OH255498   1.861   1.023   3.115 -0.1101  0.1384 -0.7822
11336TIP3    H155499   1.771   1.055   3.126 -0.4194 -0.1963 -2.1993
11336TIP3    H255500   1.903   1.042   3.199 -1.4956  0.3009 -0.0939
11337TIP3   OH255501   2.942   2.138  12.249  0.5475 -0.1242  0.1436
11337TIP3    H155502   2.977   2.226  12.254 -1.8904  0.9772 -0.5825
11337TIP3    H255503   2.855   2.148  12.209 -0.0977 -2.7585  0.6365
11338TIP3   OH255504   5.192   0.564  15.664 -0.3467  0.2722 -0.7719
11338TIP3    H155505   5.256   0.600  15.603  0.9843  0.7130  0.8266
11338TIP3    H255506   5.144   0.641  15.697  3.0720  1.0445  3.3045
11339TIP3   OH255507   2.298   3.612   2.378  0.0682 -0.1173  0.2982
11339TIP3    H155508   2.369   3.548   2.378 -0.1176 -0.3454  1.2801
11339TIP3    H255509   2.307   3.657   2.462 -1.3277 -0.5776  0.7182
11340TIP3   OH255510   2.618   4.363  14.224  0.0720 -0.0406 -0.3782
11340TIP3    H155511   2.550   4.308  14.186  1.5734 -1.1448 -1.6319
11340TIP3    H255512   2.584   4.390  14.309 -1.6985 -0.9473 -0.7652
11341TIP3   OH255513   2.580   6.290  14.544  0.4029 -0.0014 -0.4757
11341TIP3    H155514   2.635   6.246  14.608  1.1953  1.4239 -0.1433
11341TIP3    H255515   2.497   6.242  14.546  1.1593 -1.3085  0.0262
11342TIP3   OH255516   5.296   1.657   2.516 -0.4645 -0.0304  0.1367
11342TIP3    H155517   5.271   1.655   2.609 -0.2616 -1.8993  0.1814
11342TIP3    H255518   5.256   1.579   2.479  1.2877 -0.5142 -0.8487
11343TIP3   OH255519   2.629   0.284   3.696 -0.2013 -0.1231 -0.1097
11343TIP3    H155520   2.720   0.254   3.692 -0.5572 -1.7313  1.9008
11343TIP3    H255521   2.634   0.378   3.680  1.2833 -0.7161 -4.1135
11344TIP3   OH255522   5.217   3.756   1.601 -0.3629  0.1538  0.2519
11344TIP3    H155523   5.246   3.733   1.689 -0.2549 -1.2484 -0.1192
11344TIP3    H255524   5.147   3.692   1.582 -0.2961  0.3614 -0.7142
11345TIP3   OH255525   4.541   6.154  13.129  0.1446  0.1758 -0.0479
11345TIP3    H155526   4.569   6.141  13.219 -0.1484 -1.7739 -0.1830
11345TIP3    H255527   4.471   6.089  13.116  0.4267  0.1664 -1.7643
11346TIP3   OH255528   5.478   4.893   3.071 -0.0642  0.1976  0.1934
11346TIP3    H155529   5.419   4.932   3.136  0.2353  1.8215 -0.4562
11346TIP3    H255530   5.427   4.891   2.990  0.4075  0.6032 -0.1190
11347TIP3   OH255531   1.929   0.657   3.404 -0.4324 -0.4504  0.3733
11347TIP3    H155532   1.994   0.595   3.371 -1.7479 -0.1574 -3.1552
11347TIP3    H255533   1.977   0.708   3.470  1.7926 -2.6233  0.5805
11348TIP3   OH255534   5.662   5.197  17.160  0.0196  0.3216 -0.5751
11348TIP3    H155535   5.591   5.144  17.195  0.3444  0.7352  0.7805
11348TIP3    H255536   5.642   5.206  17.067 -1.1799 -0.3630 -0.4030
11349TIP3   OH255537   1.578   3.553   1.265 -0.0515  0.7718  0.6468
11349TIP3    H155538   1.584   3.621   1.332 -0.6914  0.3901  1.1040
11349TIP3    H255539   1.489   3.561   1.230  0.0005  0.4327  0.4244
11350TIP3   OH255540   4.403   2.751   2.321 -0.1264  0.3081 -0.6430
11350TIP3    H155541   4.451   2.818   2.370 -2.2470  0.8719  0.7869
11350TIP3    H255542   4.338   2.718   2.383 -0.7180 -1.3737 -2.0792
11351TIP3   OH255543   6.294   2.948   3.500 -0.3539 -0.4986 -0.4273
11351TIP3    H155544   6.329   2.924   3.414  0.4904 -0.8952  0.0174
11351TIP3    H255545   6.208   2.907   3.503 -0.5838 -0.1000 -1.2625
11352TIP3   OH255546   4.961   1.501  11.349 -1.0061  0.0026  0.1735
11352TIP3    H155547   4.981   1.572  11.288 -1.2119 -0.0688  0.0226
11352TIP3    H255548   4.942   1.545  11.432  2.3112  0.0014  1.0734
11353TIP3   OH255549   1.524   0.252   4.257 -0.2264 -0.0992 -0.6393
11353TIP3    H155550   1.618   0.270   4.260 -0.4028  0.7887 -0.0622
11353TIP3    H255551   1.518   0.164   4.220  0.9173 -0.8401  0.8382
11354TIP3   OH255552   2.490   1.416  16.233 -0.3158 -0.1935  0.3321
11354TIP3    H155553   2.409   1.427  16.282 -0.6390 -1.1999  0.0460
11354TIP3    H255554   2.463   1.412  16.142 -0.5268 -4.5591  0.3579
11355TIP3   OH255555   2.329   3.677   0.767  0.0699 -0.5756 -0.0878
11355TIP3    H155556   2.388   3.747   0.739 -0.8025 -0.6832 -2.4111
11355TIP3    H255557   2.294   3.641   0.685 -0.1067 -3.2250  1.0535
11356TIP3   OH255558   5.929   2.612   6.205 -0.1370 -0.7075  0.7265
11356TIP3    H155559   5.911   2.600   6.298 -0.0044 -1.0345  0.7132
11356TIP3    H255560   5.933   2.706   6.193  0.6606 -0.6654  1.2131
11357TIP3   OH255561   2.162   0.797   0.586 -0.9412 -0.4671 -0.2859
11357TIP3    H155562   2.186   0.808   0.494 -2.6413 -0.8388 -0.7971
11357TIP3    H255563   2.201   0.714   0.611 -1.2669 -0.8236 -0.9528
11358TIP3   OH255564   3.140   0.785  16.703  0.0558 -1.3140 -0.0030
11358TIP3    H155565   3.159   0.804  16.795  1.1674  0.6122 -0.5756
11358TIP3    H255566   3.112   0.869  16.667  0.7110 -1.7747 -1.6766
11359TIP3   OH255567   1.339   0.678  16.618 -0.0133  0.5445  0.2144
11359TIP3    H155568   1.256   0.644  16.651 -0.2616  1.4512  0.5543
11359TIP3    H255569   1.381   0.717  16.694  0.9947 -0.3968  0.1612
11360TIP3   OH255570   6.281   4.640  11.152 -0.3720  0.1219  0.0641
11360TIP3    H155571   6.325   4.722  11.176  0.5926  0.0486 -1.3145
11360TIP3    H255572   6.205   4.667  11.100  0.8703  0.1715 -1.8492
11361TIP3   OH255573   5.802   2.186   5.464  0.2814  0.2582  0.3605
11361TIP3    H155574   5.710   2.168   5.484  0.2526 -0.2614 -0.2056
11361TIP3    H255575   5.838   2.222   5.546 -0.3625  0.2391  0.6577
11362TIP3   OH255576   1.716   5.567   1.804 -0.7716 -0.7005 -0.3220
11362TIP3    H155577   1.735   5.570   1.898 -0.0644 -1.5649 -0.4252
11362TIP3    H255578   1.773   5.634   1.767 -1.9759  0.5418 -0.0110
11363TIP3   OH255579   0.743   0.344  15.200 -0.0323 -0.3561 -0.7162
11363TIP3    H155580   0.789   0.328  15.282  0.4650  0.9458 -0.7076
11363TIP3    H255581   0.778   0.428  15.169 -0.0595 -0.9074 -2.3682
11364TIP3   OH255582   4.522   3.480   6.695  0.5490 -0.3935  0.2345
11364TIP3    H155583   4.605   3.434   6.709  1.5705  0.2010 -3.0336
11364TIP3    H255584   4.546   3.559   6.647 -1.8543  0.2127 -0.1056
11365TIP3   OH255585   1.638   6.192  16.290  0.1101  0.0921 -0.3145
11365TIP3    H155586   1.661   6.235  16.208 -3.6270 -1.4371 -2.3629
11365TIP3    H255587   1.678   6.105  16.284  1.1261  0.4951  0.2767
11366TIP3   OH255588   0.341   4.952   2.597  0.9550  0.9949  0.0741
11366TIP3    H155589   0.428   4.991   2.587  0.5552  2.0796  0.6545
11366TIP3    H255590   0.286   4.999   2.535  0.8689 -0.0091 -0.6242
11367TIP3   OH255591   4.095   5.691  12.718  0.3188 -0.8108 -0.0937
11367TIP3    H155592   4.019   5.715  12.771 -2.0716 -0.0478 -3.5120
11367TIP3    H255593   4.163   5.754  12.743 -1.7492  1.5640 -0.1232
11368TIP3   OH255594   0.190   3.116   0.342  0.8539  0.1301 -0.1340
11368TIP3    H155595   0.235   3.190   0.383 -3.2556  1.8278  1.8003
11368TIP3    H255596   0.131   3.155   0.278 -1.1299 -1.4185  0.6262
11369TIP3   OH255597   1.676   0.106  15.238  0.5320 -0.2053 -0.5275
11369TIP3    H155598   1.606   0.123  15.174  0.9641 -1.3085 -1.3313
11369TIP3    H255599   1.738   0.049  15.191  1.5149  0.0143  0.4630
11370TIP3   OH255600   6.806   4.846   1.865 -0.4865  0.4334 -0.6795
11370TIP3    H155601   6.799   4.915   1.931 -0.0457  1.4525 -1.6751
11370TIP3    H255602   6.716   4.817   1.851 -0.5861  0.2023  0.3588
11371TIP3   OH255603   6.129   3.877   4.499 -0.3628  0.1037 -0.4262
11371TIP3    H155604   6.058   3.848   4.442  1.4147  0.3346 -2.9569
11371TIP3    H255605   6.092   3.948   4.551 -2.4073 -0.9472 -0.3808
11372TIP3   OH255606   6.455   4.409  13.494 -0.2499 -0.1589 -0.4018
11372TIP3    H155607   6.371   4.446  13.522  0.2036  0.5814  0.0029
11372TIP3    H255608   6.464   4.436  13.403 -0.8342 -0.9516 -0.7064
11373TIP3   OH255609   5.591   0.817  16.257 -0.0340 -0.1584 -0.2856
11373TIP3    H155610   5.561   0.768  16.333 -0.7264  0.5689 -0.0765
11373TIP3    H255611   5.665   0.767  16.224 -0.2808 -0.9601  0.3376
11374TIP3   OH255612   3.355   1.757   4.890 -0.6844  0.3910 -0.0807
11374TIP3    H155613   3.289   1.699   4.852 -2.4847  1.8049  0.6969
11374TIP3    H255614   3.366   1.725   4.979  2.6606 -2.1950 -1.2065
11375TIP3   OH255615   3.291   0.607   3.672 -0.9728  0.1545  0.1004
11375TIP3    H155616   3.319   0.644   3.588 -0.3534  0.4760  0.4386
11375TIP3    H255617   3.372   0.601   3.723 -1.3953  0.2769  0.7992
11376TIP3   OH255618   1.876   2.785  10.199 -0.1888  0.4456 -0.3737
11376TIP3    H155619   1.863   2.873  10.235 -0.8746  0.6042 -0.9941
11376TIP3    H255620   1.971   2.772  10.201 -0.1592  0.7268  0.8258
11377TIP3   OH255621   0.191   6.286   2.069 -0.2544  0.0515 -0.0047
11377TIP3    H155622   0.228   6.237   2.142 -0.8726 -0.7949 -0.2439
11377TIP3    H255623   0.266   6.332   2.030 -0.1225  1.6446  1.9655
11378TIP3   OH255624   0.533   0.527  15.528  0.8437  0.4989 -0.2128
11378TIP3    H155625   0.474   0.452  15.526  1.6471 -0.1999  0.9367
11378TIP3    H255626   0.481   0.599  15.564  0.3291  0.2550 -0.4633
11379TIP3   OH255627   5.050   4.036   5.136 -0.4435  0.3730 -0.8758
11379TIP3    H155628   4.971   4.027   5.189 -0.7157  0.3263 -1.2819
11379TIP3    H255629   5.073   3.947   5.111  1.2197  0.0946  1.3332
11380TIP3   OH255630   6.821   6.027   4.780 -0.0035  0.4264  0.0192
11380TIP3    H155631   6.865   6.009   4.697 -0.3773 -1.0749  0.1164
11380TIP3    H255632   6.761   5.953   4.792 -0.4074  0.9407  1.3189
11381TIP3   OH255633   5.760   6.363  13.528  0.4113 -0.1273  0.1017
11381TIP3    H155634   5.835   6.327  13.480  0.4724  1.5814 -1.1766
11381TIP3    H255635   5.707   6.405  13.461 -2.4393 -2.3820  0.7667
11382TIP3   OH255636   0.888   1.411  16.514 -0.1499 -0.0283  0.2731
11382TIP3    H155637   0.952   1.449  16.574  0.1090 -0.7554  0.4625
11382TIP3    H255638   0.821   1.478  16.505  1.3480  1.3893 -1.0956
11383TIP3   OH255639   2.936   1.017   1.331  0.4618  0.2104 -0.7403
11383TIP3    H155640   2.893   1.102   1.330  0.8790  0.5204  1.5326
11383TIP3    H255641   3.027   1.035   1.358  1.1605 -0.7574 -2.2820
11384TIP3   OH255642   3.780   1.378  11.813 -0.0229  0.0977  0.7058
11384TIP3    H155643   3.698   1.365  11.860  0.1967  0.6849  1.2718
11384TIP3    H255644   3.758   1.365  11.721 -1.1879  2.0796  0.6367
11385TIP3   OH255645   2.189   2.722   2.046  0.0806  0.0660  0.0204
11385TIP3    H155646   2.164   2.661   2.115 -1.2540  0.6648  0.1012
11385TIP3    H255647   2.280   2.745   2.065 -0.0279 -0.3656  1.1249
11386TIP3   OH255648   5.954   6.423  17.255 -0.9246  1.0880  0.1762
11386TIP3    H155649   5.983   6.370  17.330 -1.5933  1.3873  0.6633
11386TIP3    H255650   5.956   6.363  17.181  2.9538  1.5857 -0.3135
11387TIP3   OH255651   2.698   6.807   4.839 -0.3765  0.5336  0.4276
11387TIP3    H155652   2.783   6.813   4.797  0.1517  2.5686  1.6353
11387TIP3    H255653   2.717   6.804   4.932 -1.5926 -1.1901  0.6680
11388TIP3   OH255654   6.322   4.244   2.251 -0.3749 -0.1794 -0.5438
11388TIP3    H155655   6.393   4.185   2.226 -1.7353 -3.7688  2.9405
11388TIP3    H255656   6.357   4.292   2.326 -0.5307  0.7227 -1.0345
11389TIP3   OH255657   0.302   6.508   0.412 -0.1271  0.2026  0.3383
11389TIP3    H155658   0.281   6.571   0.343  0.9744  1.2499  0.9152
11389TIP3    H255659   0.364   6.447   0.371 -0.1238  0.3244  0.1631
11390TIP3   OH255660   5.928   1.056  11.549  0.2122 -0.7859 -0.5550
11390TIP3    H155661   5.906   1.058  11.642 -0.1399  0.0792 -0.6479
11390TIP3    H255662   5.990   0.984  11.540  2.9904  1.2435  0.9482
11391TIP3   OH255663   2.719   4.580   6.429 -0.1542 -0.6335  0.0968
11391TIP3    H155664   2.720   4.512   6.362 -0.4926  0.5134 -1.1244
11391TIP3    H255665   2.632   4.619   6.423 -0.5715 -1.1693  1.9364
11392TIP3   OH255666   0.208   6.485   6.226 -0.1334 -0.4620 -0.5750
11392TIP3    H155667   0.221   6.440   6.310 -0.8049  1.9190  0.9071
11392TIP3    H255668   0.134   6.440   6.186  1.0912 -2.5634 -0.6359
11393TIP3   OH255669   5.092   5.576  13.079  0.3285 -0.2510 -0.1014
11393TIP3    H155670   5.059   5.513  13.142  0.5563 -3.1553 -2.6733
11393TIP3    H255671   5.021   5.588  13.016  0.1340  2.4934  0.4827
11394TIP3   OH255672   4.070   0.887   5.350 -0.1024  0.7036 -0.2865
11394TIP3    H155673   4.165   0.881   5.344 -0.1612 -0.7697 -0.1712
11394TIP3    H255674   4.052   0.898   5.443 -0.0503  0.5698 -0.2594
11395TIP3   OH255675   6.015   0.833   5.487  0.3099  0.1816  0.6923
11395TIP3    H155676   6.037   0.897   5.555 -1.1224 -1.0796  2.4253
11395TIP3    H255677   5.971   0.762   5.534 -1.3329 -0.4616 -1.6526
11396TIP3   OH255678   0.534   4.765  17.197  0.2885  0.0490  0.3262
11396TIP3    H155679   0.550   4.675  17.226 -1.4592 -0.5078 -0.2754
11396TIP3    H255680   0.482   4.804  17.267  1.9281  0.9799  1.0829
11397TIP3   OH255681   0.659   0.732   3.896 -0.5617  0.5994 -0.4208
11397TIP3    H155682   0.663   0.732   3.801  1.8903  0.5615 -0.3602
11397TIP3    H255683   0.641   0.641   3.920  2.8792 -0.3061 -0.8153
11398TIP3   OH255684   6.045   2.338  17.108  0.0176  0.2019  0.2215
11398TIP3    H155685   6.044   2.387  17.191 -0.4636 -0.1190  0.4052
11398TIP3    H255686   5.990   2.262  17.124  2.1360 -1.3498  0.5018
11399TIP3   OH255687   0.043   1.127   6.312 -0.5297 -0.1261  0.2569
11399TIP3    H155688  -0.036   1.173   6.342  0.8697  1.9087  1.0164
11399TIP3    H255689   0.010   1.063   6.249 -2.8775  0.0001  1.2518
11400TIP3   OH255690   4.853   3.314  11.924 -0.8043  0.0558 -0.0025
11400TIP3    H155691   4.846   3.321  11.829  1.7120 -0.5026 -0.3124
11400TIP3    H255692   4.937   3.269  11.939 -1.1503  0.0647  2.4811
11401TIP3   OH255693   6.742   0.565  14.631 -0.5278 -0.3468  0.0893
11401TIP3    H155694   6.760   0.517  14.550  0.7819 -0.6376  0.5322
11401TIP3    H255695   6.712   0.651  14.601  0.0140 -0.4216 -0.7059
11402TIP3   OH255696   1.463   2.239   4.178 -0.1242  0.6632 -0.1322
11402TIP3    H155697   1.468   2.323   4.133  0.4822  0.8590  0.2766
11402TIP3    H255698   1.407   2.185   4.123 -1.3735  1.6584  0.1155
11403TIP3   OH255699   3.727   4.276  16.693  0.2352  0.4344 -0.4799
11403TIP3    H155700   3.814   4.244  16.715  0.0495 -0.8719 -1.5104
11403TIP3    H255701   3.739   4.370  16.678  1.7150  0.0964 -1.7055
11404TIP3   OH255702   4.746   5.356  13.418  0.1609  0.0223 -0.0512
11404TIP3    H155703   4.710   5.291  13.358 -0.0092  0.3417 -0.2913
11404TIP3    H255704   4.670   5.402  13.454  0.3185  0.6435 -0.4993
11405TIP3   OH255705   5.148   5.916   3.652  0.2126 -0.7007  0.0111
11405TIP3    H155706   5.076   5.889   3.595  0.0753 -1.7167  0.6510
11405TIP3    H255707   5.226   5.880   3.610  0.3255  0.1321 -0.5133
11406TIP3   OH255708   5.334   2.281  14.500  0.0289  0.1798  0.5444
11406TIP3    H155709   5.346   2.280  14.595  1.6015 -0.6681  0.3742
11406TIP3    H255710   5.336   2.188  14.475 -1.9132  0.2891 -0.1783
11407TIP3   OH255711   6.523   0.017   2.635 -0.1093 -0.4984 -0.0549
11407TIP3    H155712   6.504  -0.058   2.691  2.2983 -1.1637 -0.0454
11407TIP3    H255713   6.462   0.008   2.561 -2.0300 -0.6386  1.4537
11408TIP3   OH255714   6.533   4.040   1.017  0.4006  0.0228  0.0933
11408TIP3    H155715   6.522   3.947   1.032 -1.6776  0.3550  0.9610
11408TIP3    H255716   6.587   4.070   1.090  1.3394 -0.5313 -0.3602
11409TIP3   OH255717   4.330   1.367  16.496 -0.3320  0.1030 -0.3489
11409TIP3    H155718   4.234   1.368  16.500 -0.4228 -0.8807 -1.5813
11409TIP3    H255719   4.352   1.275  16.482  0.7776  0.3727 -0.4900
11410TIP3   OH255720   5.505   6.454   1.500 -0.6060 -0.1016  0.3942
11410TIP3    H155721   5.498   6.544   1.469 -0.4146 -0.5032 -0.8758
11410TIP3    H255722   5.585   6.421   1.459 -0.1340 -0.5644  1.6282
11411TIP3   OH255723   3.069   0.738   1.261  0.2134 -0.7619  0.3367
11411TIP3    H155724   3.035   0.816   1.306 -1.1434 -1.8828  1.3747
11411TIP3    H255725   3.052   0.755   1.168 -0.9564 -0.2064  0.6269
11412TIP3   OH255726   2.974   4.576  12.429 -0.2121 -0.1485  0.1526
11412TIP3    H155727   2.965   4.670  12.410 -1.4156 -0.3226 -0.1720
11412TIP3    H255728   2.887   4.540  12.415 -0.1709 -1.0380  1.9029
11413TIP3   OH255729   6.820   5.235   3.437 -0.0513 -0.2786 -0.4819
11413TIP3    H155730   6.902   5.216   3.485 -1.3064 -0.6638  1.6645
11413TIP3    H255731   6.790   5.318   3.474 -0.0023  0.5289 -2.1923
11414TIP3   OH255732   3.114   1.613  12.714 -0.4997 -0.2873 -0.2320
11414TIP3    H155733   3.069   1.614  12.799 -1.6280 -2.1655 -0.7487
11414TIP3    H255734   3.206   1.601  12.737 -0.5162  1.2380  0.7703
11415TIP3   OH255735   2.444   1.500  14.150 -0.1320  0.2598  1.0002
11415TIP3    H155736   2.430   1.568  14.216 -1.0244 -0.2556  1.3541
11415TIP3    H255737   2.475   1.425  14.200  0.7524  0.3597  0.6217
11416TIP3   OH255738   1.861   3.649  15.399 -0.1372  0.0963  0.2305
11416TIP3    H155739   1.771   3.619  15.387  0.3653 -2.2302  1.7338
11416TIP3    H255740   1.883   3.624  15.489  2.0706  0.4992 -0.1390
11417TIP3   OH255741   4.513   4.478  15.595 -0.5566 -0.1142  0.5838
11417TIP3    H155742   4.525   4.480  15.690 -2.4278  1.4580  0.8431
11417TIP3    H255743   4.451   4.406  15.581 -0.1485 -0.4564  0.5323
11418TIP3   OH255744   2.535   0.711  13.122  0.3513 -0.4696 -0.4947
11418TIP3    H155745   2.613   0.766  13.125 -0.5052  0.7624 -0.4858
11418TIP3    H255746   2.471   0.762  13.073 -1.4726 -0.1180  2.1118
11419TIP3   OH255747   5.874   1.577  14.770 -0.0015 -0.0499  0.0553
11419TIP3    H155748   5.923   1.534  14.840 -1.5510  0.5073  1.5439
11419TIP3    H255749   5.809   1.511  14.743  0.7497 -0.3527 -1.0633
11420TIP3   OH255750   0.011   4.396   2.930  0.1879  0.0155 -0.1264
11420TIP3    H155751  -0.081   4.386   2.953  0.6215 -2.5738  0.8570
11420TIP3    H255752   0.032   4.487   2.952 -1.2554 -0.3191  3.2583
11421TIP3   OH255753   0.611   3.742   6.030 -0.3884  0.0311 -0.2955
11421TIP3    H155754   0.646   3.720   6.116 -0.4919 -0.9171 -0.4853
11421TIP3    H255755   0.682   3.789   5.986  0.1404 -0.6312 -0.1599
11422TIP3   OH255756   6.758   3.157  17.077 -0.2559  0.2202 -0.5859
11422TIP3    H155757   6.664   3.171  17.075 -0.5648 -1.6158 -0.2840
11422TIP3    H255758   6.780   3.147  17.169  0.3169  1.0648 -0.6184
11423TIP3   OH255759   4.026   1.139   5.260  0.0529 -0.5247  0.0091
11423TIP3    H155760   4.039   1.055   5.306 -2.8412 -1.5419 -0.8336
11423TIP3    H255761   3.984   1.195   5.325  1.2342  0.0372  0.3132
11424TIP3   OH255762   2.910   0.792   4.343 -0.6317  0.7401  0.2995
11424TIP3    H155763   2.840   0.735   4.311  0.0069  0.5125 -0.7618
11424TIP3    H255764   2.949   0.829   4.264  0.5479  0.7307  0.8477
11425TIP3   OH255765   0.657   4.800   2.394  0.0774 -0.2110  0.4479
11425TIP3    H155766   0.665   4.836   2.306 -0.9633 -0.2597  0.3322
11425TIP3    H255767   0.748   4.796   2.426  0.4182  0.2458 -0.4338
11426TIP3   OH255768   4.858   3.394  10.926 -0.0835  1.0034  0.3852
11426TIP3    H155769   4.895   3.457  10.865  1.4010 -0.8094 -0.7141
11426TIP3    H255770   4.932   3.340  10.954 -1.1666  0.1389  1.7717
11427TIP3   OH255771   2.428   6.282  15.848 -0.5686  0.1674 -0.0362
11427TIP3    H155772   2.346   6.236  15.831 -0.7052 -0.0120  1.0034
11427TIP3    H255773   2.411   6.373  15.823 -1.4648  0.3684  1.1842
11428TIP3   OH255774   1.648   3.016   5.802  0.1856  0.3078 -0.2879
11428TIP3    H155775   1.567   3.030   5.852  1.0871 -0.7134  1.5359
11428TIP3    H255776   1.628   2.941   5.745  0.1202 -0.5372  0.8252
11429TIP3   OH255777   4.033   3.829   4.210  0.7523  0.2153  0.1061
11429TIP3    H155778   4.075   3.903   4.167  0.6586  0.3463  0.2396
11429TIP3    H255779   3.941   3.853   4.215  0.3340 -0.8051 -1.7625
11430TIP3   OH255780   5.541   5.219   4.818 -0.0835  0.2746 -0.0380
11430TIP3    H155781   5.635   5.203   4.832 -0.1591 -0.9269 -0.7859
11430TIP3    H255782   5.501   5.197   4.902  0.0335 -1.8267 -0.4827
11431TIP3   OH255783   3.317   3.369  13.678 -0.2683  0.0426  0.1457
11431TIP3    H155784   3.337   3.390  13.586  2.7787 -1.0349  0.4318
11431TIP3    H255785   3.378   3.422  13.728  0.0821 -1.4280  1.3580
11432TIP3   OH255786   6.488   3.623   1.230  0.4198  0.0132 -0.0569
11432TIP3    H155787   6.498   3.532   1.201 -0.7272 -0.4566  0.8853
11432TIP3    H255788   6.483   3.617   1.326  0.5190  1.0976  0.0298
11433TIP3   OH255789   5.177   2.018   0.990 -0.1449 -0.4498  0.9042
11433TIP3    H155790   5.200   2.110   0.977  1.5171 -0.9973 -0.3911
11433TIP3    H255791   5.227   1.971   0.923 -1.8972 -2.1936  0.7365
11434TIP3   OH255792   4.375   2.720   3.523 -0.2395  0.1294 -0.3784
11434TIP3    H155793   4.392   2.665   3.446  1.8415  1.9908 -1.3508
11434TIP3    H255794   4.380   2.659   3.597  0.3621 -1.2850 -1.5286
11435TIP3   OH255795   2.297   0.185   0.084 -0.5703 -0.5083  0.2532
11435TIP3    H155796   2.311   0.145  -0.002 -1.2870  0.6001 -0.3981
11435TIP3    H255797   2.205   0.165   0.105 -0.3970 -0.7785  0.7656
11436TIP3   OH255798   4.345   5.461   4.054  0.5253 -0.3101  0.0607
11436TIP3    H155799   4.302   5.543   4.030  0.8891  0.6048  2.3391
11436TIP3    H255800   4.275   5.396   4.054 -0.4786  0.7157  1.5828
11437TIP3   OH255801   1.919   6.389   0.554 -0.6685  0.4309 -0.1714
11437TIP3    H155802   2.000   6.381   0.603 -0.7853  2.7267  0.5226
11437TIP3    H255803   1.886   6.477   0.576 -2.3354  0.3181 -1.9363
11438TIP3   OH255804   0.317   3.695  13.736  0.0198  0.0742  0.0997
11438TIP3    H155805   0.310   3.599  13.731 -0.3306 -0.0615  2.3275
11438TIP3    H255806   0.271   3.726  13.657 -0.4368 -1.5646 -0.3187
11439TIP3   OH255807   0.844   5.295  15.102  0.3197  0.1635 -0.2660
11439TIP3    H155808   0.824   5.223  15.043 -0.0231  0.2360 -0.2407
11439TIP3    H255809   0.845   5.255  15.189  2.9387 -0.3941 -0.4509
11440TIP3   OH255810   3.123   1.093  13.931 -0.0665 -0.0834  0.6595
11440TIP3    H155811   3.031   1.070  13.921  0.1543 -0.9107  0.4741
11440TIP3    H255812   3.170   1.035  13.871  0.5140  0.8672  0.1538
11441TIP3   OH255813   3.170   6.343   4.502  0.0935  0.4247 -0.2269
11441TIP3    H155814   3.168   6.263   4.448  2.0603  1.2356 -1.6008
11441TIP3    H255815   3.202   6.313   4.587 -1.1573 -0.5570 -0.0700
11442TIP3   OH255816   4.288   2.077  16.263 -0.0240 -0.2847  1.1163
11442TIP3    H155817   4.323   2.076  16.174 -0.0906 -1.6586  1.0808
11442TIP3    H255818   4.353   2.125  16.315  1.5190 -1.9808  0.8790
11443TIP3   OH255819   4.676   5.802   0.829 -0.2919  0.3368 -0.0430
11443TIP3    H155820   4.646   5.880   0.877 -1.6277 -0.7291  0.9190
11443TIP3    H255821   4.699   5.739   0.897 -2.5087 -1.3301 -0.7225
11444TIP3   OH255822   3.982   1.343  14.382 -0.7368  0.3523  0.5471
11444TIP3    H155823   4.012   1.386  14.461 -0.9711  1.5819 -0.0162
11444TIP3    H255824   3.891   1.370  14.373 -0.6425  0.4299 -0.2662
11445TIP3   OH255825   4.619   6.732   4.984  0.0629 -0.1596 -0.2579
11445TIP3    H155826   4.585   6.772   4.904  0.8404  2.7692  0.7515
11445TIP3    H255827   4.714   6.739   4.977  0.2052 -1.2431  0.2950
11446TIP3   OH255828   3.108   0.028  14.229  0.4882 -0.5288 -0.3706
11446TIP3    H155829   3.044   0.073  14.174  0.6332 -0.9261 -0.8793
11446TIP3    H255830   3.186   0.021  14.174  0.0114 -2.6686 -0.8654
11447TIP3   OH255831   6.417   6.755   3.920  0.7380  0.3073  0.0052
11447TIP3    H155832   6.397   6.848   3.935  0.9419  0.1412  1.3602
11447TIP3    H255833   6.484   6.756   3.851  1.9079  1.2600  1.1136
11448TIP3   OH255834   0.475   4.440   6.338  0.5338  0.1842 -0.1180
11448TIP3    H155835   0.566   4.467   6.334  0.3939  0.5550 -1.1608
11448TIP3    H255836   0.433   4.505   6.396  0.6663  0.8325 -0.7322
11449TIP3   OH255837   5.076   2.761  10.649 -0.1998 -0.1587  0.1977
11449TIP3    H155838   5.010   2.828  10.665  1.1370  1.4724 -0.7472
11449TIP3    H255839   5.028   2.678  10.651 -2.0079  0.8582  0.8539
11450TIP3   OH255840   3.436   5.745   5.645 -0.1084  0.1788  0.4061
11450TIP3    H155841   3.405   5.818   5.700  0.4034 -0.1267  1.1175
11450TIP3    H255842   3.515   5.714   5.690 -0.6971 -1.2471  0.4793
11451TIP3   OH255843   2.288   3.655   0.456 -0.1582  0.4803  0.0909
11451TIP3    H155844   2.208   3.603   0.450  0.6113 -1.1170  2.2562
11451TIP3    H255845   2.258   3.744   0.473 -1.6074 -0.5230  3.7911
11452TIP3   OH255846   6.377   0.199   6.218 -0.1223 -0.2735 -0.1514
11452TIP3    H155847   6.314   0.199   6.146 -1.1505 -1.2095  0.7086
11452TIP3    H255848   6.443   0.135   6.191 -1.1463 -1.5456  0.2238
11453TIP3   OH255849   4.248   6.300  11.175 -0.0603  0.0812  0.1299
11453TIP3    H155850   4.241   6.392  11.200  1.1839 -0.0543  1.0937
11453TIP3    H255851   4.216   6.252  11.252  0.5269 -0.2973  0.1478
11454TIP3   OH255852   0.208   0.097   0.004  0.4159  0.0020 -0.4643
11454TIP3    H155853   0.260   0.109  -0.076  1.3989  1.9108  0.3982
11454TIP3    H255854   0.272   0.079   0.072 -0.3298 -0.4774  0.1346
11455TIP3   OH255855   0.436   1.780  13.855  0.8421  0.2507  0.0478
11455TIP3    H155856   0.371   1.792  13.785  0.2785 -0.2766  0.4643
11455TIP3    H255857   0.451   1.868  13.889  2.1868  0.7354 -1.6440
11456TIP3   OH255858   3.213   2.832   2.236 -0.8540 -0.1537  0.0264
11456TIP3    H155859   3.193   2.769   2.167 -3.6592 -0.4534  0.9801
11456TIP3    H255860   3.276   2.786   2.292  0.3226 -0.4602 -1.4945
11457TIP3   OH255861   6.821   5.052   3.701 -0.8505  0.2867 -0.3236
11457TIP3    H155862   6.842   5.117   3.634 -2.4020 -0.3284 -1.4729
11457TIP3    H255863   6.856   5.088   3.782 -0.4834  1.9033 -1.1654
11458TIP3   OH255864   3.755   0.142  13.131  0.0487 -0.1348 -0.2157
11458TIP3    H155865   3.665   0.121  13.109 -0.1963  1.4144 -0.8693
11458TIP3    H255866   3.761   0.131  13.226 -0.9593  0.2211 -0.1032
11459TIP3   OH255867   0.695   6.792   6.422  0.2174  0.4683 -0.0702
11459TIP3    H155868   0.762   6.735   6.385  0.9888  0.2634  1.5431
11459TIP3    H255869   0.731   6.820   6.506 -1.5405  0.6906  0.6550
11460TIP3   OH255870   6.320   4.116  12.407 -0.0567 -0.1143 -0.1543
11460TIP3    H155871   6.318   4.160  12.493  0.3272  1.9060 -1.1201
11460TIP3    H255872   6.233   4.079  12.397  0.2685 -1.5317  1.6375
11461TIP3   OH255873   5.687   0.241   2.542 -0.1445  0.7246 -0.3280
11461TIP3    H155874   5.756   0.177   2.521 -1.6462 -0.9311 -0.4009
11461TIP3    H255875   5.727   0.326   2.522  2.4390 -0.0282  1.1463
11462TIP3   OH255876   2.394   5.930  13.108 -0.0004 -0.6012  0.5361
11462TIP3    H155877   2.439   5.866  13.054  1.5126 -0.5230  1.6229
11462TIP3    H255878   2.463   5.992  13.134 -0.6273 -0.6488  2.5327
11463TIP3   OH255879   3.081   1.437   1.992  0.3729 -0.9645 -0.4657
11463TIP3    H155880   3.162   1.486   2.006  0.4096 -0.7826 -1.2380
11463TIP3    H255881   3.022   1.501   1.952  0.4992 -1.5962 -1.7096
11464TIP3   OH255882   4.865   6.431   6.075 -0.4150  0.2124  0.0581
11464TIP3    H155883   4.816   6.364   6.026 -1.3652  1.7386 -1.1519
11464TIP3    H255884   4.885   6.388   6.159 -3.0405 -0.8355  0.2608
11465TIP3   OH255885   2.894   0.102   3.998  0.3908 -0.1344 -0.2120
11465TIP3    H155886   2.905   0.008   3.981  0.8527  0.2846 -2.4742
11465TIP3    H255887   2.974   0.142   3.965 -0.5066  1.2177 -0.8213
11466TIP3   OH255888   4.962   1.788  13.033 -0.2440 -1.0968 -0.2277
11466TIP3    H155889   4.911   1.868  13.043  2.2022  0.6223 -0.4279
11466TIP3    H255890   4.928   1.747  12.954  0.6225  1.6391 -2.1818
11467TIP3   OH255891   0.128   0.466   1.139  0.2838 -0.1355  0.3500
11467TIP3    H155892   0.207   0.415   1.157 -0.0824 -0.6392  0.5468
11467TIP3    H255893   0.158   0.557   1.140  1.1555 -0.3830 -1.0915
11468TIP3   OH255894   2.732   6.394  16.589  0.0576 -0.0747 -0.6324
11468TIP3    H155895   2.827   6.405  16.594 -0.0304  0.1526  1.2462
11468TIP3    H255896   2.704   6.452  16.518  1.2409  0.3004 -0.7986
11469TIP3   OH255897   1.630   5.822   5.444 -0.1199 -0.2722 -0.2871
11469TIP3    H155898   1.689   5.814   5.520 -1.3025  0.9533  0.7978
11469TIP3    H255899   1.543   5.830   5.482 -0.8925 -0.9002 -1.8446
11470TIP3   OH255900   1.512   2.503  16.294 -0.5792 -0.1260 -0.2323
11470TIP3    H155901   1.454   2.464  16.229 -0.9784  1.0372 -0.5902
11470TIP3    H255902   1.463   2.577  16.329  0.4697  0.5425 -0.1442
11471TIP3   OH255903   6.640   4.580   0.979 -0.3102 -0.1312 -0.7155
11471TIP3    H155904   6.724   4.566   1.022 -1.3090  1.2806  1.9324
11471TIP3    H255905   6.586   4.506   1.006 -0.6252  0.2110 -0.3893
11472TIP3   OH255906   2.396   5.237  17.109 -0.0900  0.2433 -0.0526
11472TIP3    H155907   2.481   5.240  17.065 -0.1109  1.7092 -0.0605
11472TIP3    H255908   2.389   5.148  17.142  1.5740  0.1718  0.1845
11473TIP3   OH255909   0.584   4.103   5.550  0.1674  0.3468 -0.1145
11473TIP3    H155910   0.611   4.063   5.468 -1.7791  0.7738 -0.9941
11473TIP3    H255911   0.607   4.196   5.541  0.9874  0.1977  0.3078
11474TIP3   OH255912   2.201   1.360   4.245 -0.2086  0.2146 -0.3486
11474TIP3    H155913   2.235   1.316   4.167 -1.4334 -2.6277  0.6081
11474TIP3    H255914   2.239   1.313   4.318 -1.1965  1.0982  0.7744
11475TIP3   OH255915   6.146   0.518  15.354 -0.3607  0.1217  0.1990
11475TIP3    H155916   6.230   0.518  15.309  0.1458 -2.1214  1.0383
11475TIP3    H255917   6.083   0.488  15.288 -0.3876  0.9781 -0.1823
11476TIP3   OH255918   0.896   6.762   5.320  0.3095 -0.0086  0.0498
11476TIP3    H155919   0.927   6.825   5.385 -1.0206  1.9040 -1.0560
11476TIP3    H255920   0.975   6.734   5.274  0.9845  0.5353  0.8539
11477TIP3   OH255921   4.137   1.335   1.232  0.0474 -0.2944  0.6972
11477TIP3    H155922   4.052   1.321   1.273 -0.2737  2.3810  1.1080
11477TIP3    H255923   4.185   1.254   1.248 -1.5877 -0.9767  2.5189
11478TIP3   OH255924   4.248   2.678   2.049  0.5361  0.1616  0.0303
11478TIP3    H155925   4.170   2.622   2.050 -0.3325  1.3239  0.6088
11478TIP3    H255926   4.273   2.686   2.141  1.3367 -0.1707 -0.1465
11479TIP3   OH255927   0.525   2.568   2.560 -0.4246  0.3769  0.3458
11479TIP3    H155928   0.535   2.545   2.653 -0.8501  2.7200  1.0367
11479TIP3    H255929   0.580   2.505   2.514  0.6016 -0.2229  2.2688
11480TIP3   OH255930   6.629   6.232   5.017  0.1552 -0.1784  0.3829
11480TIP3    H155931   6.569   6.165   5.048 -0.6428 -0.5039 -1.7439
11480TIP3    H255932   6.572   6.306   4.993  0.8370  0.4450  0.6266
11481TIP3   OH255933   4.796   3.632  14.105  0.4300  0.3008  0.4902
11481TIP3    H155934   4.797   3.574  14.029  1.6173 -1.3407  1.6963
11481TIP3    H255935   4.706   3.666  14.108 -0.3089 -1.4826 -0.2610
11482TIP3   OH255936   5.437   3.071  16.948 -0.2918  0.4909  0.6494
11482TIP3    H155937   5.490   3.150  16.948  2.0504 -0.8192 -3.3454
11482TIP3    H255938   5.390   3.073  16.864 -1.3460 -1.6379  1.1097
11483TIP3   OH255939   6.174   3.110  12.714 -0.1267 -0.3862 -0.0488
11483TIP3    H155940   6.239   3.116  12.784  1.2674  2.4836 -1.4165
11483TIP3    H255941   6.121   3.189  12.723 -0.1428 -0.1212 -1.9745
11484TIP3   OH255942   0.402   6.046  15.303 -0.2669 -0.0454 -0.0674
11484TIP3    H155943   0.397   5.951  15.294 -0.8045 -0.1485  1.1825
11484TIP3    H255944   0.488   6.062  15.341 -1.3507 -0.3367  2.7697
11485TIP3   OH255945   2.881   0.412  15.092 -0.0740  0.7596  0.2869
11485TIP3    H155946   2.942   0.467  15.042 -0.1503  0.9754  0.4347
11485TIP3    H255947   2.927   0.328  15.100 -1.4083 -0.5052 -3.1396
11486TIP3   OH255948   3.459   3.051  14.666 -0.8692 -0.0417 -0.1907
11486TIP3    H155949   3.545   3.093  14.664 -0.4678 -0.8395 -2.4344
11486TIP3    H255950   3.461   2.997  14.745 -0.0258  1.3501  0.7822
11487TIP3   OH255951   0.081   0.086  17.030 -0.0680  0.5970  0.0822
11487TIP3    H155952   0.170   0.120  17.033  0.3318 -0.4829  1.6159
11487TIP3    H255953   0.081   0.013  17.092 -1.7680 -0.0457 -0.6126
11488TIP3   OH255954   4.033   3.765  15.798 -0.3188 -0.1235  0.2690
11488TIP3    H155955   4.127   3.760  15.819 -0.0792 -0.3087 -0.7794
11488TIP3    H255956   4.030   3.768  15.702 -1.3142  1.4127  0.3085
11489TIP3   OH255957   6.608   3.469  17.049 -0.0708  0.2983 -0.7746
11489TIP3    H155958   6.562   3.553  17.052 -2.0744 -0.7423 -0.1926
11489TIP3    H255959   6.542   3.407  17.018  0.7178 -1.3975  0.7309
11490TIP3   OH255960   6.332   6.803   0.526  0.0487  0.0666 -0.0914
11490TIP3    H155961   6.331   6.796   0.621  0.4060  0.5858 -0.0432
11490TIP3    H255962   6.244   6.777   0.499 -0.2790  0.6140  0.4308
11491TIP3   OH255963   3.291   0.601  13.497 -0.4682 -0.0241 -0.2964
11491TIP3    H155964   3.333   0.546  13.562 -1.4421 -0.3357  0.0899
11491TIP3    H255965   3.363   0.645  13.452  0.3838 -2.0268 -1.0135
11492TIP3   OH255966   2.520   2.426   3.187  0.1395 -0.1700 -0.0642
11492TIP3    H155967   2.591   2.398   3.245 -1.5964 -2.0089  1.3185
11492TIP3    H255968   2.494   2.512   3.221  0.7548 -0.1305  0.3225
11493TIP3   OH255969   5.530   2.759   4.715  0.2801 -0.7675  0.1439
11493TIP3    H155970   5.445   2.751   4.758 -0.6248  0.4107 -1.3316
11493TIP3    H255971   5.567   2.671   4.719 -0.2155 -0.9361  2.3308
11494TIP3   OH255972   2.376   5.855   4.166  0.1585  0.1894 -0.0449
11494TIP3    H155973   2.471   5.860   4.174  0.2573 -0.7529 -0.5785
11494TIP3    H255974   2.357   5.762   4.154 -0.9545  0.1651  1.5503
11495TIP3   OH255975   2.116   0.746  14.685  0.2666 -0.2348  0.2032
11495TIP3    H155976   2.135   0.836  14.714 -1.3924  0.0055  0.6151
11495TIP3    H255977   2.199   0.699  14.698  0.7932  0.9117  1.2176
11496TIP3   OH255978   3.985   0.949   3.374 -0.0174  0.0814  0.0502
11496TIP3    H155979   3.971   1.024   3.432  0.3978  0.4847 -0.3665
11496TIP3    H255980   4.078   0.929   3.383  0.0810  0.2426 -0.5885
11497TIP3   OH255981   0.131   4.973  12.613  0.1944  0.1027 -0.9930
11497TIP3    H155982   0.067   4.954  12.544  1.0357  0.9953 -2.0439
11497TIP3    H255983   0.115   5.065  12.635  0.7014  0.1527 -0.8321
11498TIP3   OH255984   5.166   1.926   4.374 -0.2881 -0.3700 -0.3815
11498TIP3    H155985   5.244   1.915   4.428 -0.5122 -0.0608  0.0139
11498TIP3    H255986   5.094   1.894   4.429 -0.6009  0.5577 -0.2344
11499TIP3   OH255987   1.856   0.922   2.145  0.7483  0.3987  0.0081
11499TIP3    H155988   1.934   0.879   2.109  1.3799  2.1105 -0.7681
11499TIP3    H255989   1.830   0.985   2.078  0.0146  1.4159  1.2010
11500TIP3   OH255990   2.125   1.198  13.889  0.1058 -0.2753  0.0973
11500TIP3    H155991   2.043   1.213  13.841  0.6065 -1.3818 -1.1586
11500TIP3    H255992   2.144   1.105  13.875  1.7966  0.0617  0.0135
11501TIP3   OH255993   0.085   2.507  11.367  0.2013 -0.7799 -0.2396
11501TIP3    H155994   0.165   2.531  11.414 -0.5102 -1.3101  1.3146
11501TIP3    H255995   0.116   2.474  11.283  1.4567  1.2138 -0.6218
11502TIP3   OH255996   2.359   2.850   1.105 -0.6004 -0.6650  0.1728
11502TIP3    H155997   2.430   2.793   1.073  1.2284  1.7798 -0.4254
11502TIP3    H255998   2.373   2.854   1.199 -1.2809 -1.8271  0.3461
11503TIP3   OH255999   0.330   0.205   2.966  0.4519  0.6216 -0.0191
11503TIP3    H156000   0.340   0.125   3.017  0.8571  0.6898  0.0086
11503TIP3    H256001   0.331   0.275   3.031 -0.9625  0.5911  0.0620
11504TIP3   OH256002   4.619   1.189   3.980  0.0657  0.5545  0.3386
11504TIP3    H156003   4.637   1.229   3.895  1.9693 -0.0218  0.4306
11504TIP3    H256004   4.705   1.179   4.021 -0.4910 -1.9984  1.0593
11505TIP3   OH256005   0.096   5.182   0.035 -0.0359  0.3652  0.2843
11505TIP3    H156006   0.031   5.235  -0.009 -0.9468 -0.3887  0.6793
11505TIP3    H256007   0.143   5.243   0.092 -1.4441  0.6581  1.1659
11506TIP3   OH256008   6.034   5.817   0.598  0.0363  0.7185  0.1119
11506TIP3    H156009   5.995   5.900   0.569 -2.8262 -1.1431 -1.7663
11506TIP3    H256010   5.980   5.749   0.559  2.5138 -2.1297  1.2227
11507TIP3   OH256011   1.632   6.676   1.896  0.5721  0.0982  0.4268
11507TIP3    H156012   1.607   6.695   1.987 -0.5106  2.1771 -0.2503
11507TIP3    H256013   1.726   6.690   1.894  0.4645  1.0310  1.0210
11508TIP3   OH256014   6.534   1.876  16.857 -0.0380 -0.6784 -0.5096
11508TIP3    H156015   6.621   1.911  16.840 -0.0571 -0.6663 -0.5814
11508TIP3    H256016   6.542   1.835  16.944  0.2201 -1.2500 -0.7915
11509TIP3   OH256017   3.611   5.367   1.550  0.3747  0.2882 -0.0102
11509TIP3    H156018   3.646   5.455   1.566  2.4704 -0.4096 -0.4596
11509TIP3    H256019   3.539   5.359   1.612  0.8753  1.9029  0.8553
11510TIP3   OH256020   1.862   5.770  12.236 -0.1648  0.4785 -0.9549
11510TIP3    H156021   1.905   5.769  12.151  1.2999 -2.7896 -0.3196
11510TIP3    H256022   1.931   5.792  12.298 -0.3995 -0.4450 -0.3338
11511TIP3   OH256023   1.920   1.265   1.100  0.1474 -0.0216  0.3718
11511TIP3    H156024   1.945   1.358   1.096  0.2752 -0.0111  1.2059
11511TIP3    H256025   1.914   1.238   1.008  0.1076  0.8116  0.1192
11512TIP3   OH256026   4.863   0.270   1.726 -0.2003  0.3909 -0.7863
11512TIP3    H156027   4.903   0.357   1.732  0.2199  0.1145  1.8218
11512TIP3    H256028   4.927   0.218   1.676  0.5747  1.0745 -0.5356
11513TIP3   OH256029   4.568   1.963  15.013  0.4023 -0.3000  0.2958
11513TIP3    H156030   4.498   1.944  15.075 -0.2927 -1.4363 -0.7900
11513TIP3    H256031   4.618   2.033  15.054 -0.1801 -0.8393  2.0051
11514TIP3   OH256032   6.544   6.354  13.298  0.1315  0.1940  0.2456
11514TIP3    H156033   6.501   6.362  13.383  1.1507 -0.8314  0.8840
11514TIP3    H256034   6.483   6.395  13.237 -1.2907 -0.3077  1.2581
11515TIP3   OH256035   0.442   4.630  13.232 -0.4738 -0.2034 -0.2864
11515TIP3    H156036   0.515   4.690  13.240  0.1954 -1.1267  0.7971
11515TIP3    H256037   0.440   4.606  13.139  0.5662 -0.1148 -0.3415
11516TIP3   OH256038   6.286   6.074  14.159  0.0591  0.4185  0.5786
11516TIP3    H156039   6.359   6.129  14.131  1.7172 -0.6808  2.3583
11516TIP3    H256040   6.246   6.042  14.078  0.7333  2.0938 -0.4523
11517TIP3   OH256041   2.751   5.646  11.102  0.2697 -0.0131  0.4899
11517TIP3    H156042   2.836   5.678  11.074  0.0029 -0.4412 -0.9057
11517TIP3    H256043   2.689   5.713  11.075  0.1067  0.0656  1.0441
11518TIP3   OH256044   4.650   2.551  11.750 -0.9175  0.3001  0.0293
11518TIP3    H156045   4.602   2.518  11.674 -1.1373  2.1375 -0.6605
11518TIP3    H256046   4.607   2.633  11.773 -0.4623  0.0983  1.7812
11519TIP3   OH256047   3.570   0.309  11.846 -0.2917 -0.1909  0.2960
11519TIP3    H156048   3.607   0.349  11.925 -1.5965  0.0784  0.7935
11519TIP3    H256049   3.475   0.318  11.857 -0.5616 -1.9013 -0.3927
11520TIP3   OH256050   6.029   4.628   1.354  0.2079  0.1641 -1.0691
11520TIP3    H156051   5.963   4.674   1.404  0.1973 -1.2534  0.3073
11520TIP3    H256052   5.979   4.574   1.293  0.1544  0.3796 -1.2166
11521TIP3   OH256053   1.552   3.612  15.577  0.4033 -0.6135  0.6653
11521TIP3    H156054   1.549   3.567  15.493  1.0435  3.2717 -1.6709
11521TIP3    H256055   1.473   3.666  15.579  2.0646  2.0152  0.7872
11522TIP3   OH256056   2.749   5.843  11.798  0.3345 -0.3665 -0.2414
11522TIP3    H156057   2.837   5.880  11.790  0.0238  0.4523  0.0156
11522TIP3    H256058   2.703   5.873  11.720  0.0634 -0.1565 -0.0037
11523TIP3   OH256059   2.249   2.459   4.179  0.8196  0.4691 -0.2088
11523TIP3    H156060   2.264   2.520   4.106 -1.6203  1.6422  0.1854
11523TIP3    H256061   2.247   2.514   4.256  1.4526 -0.5364  0.5558
11524TIP3   OH256062   1.352   2.536   5.074 -0.6166  0.6026  0.5638
11524TIP3    H156063   1.424   2.556   5.013 -1.8571 -0.9061 -1.5559
11524TIP3    H256064   1.363   2.443   5.094 -1.0822  0.7374  1.5015
11525TIP3   OH256065   4.528   0.226   1.805  0.2029  0.1632  0.4328
11525TIP3    H156066   4.517   0.275   1.887  0.5875  0.0531  0.5522
11525TIP3    H256067   4.620   0.200   1.805  0.8652  2.1997 -1.1606
11526TIP3   OH256068   4.892   6.381   3.222  0.0672 -0.4583 -1.1509
11526TIP3    H156069   4.964   6.420   3.174 -0.5554  0.5947 -1.2513
11526TIP3    H256070   4.854   6.317   3.162  0.7090 -0.7999 -1.2037
11527TIP3   OH256071   3.523   6.366  14.719  0.3410  0.0492 -0.0969
11527TIP3    H156072   3.490   6.329  14.800 -0.6689 -0.2374 -0.6187
11527TIP3    H256073   3.447   6.371  14.661  1.1544 -0.4008 -1.2639
11528TIP3   OH256074   5.365   3.907  15.279  0.2694  0.1963  0.1666
11528TIP3    H156075   5.321   3.836  15.326  0.9756  0.7957  1.8023
11528TIP3    H256076   5.352   3.886  15.186  0.4848 -2.0897  0.5997
11529TIP3   OH256077   6.144   1.110   6.206  0.0712 -0.2137  0.7340
11529TIP3    H156078   6.170   1.050   6.135 -1.8837 -2.1684  1.5464
11529TIP3    H256079   6.051   1.125   6.192  0.5734  3.1597  0.3058
11530TIP3   OH256080   5.915   3.604  12.779  0.2870 -0.0677 -0.0183
11530TIP3    H156081   5.958   3.665  12.720  0.6737  3.0457  3.1271
11530TIP3    H256082   5.822   3.616  12.762  0.3953 -1.7826 -2.2059
11531TIP3   OH256083   5.290   1.186  15.952 -0.2783  0.2103 -0.6947
11531TIP3    H156084   5.339   1.137  16.019 -0.1953  0.8177 -0.3007
11531TIP3    H256085   5.335   1.166  15.870  2.6219  3.0562 -0.0234
11532TIP3   OH256086   6.095   5.285  13.772 -0.3828  0.2355  0.0911
11532TIP3    H156087   6.178   5.253  13.737 -0.6572  0.7772 -1.1125
11532TIP3    H256088   6.048   5.206  13.801 -0.2798 -0.2761 -1.0950
11533TIP3   OH256089   6.757   5.128  14.945  0.7713  0.5197  0.1686
11533TIP3    H156090   6.752   5.036  14.918  0.2809  0.9262 -1.2442
11533TIP3    H256091   6.828   5.164  14.892 -0.4257  1.4279 -0.8844
11534TIP3   OH256092   6.654   1.535   0.003  0.6534 -0.0493 -0.0677
11534TIP3    H156093   6.660   1.475   0.078 -1.7104 -2.1280 -1.3801
11534TIP3    H256094   6.594   1.492  -0.057  0.9181  2.4737 -2.3294
11535TIP3   OH256095   1.733   3.149  15.466  0.0670  0.5070  0.5819
11535TIP3    H156096   1.688   3.085  15.522  0.1856 -0.2500 -0.1744
11535TIP3    H256097   1.685   3.146  15.383  0.7733  0.5715  0.1648
11536TIP3   OH256098   4.426   5.881  16.224 -0.4690 -0.5195  0.2283
11536TIP3    H156099   4.362   5.921  16.283 -0.3082 -0.6204  0.4713
11536TIP3    H256100   4.377   5.812  16.179 -0.4226 -0.8957  0.7415
11537TIP3   OH256101   1.836   3.228  16.442  0.5551 -0.1914 -0.3479
11537TIP3    H156102   1.834   3.287  16.367  1.4151  0.1286 -0.1247
11537TIP3    H256103   1.929   3.212  16.458  0.3488 -1.8183 -0.5652
11538TIP3   OH256104   6.133   1.766   1.428  0.4844  0.7685  0.0271
11538TIP3    H156105   6.143   1.861   1.427  1.0010  0.7659 -2.4292
11538TIP3    H256106   6.208   1.734   1.478  1.2082  1.6123 -0.4859
11539TIP3   OH256107   5.174   5.215  15.334  0.0514  0.1617 -0.1278
11539TIP3    H156108   5.217   5.296  15.362 -0.3056  1.0785 -2.0324
11539TIP3    H256109   5.082   5.241  15.321 -0.1414 -0.6365 -0.4059
11540TIP3   OH256110   1.149   5.518  13.921  0.1480  0.0237  0.1694
11540TIP3    H156111   1.118   5.570  13.996 -1.3407 -0.3883 -0.1383
11540TIP3    H256112   1.088   5.445  13.916  1.4872 -1.1119 -0.1741
11541TIP3   OH256113   3.593   5.674   3.063 -0.4298 -0.4389  0.4734
11541TIP3    H156114   3.593   5.608   3.132 -0.6352 -0.4484  0.4648
11541TIP3    H256115   3.651   5.743   3.095  0.1024 -0.7978  0.3145
11542TIP3   OH256116   3.127   0.339  13.681 -0.0635 -0.6533  0.0847
11542TIP3    H156117   3.120   0.308  13.772  1.1855  0.2858  0.5327
11542TIP3    H256118   3.041   0.377  13.662 -0.1127 -0.1748  1.1583
11543TIP3   OH256119   2.350   4.108  12.405 -0.4065  0.2465  0.3176
11543TIP3    H156120   2.424   4.060  12.369  0.3708 -1.0801  3.3354
11543TIP3    H256121   2.389   4.175  12.461 -1.4922  0.5659  0.7354
11544TIP3   OH256122   6.308   4.187  13.192  0.3158 -0.2505 -0.2828
11544TIP3    H156123   6.242   4.151  13.251 -0.6005  0.1960 -1.0041
11544TIP3    H256124   6.275   4.273  13.168  0.9589 -0.1866 -0.9840
11545TIP3   OH256125   3.405   4.212  13.685  0.0102  0.2068 -0.0545
11545TIP3    H156126   3.462   4.157  13.739  0.3022  1.2657  0.7463
11545TIP3    H256127   3.460   4.238  13.612 -0.1105 -0.4942 -0.4058
11546TIP3   OH256128   6.695   3.138   5.471 -0.1730  0.4761 -0.1073
11546TIP3    H156129   6.718   3.215   5.419 -1.7744  0.9903 -0.1119
11546TIP3    H256130   6.679   3.069   5.406 -0.5004  0.6489 -0.2144
11547TIP3   OH256131   5.104   6.558   5.946 -0.0692 -0.0758 -0.1570
11547TIP3    H156132   5.052   6.522   6.018 -1.7290  1.0798 -0.6871
11547TIP3    H256133   5.153   6.630   5.986 -2.4453  1.8460 -0.4001
11548TIP3   OH256134   4.580   4.788  10.783 -0.5230 -0.1227 -0.0171
11548TIP3    H156135   4.550   4.784  10.693 -2.1770  0.0647  0.4858
11548TIP3    H256136   4.667   4.826  10.778  0.0454 -1.5544 -1.6382
11549TIP3   OH256137   5.944   1.162   5.019 -0.2675  0.4762  0.1129
11549TIP3    H156138   5.988   1.145   5.102 -2.4734 -1.0138  1.0682
11549TIP3    H256139   5.861   1.202   5.043  0.1504  2.5231 -1.5785
11550TIP3   OH256140   0.680   5.624   3.823 -0.1803 -0.0993  0.1204
11550TIP3    H156141   0.748   5.599   3.760 -0.0448  1.2264 -0.2835
11550TIP3    H256142   0.728   5.641   3.904 -0.2327 -0.7872  0.2998
11551TIP3   OH256143   3.457   5.658  11.244  0.1641  0.0889 -0.2353
11551TIP3    H156144   3.543   5.656  11.203  0.1633  1.6786 -0.3776
11551TIP3    H256145   3.436   5.751  11.252 -1.7049 -0.2627 -0.5338
11552TIP3   OH256146   0.176   5.209  13.964  0.0480 -0.3302 -0.2744
11552TIP3    H156147   0.223   5.201  14.047 -0.4910 -0.5566  0.0164
11552TIP3    H256148   0.085   5.188  13.986 -0.2402  0.3489 -0.7696
11553TIP3   OH256149   1.300   1.381   4.130 -0.3460  0.5471 -0.2901
11553TIP3    H156150   1.360   1.451   4.157 -1.7133  1.3905  0.6262
11553TIP3    H256151   1.317   1.310   4.192  0.1797  0.5107 -0.4657
11554TIP3   OH256152   3.999   5.005  12.937  0.3558 -0.4477 -0.6706
11554TIP3    H156153   4.013   4.919  12.976  0.9018 -0.2871 -0.4958
11554TIP3    H256154   3.905   5.021  12.944  0.1894 -1.2138 -1.0982
11555TIP3   OH256155   0.117   5.778   0.606  0.2498 -0.3015 -0.1953
11555TIP3    H156156   0.027   5.796   0.633  0.2312  0.3872 -0.6994
11555TIP3    H256157   0.168   5.785   0.687 -0.2907 -1.9275  0.3454
11556TIP3   OH256158   4.099   1.787  11.250  0.2537  0.0889  0.3593
11556TIP3    H156159   4.034   1.783  11.179 -1.5495 -0.2311  1.9327
11556TIP3    H256160   4.050   1.762  11.329  2.2123  0.2760  1.7146
11557TIP3   OH256161   1.417   1.190   3.557  0.0464 -0.1456  0.5854
11557TIP3    H156162   1.453   1.126   3.495 -1.4154 -0.4403 -0.0042
11557TIP3    H256163   1.456   1.167   3.641  1.2641 -0.3990 -0.0252
11558TIP3   OH256164   0.251   4.491  12.749  0.2748 -0.2587  0.2555
11558TIP3    H156165   0.250   4.587  12.751  1.4611 -0.2455  1.3719
11558TIP3    H256166   0.194   4.468  12.675 -2.2410  1.2246  1.6033
11559TIP3   OH256167   3.554   4.951  16.477 -0.0298  0.4934 -0.8402
11559TIP3    H156168   3.530   4.925  16.388  1.1058 -1.8317 -0.5656
11559TIP3    H256169   3.473   4.984  16.516 -0.6509  1.0550 -2.5557
11560TIP3   OH256170   4.732   5.619   4.890  0.4771 -0.2941  0.3439
11560TIP3    H156171   4.679   5.633   4.969  0.2762  0.6768  0.0471
11560TIP3    H256172   4.800   5.557   4.918  0.4635  0.1010  1.3055
11561TIP3   OH256173   0.485   2.236  12.695 -0.1808 -0.5479 -0.2896
11561TIP3    H156174   0.558   2.264  12.640 -1.0462  2.7009  0.0517
11561TIP3    H256175   0.421   2.200  12.634 -0.1594  0.8433 -1.1690
11562TIP3   OH256176   4.001   1.923   4.595 -0.0556  0.5056  0.0448
11562TIP3    H156177   3.931   1.873   4.637  1.0115 -0.0577  1.2241
11562TIP3    H256178   4.054   1.957   4.667  1.2732  0.3471 -0.8032
11563TIP3   OH256179   5.401   5.669  14.797  0.3631  0.0443  0.5425
11563TIP3    H156180   5.331   5.733  14.780  0.3248 -0.2393 -0.4277
11563TIP3    H256181   5.355   5.587  14.813  0.4597 -0.1023  0.0865
11564TIP3   OH256182   0.634   0.037   2.598 -0.1040  0.5114  0.8145
11564TIP3    H156183   0.629   0.113   2.657  2.7240  0.6771  0.9589
11564TIP3    H256184   0.720  -0.002   2.616  0.2447 -0.3119 -2.1680
11565TIP3   OH256185   3.399   2.043  11.776  0.1890  0.2265 -0.1667
11565TIP3    H156186   3.451   2.002  11.845 -0.6898 -0.6992 -0.0524
11565TIP3    H256187   3.426   2.135  11.779  0.0447  0.2450  1.5240
11566TIP3   OH256188   5.891   6.233   1.524  0.2455  0.4062  0.1022
11566TIP3    H156189   5.842   6.234   1.605  0.1824 -2.6147  0.2335
11566TIP3    H256190   5.825   6.225   1.455  0.3637  1.6965 -0.1945
11567TIP3   OH256191   5.712   2.692   6.655 -0.2020 -0.7591 -0.1944
11567TIP3    H156192   5.700   2.787   6.647  0.5906 -0.5833  0.5794
11567TIP3    H256193   5.626   2.655   6.632  0.1198 -0.0105 -3.0181
11568TIP3   OH256194   3.901   6.579   3.171  0.2444 -0.5299  0.3232
11568TIP3    H156195   3.883   6.539   3.256 -0.0031 -2.2505 -0.4907
11568TIP3    H256196   3.996   6.580   3.164  0.2682 -0.3162  0.6356
11569TIP3   OH256197   1.936   1.621   4.934  0.1316  0.7812  0.1213
11569TIP3    H156198   1.883   1.609   5.013  0.1807  1.2001  0.2250
11569TIP3    H256199   1.874   1.609   4.862  0.2753 -0.4874  0.1964
11570TIP3   OH256200   3.963   4.155   0.236 -0.2831 -0.3909 -0.4962
11570TIP3    H156201   3.878   4.193   0.256  0.8329  1.8196  0.4188
11570TIP3    H256202   3.974   4.084   0.299 -0.0802  1.5261  1.7577
11571TIP3   OH256203   5.664   2.881  14.551  0.6216 -0.1583  0.1834
11571TIP3    H156204   5.593   2.855  14.610  1.6676 -0.5865  1.2896
11571TIP3    H256205   5.726   2.927  14.607  2.4192 -1.9549 -0.2077
11572TIP3   OH256206   1.127   0.168   0.285 -0.1455 -0.2402 -0.1033
11572TIP3    H156207   1.174   0.194   0.205 -0.6536 -0.8970 -0.6308
11572TIP3    H256208   1.046   0.219   0.282  0.7292  1.3281  1.1011
11573TIP3   OH256209   4.374   4.842  17.257 -0.4104  0.4279  0.0859
11573TIP3    H156210   4.421   4.925  17.269  1.2026 -0.6647  1.7242
11573TIP3    H256211   4.387   4.821  17.164  3.5173 -0.3738  0.6342
11574TIP3   OH256212   6.309   4.573  16.910 -0.1078 -0.3317 -0.3982
11574TIP3    H156213   6.219   4.555  16.936  0.1189 -1.9517 -0.5912
11574TIP3    H256214   6.309   4.664  16.882 -1.5213 -0.1011  0.2657
11575TIP3   OH256215   1.548   3.366   4.019  0.0918 -0.2892 -0.0166
11575TIP3    H156216   1.458   3.336   4.031 -0.2861 -0.0203 -1.8914
11575TIP3    H256217   1.566   3.352   3.926  1.2734  1.5944 -0.1265
11576TIP3   OH256218   5.688   4.713  14.974 -0.0448  0.2000 -0.6588
11576TIP3    H156219   5.745   4.712  14.897 -1.6287 -0.5730 -1.8865
11576TIP3    H256220   5.670   4.806  14.989 -0.0534  0.3454 -1.5005
11577TIP3   OH256221   4.980   6.755  11.462 -0.2116  0.3023  0.2162
11577TIP3    H156222   5.015   6.735  11.548 -1.6902  0.8208  0.9679
11577TIP3    H256223   4.895   6.711  11.460  0.5462 -1.2410 -1.6942
11578TIP3   OH256224   0.242   3.185   4.092 -0.2970 -0.2360  0.4439
11578TIP3    H156225   0.291   3.144   4.021 -0.5243 -1.9418  1.2363
11578TIP3    H256226   0.307   3.238   4.138 -0.2314  1.2168 -1.2244
11579TIP3   OH256227   2.309   5.022  15.128  0.4445 -0.0527  0.2257
11579TIP3    H156228   2.306   4.938  15.083  1.4026 -0.8479  1.5638
11579TIP3    H256229   2.396   5.058  15.106 -0.9565  1.9604 -2.5949
11580TIP3   OH256230   4.576   1.099  16.523  0.1639  0.2914 -0.5087
11580TIP3    H156231   4.585   1.027  16.461  1.1495 -0.1744  0.1614
11580TIP3    H256232   4.558   1.058  16.607  1.2186  0.7914 -0.0248
11581TIP3   OH256233   2.845   1.536   5.144  0.1982  0.4078 -0.3718
11581TIP3    H156234   2.905   1.587   5.199  1.5536  0.6151 -1.9238
11581TIP3    H256235   2.804   1.601   5.087 -0.6306  0.1241 -0.1068
11582TIP3   OH256236   1.040   1.056   1.083  0.4749  0.3982 -0.4730
11582TIP3    H156237   1.067   1.113   1.155 -0.0808 -1.1337  1.0151
11582TIP3    H256238   1.116   1.001   1.065  0.2974  0.1249 -0.3922
11583TIP3   OH256239   1.792   5.277   6.165  0.0959 -0.2144  0.3561
11583TIP3    H156240   1.852   5.203   6.177  0.5697  0.0407 -0.4379
11583TIP3    H256241   1.705   5.237   6.170  0.3477 -1.0003 -1.0259
11584TIP3   OH256242   2.202   5.138   3.810  0.2808 -0.1758 -0.2152
11584TIP3    H156243   2.108   5.158   3.809  0.3531  0.3571 -2.2831
11584TIP3    H256244   2.212   5.068   3.874 -1.3219  0.6203  0.9805
11585TIP3   OH256245   2.812   1.567  13.089 -0.3276 -0.5376 -0.4323
11585TIP3    H156246   2.880   1.627  13.058  0.8339 -1.5721  0.0117
11585TIP3    H256247   2.733   1.593  13.041  0.8595 -0.6250 -2.5863
11586TIP3   OH256248   6.196   3.642  14.251  0.1435  0.0347 -0.0473
11586TIP3    H156249   6.194   3.724  14.203  1.3795 -0.0657 -0.3043
11586TIP3    H256250   6.137   3.584  14.202 -0.5031  0.6679 -0.0293
11587TIP3   OH256251   2.059   4.989  11.715 -0.5316 -0.3500 -0.2273
11587TIP3    H156252   2.050   4.906  11.667 -0.2702 -0.0977 -0.7172
11587TIP3    H256253   2.149   4.989  11.746 -0.9821 -0.9866  1.1698
11588TIP3   OH256254   1.332   0.840  16.272 -0.3699 -0.7469 -0.2352
11588TIP3    H156255   1.286   0.891  16.339 -0.8940 -0.5169 -0.7667
11588TIP3    H256256   1.416   0.818  16.313  0.1116  1.0226 -0.2019
11589TIP3   OH256257   6.515   3.502   3.093 -0.2243  0.1893  0.4656
11589TIP3    H156258   6.546   3.593   3.087 -1.1935  0.4840 -0.5996
11589TIP3    H256259   6.514   3.483   3.186 -0.6397  1.5190  0.7595
11590TIP3   OH256260   6.768   5.868  15.223  0.3998 -0.0988 -0.2814
11590TIP3    H156261   6.819   5.871  15.304 -1.3690 -1.2634  0.9487
11590TIP3    H256262   6.779   5.779  15.190 -0.4573 -0.2494 -0.2058
11591TIP3   OH256263   4.263   2.220   2.866 -0.2547  0.1869 -0.7061
11591TIP3    H156264   4.352   2.250   2.885 -0.1917 -1.0218  1.2274
11591TIP3    H256265   4.216   2.299   2.840  0.6520  1.4194  1.1770
11592TIP3   OH256266   1.192   1.722   4.659 -0.1500 -0.2152  0.7988
11592TIP3    H156267   1.221   1.753   4.574 -2.9775 -0.2562 -0.3042
11592TIP3    H256268   1.203   1.798   4.717 -0.8228  0.7746 -0.3061
11593TIP3   OH256269   0.650   0.800  11.767  0.5353 -0.3201 -0.1178
11593TIP3    H156270   0.656   0.731  11.701 -1.3728  0.2062 -0.8866
11593TIP3    H256271   0.613   0.756  11.844 -1.2913 -0.0582 -0.8149
11594TIP3   OH256272   1.381   4.976   0.526 -0.0520 -0.0174  0.3483
11594TIP3    H156273   1.402   5.063   0.562 -0.0179  0.9518 -1.8629
11594TIP3    H256274   1.307   4.992   0.467  0.1939 -1.4223 -0.3662
11595TIP3   OH256275   4.835   1.332   0.113 -0.0191  0.4068  0.1420
11595TIP3    H156276   4.884   1.267   0.162  0.5494 -0.0583 -1.0133
11595TIP3    H256277   4.862   1.416   0.150 -0.3513  0.0350  1.2734
11596TIP3   OH256278   1.445   5.630  16.753  0.7525  0.0303  0.4914
11596TIP3    H156279   1.507   5.702  16.747  1.4487 -0.4455  1.5990
11596TIP3    H256280   1.496   5.558  16.790 -0.2854 -0.5807  0.7713
11597TIP3   OH256281   5.140   1.181   3.956  0.6000 -0.3452 -0.2355
11597TIP3    H156282   5.136   1.255   4.017 -1.5066 -0.1577 -0.5209
11597TIP3    H256283   5.186   1.216   3.880 -0.4763  0.7537 -0.4166
11598TIP3   OH256284   6.423   1.645  13.941 -0.1421  0.6577 -0.0940
11598TIP3    H156285   6.516   1.623  13.946 -0.5613 -1.9610 -1.8900
11598TIP3    H256286   6.378   1.567  13.973 -1.7433  1.0271 -1.3038
11599TIP3   OH256287   2.432   1.822  11.545 -0.5284  0.1292 -0.1750
11599TIP3    H156288   2.401   1.744  11.500 -0.8617 -0.1737  0.5698
11599TIP3    H256289   2.357   1.882  11.544 -0.0066  0.7967 -1.5131
11600TIP3   OH256290   5.536   6.469  12.190 -0.0057  0.2148 -0.0001
11600TIP3    H156291   5.629   6.466  12.166  0.1507  0.3179  0.5708
11600TIP3    H256292   5.501   6.385  12.161  0.5690 -0.3746  0.9846
11601TIP3   OH256293   4.206   3.294   5.043  0.0342  0.4957 -0.3301
11601TIP3    H156294   4.147   3.220   5.058  1.5554 -0.8926 -0.9280
11601TIP3    H256295   4.271   3.287   5.113  1.4883 -0.1325 -1.6807
11602TIP3   OH256296   5.172   5.357  12.282 -0.6264 -0.2487  0.1847
11602TIP3    H156297   5.156   5.421  12.212  3.2655 -0.7145 -1.3414
11602TIP3    H256298   5.210   5.409  12.353 -1.3208 -0.3116  0.6147
11603TIP3   OH256299   0.662   4.738   6.090  0.4038 -0.3093 -0.0418
11603TIP3    H156300   0.607   4.814   6.110 -1.1119 -0.6768 -2.4220
11603TIP3    H256301   0.715   4.766   6.015 -1.5511 -2.0445 -2.2516
11604TIP3   OH256302   3.784   1.369  13.577 -0.1725  0.3430 -0.1363
11604TIP3    H156303   3.809   1.279  13.602 -3.3918 -0.4736  0.5593
11604TIP3    H256304   3.812   1.376  13.486 -0.9447 -1.8660 -0.6161
11605TIP3   OH256305   3.870   5.364   5.793 -0.1584  0.2736 -0.2705
11605TIP3    H156306   3.950   5.377   5.843 -0.3479 -1.1742  0.4653
11605TIP3    H256307   3.805   5.420   5.836  0.4295  1.4371 -0.8604
11606TIP3   OH256308   2.242   2.813   5.847 -0.2780 -0.2649 -0.4731
11606TIP3    H156309   2.253   2.866   5.926  0.6315  3.1273 -2.6171
11606TIP3    H256310   2.284   2.730   5.867  0.4141  0.6636  2.4081
11607TIP3   OH256311   0.120   5.290   6.322 -0.3208 -0.4149  0.0744
11607TIP3    H156312   0.194   5.350   6.328 -1.4530  0.8875  1.9236
11607TIP3    H256313   0.159   5.206   6.298  1.6563  0.3808  0.3125
11608TIP3   OH256314   3.644   4.856  14.260  0.1063 -0.5988  0.5487
11608TIP3    H156315   3.567   4.905  14.229 -0.7709 -1.2065  1.6955
11608TIP3    H256316   3.673   4.808  14.183 -0.8824 -0.6253  0.1726
11609TIP3   OH256317   3.339   4.723   2.404  0.3681 -0.8268 -0.2807
11609TIP3    H156318   3.247   4.704   2.419  0.0892 -1.2345 -2.2977
11609TIP3    H256319   3.384   4.641   2.426  0.1309 -0.9817 -0.3718
11610TIP3   OH256320   1.177   4.789   5.553  0.2366  0.7604  0.1910
11610TIP3    H156321   1.207   4.817   5.467 -0.7804 -0.7493 -0.6845
11610TIP3    H256322   1.085   4.816   5.557 -0.1422 -0.4513  0.1860
11611TIP3   OH256323   3.868   4.289  12.078  0.2419 -0.1358  0.4380
11611TIP3    H156324   3.853   4.308  11.985  1.7682  0.0312  0.1929
11611TIP3    H256325   3.946   4.341  12.100  0.7062 -1.2241  1.4468
11612TIP3   OH256326   0.593   1.732   1.319  0.5947 -0.1176  0.5729
11612TIP3    H156327   0.672   1.687   1.348 -0.0801 -0.9071  1.2019
11612TIP3    H256328   0.535   1.730   1.394 -0.4899 -0.5992 -0.2620
11613TIP3   OH256329   6.695   2.672  11.246  0.0749 -0.2945 -1.0183
11613TIP3    H156330   6.782   2.671  11.207  0.9063  0.4016  0.6891
11613TIP3    H256331   6.711   2.690  11.339 -1.8601 -0.6642 -0.5702
11614TIP3   OH256332   4.372   3.774  11.380 -0.0711 -0.4665 -0.4808
11614TIP3    H156333   4.368   3.738  11.291 -0.1445 -1.5329 -0.0562
11614TIP3    H256334   4.462   3.760  11.408  0.5321  1.7582 -1.1320
11615TIP3   OH256335   3.410   1.262   0.710 -0.7571 -0.0505 -0.3018
11615TIP3    H156336   3.441   1.286   0.623  1.4032 -1.3514  0.0549
11615TIP3    H256337   3.425   1.168   0.717  0.1355  0.1922  1.8424
11616TIP3   OH256338   1.185   6.525   3.201  0.1278 -0.3175  0.6421
11616TIP3    H156339   1.148   6.473   3.272 -1.9837  1.2084  0.7516
11616TIP3    H256340   1.129   6.603   3.196  2.9104  1.8185  0.2577
11617TIP3   OH256341   2.959   1.779   4.803 -0.0230 -0.3842 -0.4526
11617TIP3    H156342   3.007   1.696   4.801 -1.9461 -1.6230  1.4227
11617TIP3    H256343   2.921   1.787   4.716  0.1205 -1.5083 -0.6300
11618TIP3   OH256344   4.714   5.344   5.235  0.5906  0.5300  0.0612
11618TIP3    H156345   4.674   5.429   5.254  3.0767  1.7423  0.2142
11618TIP3    H256346   4.737   5.348   5.142 -0.9407 -0.7712 -0.4249
11619TIP3   OH256347   3.001   4.371   2.954 -0.2033  0.3441 -0.0615
11619TIP3    H156348   3.074   4.315   2.927 -0.4841  0.1390 -0.4062
11619TIP3    H256349   2.976   4.339   3.041  0.2290  0.5273  0.1313
11620TIP3   OH256350   0.502   3.017  14.535  0.5710 -0.2554 -0.1670
11620TIP3    H156351   0.545   3.102  14.538  1.3144 -0.6178 -0.0493
11620TIP3    H256352   0.534   2.977  14.454 -0.0837 -0.2651 -0.4201
11621TIP3   OH256353   4.213   5.270   5.681  0.3838  0.2950  0.1586
11621TIP3    H156354   4.276   5.305   5.618 -1.3099 -1.3185 -2.6563
11621TIP3    H256355   4.128   5.305   5.651 -0.7291 -2.1742  0.2135
11622TIP3   OH256356   0.734   2.789  16.804 -0.4114 -0.4005 -0.0539
11622TIP3    H156357   0.683   2.709  16.818  1.2329 -1.6550 -0.9376
11622TIP3    H256358   0.791   2.768  16.730  1.6896  0.7839  1.1425
11623TIP3   OH256359   6.070   0.426  12.077 -0.8857 -0.2232 -0.1339
11623TIP3    H156360   5.977   0.448  12.075 -0.8463  0.2062  1.5120
11623TIP3    H256361   6.101   0.456  12.162  1.0803  0.8729 -1.1521
11624TIP3   OH256362   6.341   6.441  16.330  0.4417  0.0844 -0.0853
11624TIP3    H156363   6.428   6.476  16.347  0.5512 -0.2670  0.0848
11624TIP3    H256364   6.300   6.437  16.417  1.0819 -1.9457  0.1649
11625TIP3   OH256365   6.674   0.366   0.717  0.5010 -0.2874 -0.0581
11625TIP3    H156366   6.597   0.332   0.672  0.7034  0.5857 -1.1134
11625TIP3    H256367   6.694   0.301   0.784 -1.9100  0.0807  1.1187
11626TIP3   OH256368   4.069   4.078  15.044  0.1737  0.3222 -0.3809
11626TIP3    H156369   4.122   4.151  15.011 -1.3700  2.0641  0.8511
11626TIP3    H256370   4.132   4.022  15.090  1.6362  0.0176 -2.5867
11627TIP3   OH256371   1.111   2.842  15.020 -0.0365 -0.7519  0.2688
11627TIP3    H156372   1.125   2.932  15.050  0.7065 -0.3657 -1.1265
11627TIP3    H256373   1.070   2.798  15.095  2.6725 -0.1700  2.2543
11628TIP3   OH256374   4.103   5.124  16.320  0.5529 -0.2318  0.0132
11628TIP3    H156375   4.138   5.203  16.277  0.8224 -0.6188 -0.4934
11628TIP3    H256376   4.056   5.157  16.396  0.8486  0.4057 -0.0724
11629TIP3   OH256377   0.592   1.097   6.104 -0.0969 -0.3687 -0.2439
11629TIP3    H156378   0.687   1.112   6.106 -0.0793 -0.5442  0.6882
11629TIP3    H256379   0.583   1.004   6.084 -0.0625 -0.4594  0.1650
11630TIP3   OH256380   0.708   5.784  11.996  0.3747  0.4622  0.3471
11630TIP3    H156381   0.675   5.725  11.928  0.4665  1.2314 -0.3867
11630TIP3    H256382   0.663   5.757  12.076 -0.3775  0.0915 -0.1913
11631TIP3   OH256383   0.473   4.730   4.538  0.2110 -0.2922  0.9398
11631TIP3    H156384   0.418   4.753   4.464  0.5928  0.6865  0.9410
11631TIP3    H256385   0.541   4.674   4.502 -0.3160 -0.8420  0.7905
11632TIP3   OH256386   5.715   2.399  13.432  0.1651 -0.1356  0.8311
11632TIP3    H156387   5.800   2.442  13.425 -0.7893  1.7873  0.4078
11632TIP3    H256388   5.730   2.311  13.397  2.0039  0.1033  0.9227
11633TIP3   OH256389   2.872   3.861   4.111  0.7198  0.0456 -0.1018
11633TIP3    H156390   2.798   3.890   4.058 -0.6872 -2.0792  0.5246
11633TIP3    H256391   2.949   3.879   4.058 -0.1878  2.4247 -0.7488
11634TIP3   OH256392   0.335   2.768  12.771 -0.0527 -0.4353 -0.0708
11634TIP3    H156393   0.268   2.704  12.794  0.8745 -0.0057  5.0998
11634TIP3    H256394   0.411   2.716  12.745 -1.0973 -1.0371 -2.1398
11635TIP3   OH256395   1.071   0.786  12.653  0.0374 -0.2382 -0.1919
11635TIP3    H156396   1.119   0.869  12.642  0.9310 -0.5874  0.8543
11635TIP3    H256397   1.122   0.722  12.605 -0.6063 -0.2186 -0.9247
11636TIP3   OH256398   0.888   6.145  13.131  0.4123  0.9472  0.4358
11636TIP3    H156399   0.936   6.116  13.208  3.8393  1.4949 -1.3184
11636TIP3    H256400   0.933   6.104  13.057 -1.1139  2.4750 -1.4606
11637TIP3   OH256401   1.880   3.103   5.685 -0.1381 -0.2202  0.1291
11637TIP3    H156402   1.933   3.138   5.756 -0.4124  1.8904 -0.6362
11637TIP3    H256403   1.795   3.086   5.726  0.2305 -0.7610  0.6905
11638TIP3   OH256404   2.492   6.196   5.138  0.3307  0.4778 -0.2123
11638TIP3    H156405   2.566   6.197   5.077 -1.1250  0.4881 -2.0721
11638TIP3    H256406   2.449   6.280   5.123 -0.6737  0.0168  0.0368
11639TIP3   OH256407   0.679   3.389   3.521  0.6683 -1.1254  0.2923
11639TIP3    H156408   0.746   3.426   3.580  1.1735 -2.7702  0.8079
11639TIP3    H256409   0.600   3.438   3.541  1.2848 -0.3792  0.9913
11640TIP3   OH256410   4.052   1.819   2.351 -0.2895  0.2671 -0.0292
11640TIP3    H156411   4.066   1.783   2.439  0.6054  1.2470  0.2520
11640TIP3    H256412   3.958   1.837   2.347 -0.7939 -2.1316 -0.2234
11641TIP3   OH256413   2.193   5.311  15.355 -0.2450  0.4397 -0.3047
11641TIP3    H156414   2.143   5.337  15.432 -0.8598 -1.6637  0.0624
11641TIP3    H256415   2.127   5.280  15.293  0.4992 -1.7743 -0.0554
11642TIP3   OH256416   6.714   3.817   0.053 -0.2073 -0.4081  0.0168
11642TIP3    H156417   6.764   3.868   0.117  0.9026 -1.9045  0.4127
11642TIP3    H256418   6.674   3.746   0.105 -3.2299  0.9856 -0.2038
11643TIP3   OH256419   5.548   4.127  16.503  0.5335  0.4651 -0.4032
11643TIP3    H156420   5.479   4.130  16.569  0.0089  2.8862 -0.9667
11643TIP3    H256421   5.586   4.040  16.512  0.5066  0.6890  3.0949
11644TIP3   OH256422   4.160   6.379  12.219 -0.2263 -0.4762 -0.0538
11644TIP3    H156423   4.236   6.426  12.252 -0.8845 -0.7805  2.0418
11644TIP3    H256424   4.188   6.287  12.215 -0.3596 -0.5353  0.3454
11645TIP3   OH256425   3.620   2.281   6.427  0.1909  0.1767 -0.2460
11645TIP3    H156426   3.694   2.221   6.420  0.5473  0.2463  2.1482
11645TIP3    H256427   3.656   2.358   6.471 -0.7902  1.2361 -1.1976
11646TIP3   OH256428   4.495   1.849  17.179  0.9800 -0.0074  0.4917
11646TIP3    H156429   4.459   1.934  17.153  1.1316  0.0056  0.3292
11646TIP3    H256430   4.549   1.869  17.256  1.4578  0.1271  0.1211
11647TIP3   OH256431   3.380   2.242   1.542 -0.6083 -0.4541 -0.6223
11647TIP3    H156432   3.350   2.161   1.584 -0.7449  0.1694  0.5219
11647TIP3    H256433   3.475   2.238   1.549 -0.5893 -0.7785 -1.0692
11648TIP3   OH256434   1.446   2.658   5.961 -0.5564  0.5171 -0.6306
11648TIP3    H156435   1.514   2.598   5.992 -1.5681  0.2603  1.2656
11648TIP3    H256436   1.374   2.647   6.024 -2.2206  1.0290 -2.3561
11649TIP3   OH256437   4.119   4.501   3.852  0.0280  0.1326  0.1696
11649TIP3    H156438   4.137   4.548   3.933 -1.5361 -1.3828  1.4847
11649TIP3    H256439   4.192   4.440   3.842  1.8228  2.3562 -1.2981
11650TIP3   OH256440   0.686   3.703   0.603 -0.1436 -0.0549  0.2638
11650TIP3    H156441   0.695   3.660   0.688  0.9805 -1.9337 -0.7342
11650TIP3    H256442   0.660   3.633   0.544  0.1877  0.9770 -1.1478
11651TIP3   OH256443   4.915   4.024   5.505  0.1959  0.4758 -0.4127
11651TIP3    H156444   4.870   4.004   5.423 -2.4667  0.9359  0.8088
11651TIP3    H256445   4.924   4.119   5.505  0.6233  0.4341 -0.3975
11652TIP3   OH256446   1.629   6.037  12.531  0.4152  0.3947  0.0106
11652TIP3    H156447   1.724   6.038  12.545  0.2372  1.6134  1.3809
11652TIP3    H256448   1.603   5.946  12.548  1.0987  0.4678  1.5506
11653TIP3   OH256449   3.079   2.959  13.754  0.0441 -0.2421 -0.1055
11653TIP3    H156450   3.031   2.932  13.832  2.2453 -0.0883  1.4021
11653TIP3    H256451   3.122   3.041  13.780  2.7054 -1.3909 -0.6177
11654TIP3   OH256452   0.277   2.735  11.285 -0.4536 -0.9418 -0.0478
11654TIP3    H156453   0.215   2.711  11.216  0.3776  0.4286 -1.3343
11654TIP3    H256454   0.325   2.654  11.303 -0.2116 -1.1917 -1.6189
11655TIP3   OH256455   0.374   0.873   0.937  0.3783 -0.1777 -0.2191
11655TIP3    H156456   0.298   0.850   0.884  0.5454 -0.0715 -0.5102
11655TIP3    H256457   0.377   0.969   0.936  0.4243 -0.1773 -0.0787
11656TIP3   OH256458   0.610   2.549   5.358  0.1837  0.5015 -0.2310
11656TIP3    H156459   0.695   2.577   5.325  1.1997  0.5758  2.2155
11656TIP3    H256460   0.548   2.571   5.288  1.8539  2.5061 -1.1828
11657TIP3   OH256461   4.989   4.880   4.098  0.5064 -0.1126  0.1782
11657TIP3    H156462   4.948   4.801   4.132 -0.3122  0.9916  1.8632
11657TIP3    H256463   4.931   4.952   4.125  1.7343  1.1731 -0.4402
11658TIP3   OH256464   1.654   3.983   0.487  0.4235 -0.2461 -0.2818
11658TIP3    H156465   1.657   4.055   0.550  1.6783 -0.9433  0.4809
11658TIP3    H256466   1.585   3.925   0.520 -0.5040  0.5036 -0.8310
11659TIP3   OH256467   2.202   5.553  15.797  0.8618  0.3330 -0.2436
11659TIP3    H156468   2.148   5.513  15.866  1.6419 -1.5694 -0.7074
11659TIP3    H256469   2.259   5.614  15.845  0.7623 -0.2699  0.6723
11660TIP3   OH256470   4.565   0.514  15.786  0.0023  0.0842  0.3869
11660TIP3    H156471   4.523   0.536  15.703  1.5267  0.4937 -0.3041
11660TIP3    H256472   4.545   0.422  15.799 -1.4307  0.3523  0.3015
11661TIP3   OH256473   3.374   6.377  15.466  0.3380 -0.3007 -0.6252
11661TIP3    H156474   3.395   6.366  15.559 -0.6107  4.7090  0.4687
11661TIP3    H256475   3.279   6.362  15.461  0.1737  0.6295 -0.4739
11662TIP3   OH256476   1.791   2.237  13.803  0.3781  0.2398  0.4067
11662TIP3    H156477   1.786   2.155  13.851 -0.3868  0.0147 -0.0508
11662TIP3    H256478   1.843   2.295  13.860 -0.4140 -0.0505  1.4496
11663TIP3   OH256479   4.562   6.108   0.523  0.0478  0.6720  0.4552
11663TIP3    H156480   4.539   6.130   0.433 -0.3033 -1.4942 -0.0418
11663TIP3    H256481   4.658   6.115   0.526  0.2076 -0.7191 -0.5567
11664TIP3   OH256482   1.267   1.649   1.621  0.1310  0.1966 -0.6096
11664TIP3    H156483   1.353   1.627   1.657  0.1570 -2.3135 -1.9626
11664TIP3    H256484   1.206   1.635   1.693  0.6707  0.4314 -0.0964
11665TIP3   OH256485   1.048   4.375   0.230 -0.1153 -0.3793 -0.0672
11665TIP3    H156486   0.988   4.301   0.232  2.3634 -2.5190  0.2206
11665TIP3    H256487   1.083   4.380   0.319 -2.2918  3.1138  0.7836
11666TIP3   OH256488   4.305   2.852   5.057  0.5046  0.2214 -0.1999
11666TIP3    H156489   4.339   2.870   4.969 -0.3440  0.0369 -0.5758
11666TIP3    H256490   4.303   2.756   5.063  2.4701  0.1893  0.7967
11667TIP3   OH256491   0.493   5.418   2.337  0.0868  0.0169 -0.1509
11667TIP3    H156492   0.579   5.377   2.327 -0.2455 -0.9828  0.9455
11667TIP3    H256493   0.487   5.478   2.262  2.5029  1.5002  0.6942
11668TIP3   OH256494   3.478   1.655   3.840 -0.1633 -0.6604 -0.7337
11668TIP3    H156495   3.422   1.578   3.827 -0.3449 -1.1534  2.3762
11668TIP3    H256496   3.555   1.637   3.785 -0.0146 -3.2906  0.1819
11669TIP3   OH256497   3.533   3.920   1.417  0.2460 -0.3214  0.3071
11669TIP3    H156498   3.552   3.909   1.510 -1.4338  1.7387  0.9578
11669TIP3    H256499   3.584   3.996   1.391 -0.6746  0.2129  0.0220
11670TIP3   OH256500   3.170   0.483   2.256 -0.0095  0.0891  0.0752
11670TIP3    H156501   3.094   0.425   2.263 -0.7497  1.0976  0.6827
11670TIP3    H256502   3.140   0.555   2.200  0.6330  0.2931 -0.0139
11671TIP3   OH256503   5.876   1.942  12.394 -0.1489 -0.1763  0.2809
11671TIP3    H156504   5.872   1.884  12.471  0.2386 -0.2935  0.2162
11671TIP3    H256505   5.907   2.025  12.429  1.1624 -0.5587  0.0794
11672TIP3   OH256506   4.023   4.539  14.272 -0.2097  0.6619 -0.0919
11672TIP3    H156507   4.093   4.604  14.279 -0.3005  0.7165  0.3428
11672TIP3    H256508   4.042   4.477  14.343 -0.4617  0.5423 -0.1308
11673TIP3   OH256509   5.936   4.117   4.331 -0.1964 -0.5884 -0.7386
11673TIP3    H156510   5.944   4.151   4.420 -1.0701  0.2290 -0.9610
11673TIP3    H256511   6.023   4.131   4.293  0.0174 -0.4138 -0.2016
11674TIP3   OH256512   0.665   6.161   3.322 -0.0728 -0.6188  0.2094
11674TIP3    H156513   0.733   6.105   3.285  0.3002  0.0039 -0.0437
11674TIP3    H256514   0.659   6.236   3.263 -0.8556 -0.5783  0.3263
11675TIP3   OH256515   2.610   2.513   1.552 -0.0486 -0.4124  0.3845
11675TIP3    H156516   2.607   2.566   1.472 -2.0502 -0.5017  0.3641
11675TIP3    H256517   2.632   2.425   1.521 -2.3286 -0.8051 -0.3420
11676TIP3   OH256518   3.889   2.570   5.288 -0.4678 -0.4506 -0.0556
11676TIP3    H156519   3.875   2.479   5.315  0.0404 -0.5457 -0.1104
11676TIP3    H256520   3.916   2.564   5.196  4.1481 -0.6215  1.0948
11677TIP3   OH256521   5.824   6.473  12.156 -0.1103 -0.0393  0.0071
11677TIP3    H156522   5.895   6.530  12.124 -0.2393 -0.3229 -0.8193
11677TIP3    H256523   5.835   6.472  12.251  1.5867 -0.8509 -0.1618
11678TIP3   OH256524   3.174   3.683   4.313  0.3541  0.1787 -0.1617
11678TIP3    H156525   3.198   3.604   4.362 -0.3620  0.3566  0.4936
11678TIP3    H256526   3.258   3.723   4.289  0.7205 -0.1883  0.4692
11679TIP3   OH256527   1.046   1.426   2.871 -0.3121  0.3141  0.5896
11679TIP3    H156528   1.013   1.336   2.876  0.4445 -0.0616 -0.8381
11679TIP3    H256529   1.123   1.426   2.927 -1.0215  0.4367  1.6066
11680TIP3   OH256530   5.250   0.504   5.535  0.4471 -0.5676  0.1715
11680TIP3    H156531   5.248   0.598   5.517 -2.4293 -0.4999  0.4432
11680TIP3    H256532   5.205   0.465   5.460 -0.6001 -1.4814  1.2545
11681TIP3   OH256533   5.312   3.039   4.823  0.8876  0.0883 -0.1595
11681TIP3    H156534   5.223   3.049   4.857  1.0164 -0.1531  0.2468
11681TIP3    H256535   5.332   3.123   4.783 -0.1385 -0.3541 -1.7101
11682TIP3   OH256536   3.064   0.836   2.675  0.3417 -0.1253 -0.0746
11682TIP3    H156537   3.098   0.819   2.763  0.0856 -0.6959 -0.0813
11682TIP3    H256538   3.130   0.800   2.616  0.4997  0.2316 -0.1199
11683TIP3   OH256539   6.169   2.941  15.177 -0.1650 -0.6171 -0.3740
11683TIP3    H156540   6.076   2.943  15.199  0.1227 -2.4517  1.3638
11683TIP3    H256541   6.213   2.981  15.252  0.4743 -0.2521 -0.9324
11684TIP3   OH256542   3.179   0.187   1.812 -0.2855  0.2632 -0.1203
11684TIP3    H156543   3.210   0.114   1.865  1.1728 -0.5116 -1.9242
11684TIP3    H256544   3.096   0.156   1.775 -0.3135  0.0314  0.1331
11685TIP3   OH256545   0.706   2.618   4.155 -0.4003  0.7755  0.0081
11685TIP3    H156546   0.791   2.655   4.132 -0.8629  0.6402 -2.1093
11685TIP3    H256547   0.666   2.683   4.213  0.7772  1.2433  0.3305
11686TIP3   OH256548   1.241   1.432  11.866 -0.0673 -0.3172  0.2852
11686TIP3    H156549   1.237   1.519  11.908  0.0397 -1.1575  2.1546
11686TIP3    H256550   1.233   1.450  11.773  1.3615  1.8270  0.4999
11687TIP3   OH256551   5.225   3.532  17.096  0.2586 -0.4286  0.4832
11687TIP3    H156552   5.266   3.520  17.010 -3.3825 -0.0861 -1.5202
11687TIP3    H256553   5.248   3.622  17.120 -0.4861  0.3109 -1.3354
11688TIP3   OH256554   4.109   6.075   2.165 -0.0618  0.3973  0.4725
11688TIP3    H156555   4.080   6.157   2.126 -0.5258  1.1807  2.3389
11688TIP3    H256556   4.044   6.057   2.233 -0.1831 -1.7333 -0.1142
11689TIP3   OH256557   4.177   0.608  16.300  0.2018 -0.2749  0.1710
11689TIP3    H156558   4.254   0.664  16.312 -0.1450  0.1075  0.6042
11689TIP3    H256559   4.134   0.607  16.385 -0.5243 -0.1277 -0.1897
11690TIP3   OH256560   4.757   1.172  17.152  0.1653 -0.3336 -0.0008
11690TIP3    H156561   4.674   1.167  17.199 -0.1774 -0.5528 -0.6150
11690TIP3    H256562   4.817   1.214  17.213 -0.2012 -0.8480  0.7240
11691TIP3   OH256563   3.177   2.214   3.233 -0.2581 -0.5466 -0.2593
11691TIP3    H156564   3.179   2.243   3.324 -0.9557 -1.0222 -0.0910
11691TIP3    H256565   3.101   2.259   3.196 -0.6796 -1.2783 -0.2912
11692TIP3   OH256566   1.663   3.198  11.670 -0.6396  0.1380  0.2139
11692TIP3    H156567   1.694   3.131  11.731 -2.5356 -1.2974 -0.2747
11692TIP3    H256568   1.567   3.194  11.678 -0.8118  2.9304  0.2615
11693TIP3   OH256569   2.578   2.119  12.555  0.2003  0.3004  0.1455
11693TIP3    H156570   2.491   2.112  12.595  0.2583  1.4856  0.5279
11693TIP3    H256571   2.563   2.168  12.474  0.3827 -0.3009 -0.2536
11694TIP3   OH256572   5.891   2.848   1.418  0.2714 -0.1327 -0.1453
11694TIP3    H156573   5.919   2.855   1.327 -1.4154 -1.7796 -0.8541
11694TIP3    H256574   5.796   2.835   1.413  0.2569 -1.1289  1.7794
11695TIP3   OH256575   5.768   3.213  16.076  0.2163  0.1381 -0.3291
11695TIP3    H156576   5.770   3.307  16.057  1.3099  0.7325  2.1760
11695TIP3    H256577   5.693   3.202  16.135  0.6522 -0.3595  0.1476
11696TIP3   OH256578   6.035   2.390   4.621  0.4580  0.0428 -0.5572
11696TIP3    H156579   6.036   2.341   4.539  0.1158  0.9643 -1.1214
11696TIP3    H256580   6.035   2.481   4.595 -2.6162  0.4249  0.3899
11697TIP3   OH256581   1.374   3.212  16.766  0.6107 -0.1758 -0.4722
11697TIP3    H156582   1.299   3.241  16.715 -0.8256 -2.7944 -0.0388
11697TIP3    H256583   1.336   3.168  16.842  2.6020 -0.9096  0.1739
11698TIP3   OH256584   5.461   4.562   0.864 -0.6703 -0.1969 -0.2424
11698TIP3    H156585   5.450   4.577   0.770 -1.0473  2.5788  0.1548
11698TIP3    H256586   5.381   4.518   0.891 -1.8140  1.4361 -0.8174
11699TIP3   OH256587   3.475   4.938  12.399  0.8826 -0.7002 -0.2720
11699TIP3    H156588   3.509   5.006  12.457  0.2349  0.3304 -1.0729
11699TIP3    H256589   3.474   4.859  12.454 -0.8375  0.4621  1.5606
11700TIP3   OH256590   3.169   3.014   3.635 -0.3651  0.1117 -0.4974
11700TIP3    H156591   3.242   3.028   3.694 -1.6367 -1.9306  1.7282
11700TIP3    H256592   3.094   2.994   3.692 -1.7766 -1.6043 -2.7363
11701TIP3   OH256593   5.329   5.181  13.974 -0.2073 -0.3666  0.5771
11701TIP3    H156594   5.340   5.119  14.046 -0.1304 -1.1614 -0.1077
11701TIP3    H256595   5.402   5.242  13.984  0.3906 -1.0743  0.5809
11702TIP3   OH256596   6.702   3.900   3.484 -0.4320  0.2044 -0.2557
11702TIP3    H156597   6.762   3.929   3.552 -0.6435  0.4890 -0.1879
11702TIP3    H256598   6.716   3.961   3.411  0.3879 -0.6041 -0.7866
11703TIP3   OH256599   4.702   5.069  11.908  0.1937  0.1924 -0.2173
11703TIP3    H156600   4.720   4.983  11.944  1.4115  0.8423  0.7947
11703TIP3    H256601   4.778   5.122  11.933 -1.0052  1.8266  0.0925
11704TIP3   OH256602   0.909   5.328   6.389 -0.4151  0.7965 -0.5817
11704TIP3    H156603   0.986   5.376   6.421 -0.6213  1.8015 -1.5093
11704TIP3    H256604   0.937   5.292   6.305 -0.9687  1.2099 -0.9463
11705TIP3   OH256605   3.699   1.490  12.140  0.2354  0.6562 -0.0932
11705TIP3    H156606   3.648   1.500  12.060 -0.4139 -0.8204  0.1123
11705TIP3    H256607   3.656   1.547  12.204 -0.7642 -0.0504 -0.1163
11706TIP3   OH256608   4.044   1.969  16.242  0.1112  0.1843 -0.2598
11706TIP3    H156609   4.030   1.921  16.324  0.2217  1.1405  0.3341
11706TIP3    H256610   4.106   2.039  16.265  1.5320 -0.5771 -1.5613
11707TIP3   OH256611   5.648   5.231  15.754  0.2500 -0.8696  0.1431
11707TIP3    H156612   5.738   5.250  15.783  1.0389 -0.5927 -2.2782
11707TIP3    H256613   5.595   5.300  15.792  1.5284  0.5765 -0.5751
11708TIP3   OH256614   5.053   2.094  12.178 -0.4234 -0.9945  0.4415
11708TIP3    H156615   4.971   2.127  12.141  0.5368  0.4751 -0.4319
11708TIP3    H256616   5.117   2.162  12.160  1.2965 -2.6696 -0.0164
11709TIP3   OH256617   5.742   0.735   3.477  0.1713 -0.0663 -0.3884
11709TIP3    H156618   5.809   0.740   3.545 -1.5850 -2.4931  1.7224
11709TIP3    H256619   5.708   0.825   3.471  1.6491  0.5964  0.5394
11710TIP3   OH256620   6.167   6.493   1.818 -0.5966 -0.2548  0.3174
11710TIP3    H156621   6.131   6.502   1.906  0.5418 -1.9957  1.0214
11710TIP3    H256622   6.261   6.507   1.828 -0.6954  1.8830 -1.0718
11711TIP3   OH256623   6.822   1.007  14.918  0.0934  0.0206  0.1575
11711TIP3    H156624   6.799   1.022  15.010  0.6507 -1.0676  0.4850
11711TIP3    H256625   6.767   0.933  14.892 -0.3134  0.5361 -0.5072
11712TIP3   OH256626   0.141   4.894   5.132 -0.2667 -0.5039 -0.6661
11712TIP3    H156627   0.172   4.979   5.101 -0.2420 -0.8358 -1.5751
11712TIP3    H256628   0.221   4.843   5.145 -0.1823  0.0179  1.1937
11713TIP3   OH256629   0.772   3.500   3.169  0.8076  0.1206 -0.2338
11713TIP3    H156630   0.696   3.478   3.223  1.6292  0.0885  0.9448
11713TIP3    H256631   0.760   3.449   3.089  0.2890 -0.9854  0.5142
11714TIP3   OH256632   5.698   4.336   5.669  0.1874 -0.3298 -0.2851
11714TIP3    H156633   5.605   4.318   5.686 -0.5391  1.3057 -2.1031
11714TIP3    H256634   5.739   4.334   5.755 -1.7495  0.0232  0.7049
11715TIP3   OH256635   2.455   3.097  13.680  0.0628  0.0190  0.3192
11715TIP3    H156636   2.431   3.090  13.588 -2.0983 -0.5830  0.8667
11715TIP3    H256637   2.489   3.186  13.690 -1.4986  0.7651 -0.6896
11716TIP3   OH256638   0.593   4.478  17.186 -0.6337 -0.1800 -0.1473
11716TIP3    H156639   0.500   4.472  17.165 -1.2605 -0.2770  2.3358
11716TIP3    H256640   0.615   4.392  17.223  0.1626  0.1701  0.2279
11717TIP3   OH256641   2.329   6.316  15.236 -0.1750  1.1697  0.9305
11717TIP3    H156642   2.384   6.291  15.162 -2.5529  2.3080 -1.3609
11717TIP3    H256643   2.255   6.256  15.233 -1.2217  2.4119  1.2269
11718TIP3   OH256644   5.421   0.254   3.838 -0.6482 -0.3746  0.0178
11718TIP3    H156645   5.390   0.251   3.928 -1.0603  0.7699 -0.0696
11718TIP3    H256646   5.465   0.170   3.825  0.0264 -0.2781  1.4891
11719TIP3   OH256647   0.631   2.562   1.731  0.0808  1.0630  0.1397
11719TIP3    H156648   0.589   2.495   1.677 -1.0866 -0.1506  2.3992
11719TIP3    H256649   0.724   2.554   1.711 -0.2196 -0.0348 -0.9244
11720TIP3   OH256650   5.325   3.802  15.008 -0.2147 -0.5373  0.1021
11720TIP3    H156651   5.259   3.783  14.941 -0.6886 -0.4355  0.5281
11720TIP3    H256652   5.359   3.716  15.033 -0.4117 -0.6160  0.1032
11721TIP3   OH256653   3.368   2.994   6.034 -0.1909 -0.0347 -0.2262
11721TIP3    H156654   3.449   3.000   6.084  0.4382 -0.2516 -1.1737
11721TIP3    H256655   3.337   2.904   6.050 -0.7075  0.3149  0.8021
11722TIP3   OH256656   1.841   4.971   3.507  0.0808  0.4509 -0.2572
11722TIP3    H156657   1.903   4.957   3.436  1.6861  0.2401  1.1145
11722TIP3    H256658   1.768   4.911   3.488  0.5184  0.3341 -1.6472
11723TIP3   OH256659   2.457   0.283  10.876  0.7362 -0.2469 -0.7945
11723TIP3    H156660   2.461   0.343  10.801 -3.1891  3.4332  1.4924
11723TIP3    H256661   2.510   0.326  10.943  0.9575 -1.4133 -0.2041
11724TIP3   OH256662   1.051   5.643  15.448  0.2043  0.2982  0.1753
11724TIP3    H156663   1.092   5.664  15.364  1.2017  0.6795  0.7387
11724TIP3    H256664   1.046   5.548  15.449  0.0966  0.2990 -0.3654
11725TIP3   OH256665   2.717   0.654   0.484  0.2408  0.2183  0.3832
11725TIP3    H156666   2.740   0.659   0.391 -1.3495 -2.8576 -0.2849
11725TIP3    H256667   2.791   0.608   0.524  0.3140  0.3341  0.3812
11726TIP3   OH256668   1.065   2.322   4.472  1.1529 -0.2366  0.2153
11726TIP3    H156669   1.155   2.356   4.469  1.2694 -0.4941 -3.3952
11726TIP3    H256670   1.016   2.381   4.416 -0.1944 -1.9493 -0.4919
11727TIP3   OH256671   0.547   5.023  14.660 -0.0146 -0.5624 -0.0553
11727TIP3    H156672   0.484   5.093  14.644  1.8477  0.4787 -3.9161
11727TIP3    H256673   0.596   5.053  14.737  0.5084  2.3255 -1.3858
11728TIP3   OH256674   6.599   2.161  12.388 -0.0578  0.4572 -0.0963
11728TIP3    H156675   6.664   2.168  12.459 -0.1907  2.2834 -0.0977
11728TIP3    H256676   6.519   2.195  12.426  0.1710  2.6896 -1.4418
11729TIP3   OH256677   0.210   0.750   4.246  0.1160  0.5952  0.3641
11729TIP3    H156678   0.286   0.760   4.303 -0.4496  0.7725  1.1096
11729TIP3    H256679   0.240   0.692   4.176  0.1794 -1.5939  2.0856
11730TIP3   OH256680   3.749   4.668  14.102 -0.1225  0.0441  0.0448
11730TIP3    H156681   3.709   4.596  14.151 -1.0747 -1.5465 -2.8375
11730TIP3    H256682   3.842   4.646  14.099 -0.1326 -0.1089  0.6211
11731TIP3   OH256683   5.475   6.088   1.345  0.1282  0.7241  0.2724
11731TIP3    H156684   5.552   6.035   1.329 -0.8949 -0.8133  0.2466
11731TIP3    H256685   5.429   6.090   1.261 -0.8296 -0.0108  0.7614
11732TIP3   OH256686   3.745   1.842  11.415  0.0964 -0.5734 -0.9355
11732TIP3    H156687   3.692   1.805  11.344  0.8460 -0.8549 -1.3551
11732TIP3    H256688   3.796   1.768  11.448 -0.3311 -0.4746 -0.0113
11733TIP3   OH256689   2.516   3.640   3.940 -0.0524  0.0337  0.0639
11733TIP3    H156690   2.554   3.727   3.944  0.1760 -0.0919  0.9205
11733TIP3    H256691   2.520   3.608   4.030 -0.5161 -0.6971 -0.1639
11734TIP3   OH256692   5.081   2.943   2.304  0.0732  0.6232  0.5032
11734TIP3    H156693   4.994   2.959   2.341 -0.6810 -3.0551  0.6708
11734TIP3    H256694   5.064   2.911   2.215  1.4931  2.5514 -0.5415
11735TIP3   OH256695   6.337   5.675   0.066 -0.4649  0.0814 -0.1351
11735TIP3    H156696   6.341   5.588   0.026 -0.3365 -0.3967  0.8865
11735TIP3    H256697   6.244   5.689   0.085 -0.4564  0.0640 -0.0799
11736TIP3   OH256698   6.704   5.552   6.231 -0.4381 -0.5097  0.2253
11736TIP3    H156699   6.695   5.495   6.307 -0.6162 -0.1980  0.4443
11736TIP3    H256700   6.792   5.590   6.240 -1.0720  0.8453  1.2323
11737TIP3   OH256701   6.575   0.588   4.067 -0.0659  0.4692 -0.1779
11737TIP3    H156702   6.615   0.583   3.980  0.7351  0.6482  0.1765
11737TIP3    H256703   6.615   0.517   4.117  0.0487  0.8473  0.2765
11738TIP3   OH256704   1.576   2.554  15.180 -0.3564  0.0512  0.2797
11738TIP3    H156705   1.520   2.568  15.257  0.1178 -0.6567  0.7728
11738TIP3    H256706   1.538   2.478  15.136  0.5080 -0.7888  0.9282
11739TIP3   OH256707   2.983   5.269   1.944 -0.1519 -0.2321  0.1427
11739TIP3    H156708   3.073   5.300   1.932  0.1156 -0.7571  0.7525
11739TIP3    H256709   2.939   5.339   1.993  0.0202 -0.1331  0.1555
11740TIP3   OH256710   5.221   4.908   1.817  0.4138  0.2154 -0.0813
11740TIP3    H156711   5.176   4.834   1.858  0.1421 -0.3296 -1.3058
11740TIP3    H256712   5.314   4.887   1.825  0.3121 -0.9178 -1.5401
11741TIP3   OH256713   2.265   6.772   3.428  0.0629  0.3367  0.2936
11741TIP3    H156714   2.261   6.857   3.470 -0.3169  0.1846  0.5698
11741TIP3    H256715   2.242   6.709   3.497 -1.7486  0.1649 -0.3947
11742TIP3   OH256716   6.007   5.282   4.256 -0.5116 -0.1326 -0.2450
11742TIP3    H156717   6.027   5.335   4.334  1.0930 -2.1075  0.7742
11742TIP3    H256718   6.018   5.342   4.183  1.6613  0.8808  0.8182
11743TIP3   OH256719   4.730   1.527   4.521  0.3118 -0.5046  0.2364
11743TIP3    H156720   4.674   1.450   4.521  0.8631 -0.9201 -1.2052
11743TIP3    H256721   4.735   1.552   4.614 -1.6170 -0.8917  0.4936
11744TIP3   OH256722   6.394   0.254   3.388 -0.1552  0.0205 -0.0058
11744TIP3    H156723   6.379   0.173   3.341  0.0554 -0.0615  0.0677
11744TIP3    H256724   6.388   0.322   3.321  2.3514 -0.2548 -0.5955
11745TIP3   OH256725   6.167   0.513   6.674  0.1039  0.2189  0.2601
11745TIP3    H156726   6.215   0.490   6.594 -0.1480 -0.7061  0.3719
11745TIP3    H256727   6.117   0.435   6.696  0.5515  0.2813  1.6025
11746TIP3   OH256728   1.119   1.205   1.925  0.0871  0.3392  0.3223
11746TIP3    H156729   1.031   1.229   1.952  0.9060  1.6856  1.9528
11746TIP3    H256730   1.176   1.266   1.971  1.8505  0.0438 -1.3288
11747TIP3   OH256731   3.605   3.310   5.658 -0.0250  0.2498  0.4537
11747TIP3    H156732   3.579   3.393   5.698 -0.2947  0.2108  0.3648
11747TIP3    H256733   3.639   3.258   5.730 -0.4533  0.1993  0.6250
11748TIP3   OH256734   3.768   1.949  13.503  0.2553  0.8075 -0.0530
11748TIP3    H156735   3.679   1.924  13.478  0.2354  2.1847 -1.5503
11748TIP3    H256736   3.756   2.000  13.583 -0.1709  0.0722  0.3637
11749TIP3   OH256737   5.737   6.621   2.098  0.0151  0.1277  0.8358
11749TIP3    H156738   5.811   6.681   2.093 -0.6582  0.9562  0.6306
11749TIP3    H256739   5.701   6.634   2.186 -1.1899  1.3394  0.2005
11750TIP3   OH256740   5.247   1.258  11.940 -0.1068  0.3046 -0.2851
11750TIP3    H156741   5.170   1.246  11.995  0.4278 -0.3264  0.3396
11750TIP3    H256742   5.305   1.314  11.992 -0.7071  1.9788 -1.3299
11751TIP3   OH256743   1.588   2.209  12.206  0.8289  0.1070 -0.3384
11751TIP3    H156744   1.500   2.199  12.170  1.2395 -0.2341 -1.2722
11751TIP3    H256745   1.629   2.276  12.151  1.7733 -1.0912 -1.1321
11752TIP3   OH256746   0.720   2.713   5.975  0.1959 -0.1395 -0.1934
11752TIP3    H156747   0.780   2.672   6.037 -0.8440 -1.0523  0.2572
11752TIP3    H256748   0.665   2.640   5.944 -1.9189  0.9010  0.8685
11753TIP3   OH256749   2.236   5.697   6.433 -0.1512  0.1871  0.4280
11753TIP3    H156750   2.257   5.673   6.523 -0.3047  0.2993  0.4939
11753TIP3    H256751   2.293   5.773   6.415 -1.1309  1.0677  0.9119
11754TIP3   OH256752   5.516   3.945   0.587  0.1550 -0.0442 -0.1014
11754TIP3    H156753   5.513   3.893   0.507 -1.6099  0.2005 -0.2328
11754TIP3    H256754   5.585   4.010   0.571 -0.5636  0.3707 -1.6811
11755TIP3   OH256755   0.852   1.682   4.169 -0.2349  0.0752  0.1721
11755TIP3    H156756   0.829   1.663   4.078 -1.5218  0.3097  0.4201
11755TIP3    H256757   0.893   1.601   4.201  0.4069  0.0591 -0.6571
11756TIP3   OH256758   4.007   0.244   3.378  0.0122 -0.5660 -0.2844
11756TIP3    H156759   4.007   0.271   3.286 -0.4835  1.0401  0.1425
11756TIP3    H256760   3.967   0.318   3.424 -1.0379 -1.9198  1.0672
11757TIP3   OH256761   2.872   2.758  12.010  0.2161  0.0094  0.3056
11757TIP3    H156762   2.931   2.685  12.029 -1.3492 -1.5318 -0.4858
11757TIP3    H256763   2.896   2.786  11.922  0.8358  0.4942  0.6198
11758TIP3   OH256764   0.868   4.806   5.266 -0.2323  0.6301 -0.0144
11758TIP3    H156765   0.796   4.853   5.224 -0.0194 -0.2214 -1.3962
11758TIP3    H256766   0.827   4.729   5.306  0.0134 -0.5342 -1.8766
11759TIP3   OH256767   4.058   3.585   4.038 -0.0736  0.2057  0.2786
11759TIP3    H156768   4.099   3.658   4.085 -0.3279  0.6219 -0.1364
11759TIP3    H256769   3.965   3.608   4.035 -0.2266 -0.3536  0.5288
11760TIP3   OH256770   1.093   5.542   5.216  0.1645  1.1039  0.1758
11760TIP3    H156771   1.014   5.501   5.181  1.0618  0.0036 -0.6233
11760TIP3    H256772   1.103   5.623   5.166  0.6787  0.2118 -1.2223
11761TIP3   OH256773   2.852   0.725  12.117  0.4473  0.3562 -0.1253
11761TIP3    H156774   2.838   0.635  12.145 -2.9581 -0.3703 -3.3151
11761TIP3    H256775   2.798   0.778  12.175  0.6991  0.0646  0.3747
11762TIP3   OH256776   5.739   0.446   0.316 -0.8038 -0.4954 -0.0211
11762TIP3    H156777   5.733   0.424   0.409 -0.0039 -0.7103 -0.0210
11762TIP3    H256778   5.828   0.423   0.291 -1.2070 -1.0535 -1.0003
11763TIP3   OH256779   3.949   3.842  16.636 -0.9850 -0.3343  0.5774
11763TIP3    H156780   4.032   3.795  16.628 -0.3511  0.9566 -1.1605
11763TIP3    H256781   3.902   3.796  16.705  1.5875 -0.5035  2.3795
11764TIP3   OH256782   4.030   1.880  11.753  0.2064  0.2258  0.0402
11764TIP3    H156783   4.082   1.800  11.766 -0.5458 -0.4891 -1.1764
11764TIP3    H256784   3.941   1.856  11.779  0.3832  1.3959  1.9438
11765TIP3   OH256785   0.917   1.304   3.159  0.6930 -0.8351  0.1668
11765TIP3    H156786   0.938   1.233   3.098  1.3924 -1.7592  1.4268
11765TIP3    H256787   0.941   1.384   3.113  0.6335 -1.4595 -0.9912
11766TIP3   OH256788   4.767   3.096   0.726 -0.3070 -0.3676 -0.1569
11766TIP3    H156789   4.744   3.053   0.808 -2.1381  0.5580 -0.1177
11766TIP3    H256790   4.712   3.053   0.660 -0.6715  0.5219 -0.4523
11767TIP3   OH256791   3.561   1.897   4.440  0.9553  0.8797  0.0580
11767TIP3    H156792   3.519   1.973   4.482  0.6463  0.6470  0.1745
11767TIP3    H256793   3.528   1.822   4.489  1.2201  0.6659 -0.0932
11768TIP3   OH256794   0.717   2.784  16.098 -0.5425 -0.1616 -0.3144
11768TIP3    H156795   0.671   2.830  16.027 -0.2804  0.8388  0.1479
11768TIP3    H256796   0.651   2.774  16.166 -0.4623  0.0241 -0.2065
11769TIP3   OH256797   3.960   3.589   3.210  0.9533 -0.7777  0.5490
11769TIP3    H156798   3.955   3.493   3.210 -0.4288 -0.7306  0.5338
11769TIP3    H256799   3.931   3.614   3.298 -1.0769 -0.3188 -0.2051
11770TIP3   OH256800   3.896   6.090  14.466  0.2046  0.2088 -0.0557
11770TIP3    H156801   3.953   6.093  14.543  0.5247  0.3692 -0.2941
11770TIP3    H256802   3.820   6.142  14.490  0.4986  0.6209  0.0008
11771TIP3   OH256803   1.507   4.559   3.261 -0.5880  0.0202  0.7040
11771TIP3    H156804   1.424   4.519   3.238 -0.2174  0.3103 -1.3932
11771TIP3    H256805   1.521   4.625   3.193  1.3612 -0.0520  0.9796
11772TIP3   OH256806   3.718   3.145   3.567 -0.0796  0.5647 -0.2402
11772TIP3    H156807   3.759   3.155   3.653  0.1272  1.9842 -0.4754
11772TIP3    H256808   3.694   3.052   3.563  1.5039  0.0702  0.6204
11773TIP3   OH256809   5.040   2.546  13.291  0.6624  0.1258  0.3668
11773TIP3    H156810   4.984   2.546  13.213  0.6381 -0.5960  0.3806
11773TIP3    H256811   5.122   2.508  13.262  0.2676 -1.2351  0.9467
11774TIP3   OH256812   6.740   3.239  13.542  0.6153 -0.3153  0.0362
11774TIP3    H156813   6.751   3.249  13.637 -0.1167  0.0889  0.0810
11774TIP3    H256814   6.826   3.261  13.506  1.2150 -1.5041  0.6692
11775TIP3   OH256815   1.288   0.057  10.303  0.4478  0.6797 -0.2951
11775TIP3    H156816   1.215   0.031  10.247 -1.6040  2.3443  1.4040
11775TIP3    H256817   1.310  -0.021  10.352 -1.9866  0.6998  0.9668
11776TIP3   OH256818   5.416   2.226   2.026 -0.0745  0.0894 -0.6972
11776TIP3    H156819   5.454   2.307   2.059  0.6471  0.5623 -2.5965
11776TIP3    H256820   5.485   2.161   2.036 -0.3869 -0.1322  0.1035
11777TIP3   OH256821   0.898   4.279  12.302  0.0073  0.0185 -0.5854
11777TIP3    H156822   0.925   4.188  12.311  0.4452  0.2139  0.1195
11777TIP3    H256823   0.880   4.289  12.209 -1.1561 -1.0920 -0.5151
11778TIP3   OH256824   3.202   2.853  15.188  0.1920  0.4709 -0.0686
11778TIP3    H156825   3.174   2.788  15.253  2.1059 -2.1584 -1.6603
11778TIP3    H256826   3.294   2.869  15.209  0.2722  1.1694 -0.9160
11779TIP3   OH256827   2.350   6.009   2.785  0.8493  0.0847 -0.2764
11779TIP3    H156828   2.394   5.928   2.809  2.7031  0.8440 -0.9384
11779TIP3    H256829   2.330   6.051   2.869  0.4289 -0.7411  0.0522
11780TIP3   OH256830   5.460   6.552   6.004 -0.2027  0.1533 -0.5324
11780TIP3    H156831   5.523   6.580   6.071 -0.4527  2.7786 -1.2913
11780TIP3    H256832   5.401   6.627   5.993 -0.5840 -0.4358 -3.2174
11781TIP3   OH256833   3.682   6.723   5.217 -0.3978  0.0649  0.5162
11781TIP3    H156834   3.712   6.633   5.228  0.7433  0.3890  0.1952
11781TIP3    H256835   3.625   6.738   5.292 -1.4775 -1.2596  0.0005
11782TIP3   OH256836   3.420   2.885  13.596  0.6675 -0.1788  0.0487
11782TIP3    H156837   3.388   2.804  13.635 -1.2712  0.1094 -0.8289
11782TIP3    H256838   3.415   2.950  13.666 -1.8092  0.1025 -0.2899
11783TIP3   OH256839   1.896   3.191   5.430 -0.0376 -0.3708 -0.2501
11783TIP3    H156840   1.821   3.250   5.433  0.9214  0.9904 -1.5321
11783TIP3    H256841   1.906   3.160   5.520 -0.7902  1.1730  0.3970
11784TIP3   OH256842   0.956   5.054  16.862 -0.5525  0.0057 -0.1497
11784TIP3    H156843   0.920   4.967  16.846 -1.0738 -0.1383  1.5886
11784TIP3    H256844   1.050   5.045  16.847 -0.4443 -1.1536  1.0537
11785TIP3   OH256845   3.910   4.661   3.845  0.3655 -0.5257  0.3082
11785TIP3    H156846   3.992   4.612   3.845  0.5055 -0.3272 -1.0027
11785TIP3    H256847   3.896   4.685   3.753  0.0454  1.4381  0.8069
11786TIP3   OH256848   4.946   1.005   0.853  0.1934 -0.5740 -0.2612
11786TIP3    H156849   4.950   1.074   0.786  2.0276 -2.0706 -1.7846
11786TIP3    H256850   4.973   1.049   0.934  0.8575  0.6283 -1.1036
11787TIP3   OH256851   3.845   2.455  16.047 -0.1226 -0.0927  0.0935
11787TIP3    H156852   3.937   2.429  16.040 -0.1237 -0.0789  0.0256
11787TIP3    H256853   3.846   2.532  16.103 -0.2929 -1.2210  1.6976
11788TIP3   OH256854   2.629   0.295   6.000  0.3994  0.4001  0.0924
11788TIP3    H156855   2.582   0.352   5.939  4.3155  1.4645 -2.3208
11788TIP3    H256856   2.682   0.354   6.053  0.3609 -0.7934  1.5229
11789TIP3   OH256857   2.586   0.657   5.700  0.0897  0.3180 -0.2425
11789TIP3    H156858   2.534   0.737   5.713  0.1899  0.8851 -2.8067
11789TIP3    H256859   2.638   0.649   5.780 -2.0647  1.1566  1.3147
11790TIP3   OH256860   4.997   0.724   0.812 -0.0486 -0.0712 -0.4091
11790TIP3    H156861   4.924   0.681   0.856  0.1644 -1.0633 -1.0001
11790TIP3    H256862   4.979   0.818   0.822 -1.8632 -0.2884 -1.2779
11791TIP3   OH256863   0.869   3.084   4.089 -0.3425  0.0833  1.2012
11791TIP3    H156864   0.922   3.028   4.033 -0.8507  0.1355  0.6548
11791TIP3    H256865   0.841   3.156   4.031 -1.2055 -0.0763  1.4012
11792TIP3   OH256866   6.594   5.060   0.438 -0.2609 -0.9143 -0.1327
11792TIP3    H156867   6.665   5.093   0.382 -1.8572  2.1750 -0.5174
11792TIP3    H256868   6.533   5.019   0.377  0.4146 -2.2257  0.0314
11793TIP3   OH256869   6.164   5.727   1.484 -0.1470 -0.2520  0.2843
11793TIP3    H156870   6.136   5.750   1.395 -1.0261 -0.7264  0.4207
11793TIP3    H256871   6.143   5.634   1.492 -1.5713  0.1377  1.5119
11794TIP3   OH256872   2.209   0.263  15.634 -0.1614 -0.4218  0.1024
11794TIP3    H156873   2.147   0.329  15.666  1.7064  1.9552 -0.8722
11794TIP3    H256874   2.275   0.256  15.703  0.1781 -0.5361 -0.2264
11795TIP3   OH256875   6.066   1.262   2.804  0.5474 -0.3614 -0.0213
11795TIP3    H156876   6.052   1.180   2.853 -0.1241 -0.0054  0.3962
11795TIP3    H256877   6.158   1.284   2.821  0.4606 -0.5043  0.6919
11796TIP3   OH256878   6.811   1.974   5.257 -0.2067  0.2755 -0.6604
11796TIP3    H156879   6.720   1.965   5.227 -0.4679 -1.7384  0.5683
11796TIP3    H256880   6.806   1.972   5.352  1.1126  0.6925 -0.5532
11797TIP3   OH256881   1.655   0.567  14.254  0.1149  0.1851 -0.8427
11797TIP3    H156882   1.596   0.541  14.183  0.1533  0.1936 -0.8780
11797TIP3    H256883   1.709   0.489  14.268  0.4025  0.3311 -1.1238
11798TIP3   OH256884   1.434   3.638   4.137 -0.2014 -0.1746 -0.3298
11798TIP3    H156885   1.470   3.703   4.197  0.2270 -2.0307  1.5162
11798TIP3    H256886   1.370   3.687   4.085  0.4651  1.8127  0.6055
11799TIP3   OH256887   2.358   4.295  14.094  0.1383  0.1703  0.3454
11799TIP3    H156888   2.272   4.264  14.123 -0.5060  0.5792 -1.0334
11799TIP3    H256889   2.338   4.372  14.040  1.2740 -0.4247 -0.9812
11800TIP3   OH256890   0.927   4.960  14.219  0.0090 -0.5518 -0.2617
11800TIP3    H156891   0.908   4.867  14.235  0.2615 -0.6404 -0.4716
11800TIP3    H256892   1.014   4.960  14.180 -0.2656 -0.2770 -0.8765
11801TIP3   OH256893   4.014   2.263   0.168  0.4504 -0.0841 -0.2470
11801TIP3    H156894   3.950   2.324   0.131 -1.0619 -0.5323  1.4568
11801TIP3    H256895   4.010   2.186   0.113 -0.9071 -0.3087  0.1391
11802TIP3   OH256896   3.007   4.311  10.753 -0.2635  0.2304  0.4973
11802TIP3    H156897   3.078   4.248  10.743 -0.6987  0.0237 -1.8240
11802TIP3    H256898   3.034   4.386  10.701 -3.3704 -1.4254 -4.0783
11803TIP3   OH256899   5.013   5.452   2.583  0.0944 -0.2484 -0.4961
11803TIP3    H156900   4.961   5.429   2.506  1.8356 -0.8226 -1.5619
11803TIP3    H256901   5.023   5.547   2.579 -1.8671  0.0317  0.4192
11804TIP3   OH256902   0.480   0.102   5.762 -0.7462  0.0460  0.1049
11804TIP3    H156903   0.433   0.020   5.778  0.9635 -0.9388  0.2383
11804TIP3    H256904   0.450   0.160   5.832  0.2194 -1.4439  1.8271
11805TIP3   OH256905   1.833   0.585   3.838  0.6771  1.1676  0.1013
11805TIP3    H156906   1.768   0.572   3.768 -0.8414  1.2294  1.4420
11805TIP3    H256907   1.916   0.596   3.791  0.4167 -2.6136 -1.5966
11806TIP3   OH256908   4.803   1.006   5.022 -0.0161 -0.0099 -0.1669
11806TIP3    H156909   4.807   1.058   4.941  0.4337  0.0602 -0.1028
11806TIP3    H256910   4.885   1.026   5.067  0.2180 -0.8707 -0.1945
11807TIP3   OH256911   2.637   5.290  16.979 -0.5661  0.0630 -0.1879
11807TIP3    H156912   2.631   5.348  16.903 -0.2371  0.9978  0.4724
11807TIP3    H256913   2.717   5.318  17.024  0.3515 -1.8191 -0.5573
11808TIP3   OH256914   1.978   1.279   5.794  0.5464 -0.4065 -0.1358
11808TIP3    H156915   1.988   1.320   5.880  0.2124 -1.7934  0.5931
11808TIP3    H256916   1.883   1.267   5.784  0.6491 -1.1084 -0.2875
11809TIP3   OH256917   1.264   6.460  13.497  0.3316 -0.4166 -0.7429
11809TIP3    H156918   1.176   6.478  13.465 -0.7449 -0.5171  1.9129
11809TIP3    H256919   1.312   6.542  13.484 -1.0325  0.6127  0.3797
11810TIP3   OH256920   6.595   6.134  12.915  0.3509  0.6463  0.5252
11810TIP3    H156921   6.662   6.183  12.963  0.1042  2.1582 -0.6071
11810TIP3    H256922   6.644   6.083  12.851  0.6729 -1.2937  2.1927
11811TIP3   OH256923   5.668   0.975   3.162 -0.6339  0.0350  0.5690
11811TIP3    H156924   5.687   0.883   3.145 -1.3546 -0.2140  1.0605
11811TIP3    H256925   5.705   0.991   3.249  0.4477  0.5092  0.0342
11812TIP3   OH256926   4.775   2.629   4.742  0.0929 -0.0842  0.0413
11812TIP3    H156927   4.815   2.545   4.718 -2.4265 -1.5974  0.7651
11812TIP3    H256928   4.822   2.694   4.690  3.5557 -1.6176  0.9591
11813TIP3   OH256929   3.190   4.189   1.168  0.5104 -0.4202 -0.1750
11813TIP3    H156930   3.218   4.108   1.210 -0.2097 -1.6322 -1.8887
11813TIP3    H256931   3.114   4.164   1.115  1.3209  0.9816 -2.1414
11814TIP3   OH256932   5.648   1.496   0.304  0.0668 -0.2263 -0.4797
11814TIP3    H156933   5.671   1.407   0.279  0.0711 -0.3731  0.0224
11814TIP3    H256934   5.552   1.496   0.306  0.0223  0.2154 -1.9797
11815TIP3   OH256935   2.041   5.869  14.051 -0.1127 -0.3242 -0.0332
11815TIP3    H156936   1.999   5.811  14.114  0.5194 -0.6990  0.0419
11815TIP3    H256937   2.114   5.818  14.015  0.5030  0.4486  0.0990
11816TIP3   OH256938   1.851   4.874  13.363 -0.3533  0.1152  0.0357
11816TIP3    H156939   1.776   4.816  13.350 -0.4163 -0.1082  1.2373
11816TIP3    H256940   1.889   4.884  13.276  0.7480 -3.2164 -0.0239
11817TIP3   OH256941   2.871   1.696   1.892  0.7408  0.3404  0.6804
11817TIP3    H156942   2.825   1.765   1.844  0.4120  0.3542  1.0110
11817TIP3    H256943   2.835   1.701   1.981 -2.0195 -2.6167 -0.0731
11818TIP3   OH256944   6.372   3.427  15.752 -0.8984 -0.1087 -0.1132
11818TIP3    H156945   6.293   3.380  15.779 -0.7788  0.1253  0.6668
11818TIP3    H256946   6.340   3.505  15.707 -1.1384  0.3281  0.7835
11819TIP3   OH256947   2.127   5.286   4.588  0.2602 -0.1332  0.1575
11819TIP3    H156948   2.039   5.313   4.613  0.7988  0.4666  1.5218
11819TIP3    H256949   2.114   5.214   4.527 -1.1714  0.3942 -0.1864
11820TIP3   OH256950   1.285   6.400   0.882  0.8403 -0.0910 -0.3109
11820TIP3    H156951   1.218   6.460   0.916  1.7285  0.9825 -0.3868
11820TIP3    H256952   1.237   6.320   0.860 -0.2631  0.3308  0.4737
11821TIP3   OH256953   5.467   6.160  15.349  0.5750  0.1388  0.0098
11821TIP3    H156954   5.515   6.231  15.306  1.3482 -1.8060 -2.5983
11821TIP3    H256955   5.512   6.080  15.320 -2.8248 -1.6920 -0.7940
11822TIP3   OH256956   1.584   5.489  11.312 -0.0819  0.5230  0.1452
11822TIP3    H156957   1.651   5.552  11.286 -0.4416  0.5405 -0.7710
11822TIP3    H256958   1.596   5.479  11.407  0.9388  0.8354  0.0614
11823TIP3   OH256959   3.472   1.839   5.526  0.0662 -0.2314  0.3312
11823TIP3    H156960   3.432   1.924   5.547  0.4454 -0.0552  0.3507
11823TIP3    H256961   3.474   1.793   5.610  1.3248  0.3660  0.6512
11824TIP3   OH256962   0.207   6.302   4.247  0.0836  0.7394 -0.0960
11824TIP3    H156963   0.146   6.230   4.227  2.3039 -1.2867 -0.0116
11824TIP3    H256964   0.169   6.343   4.324 -0.2362 -1.7483  1.1941
11825TIP3   OH256965   5.582   1.960  12.368  0.0874 -0.3318  0.1880
11825TIP3    H156966   5.661   1.920  12.407  2.1093  2.5912 -0.5668
11825TIP3    H256967   5.610   1.985  12.279 -1.9926  0.0440 -0.4010
11826TIP3   OH256968   5.126   2.489   4.311  0.0225  0.0980 -0.5690
11826TIP3    H156969   5.038   2.521   4.290 -0.1794 -0.2303 -0.2402
11826TIP3    H256970   5.157   2.548   4.381 -1.4447 -1.9993  2.0379
11827TIP3   OH256971   1.662   5.297  12.751 -0.0767  0.1501 -0.4386
11827TIP3    H156972   1.590   5.310  12.690  0.7985 -0.9397 -1.7683
11827TIP3    H256973   1.621   5.259  12.829 -0.9939 -0.0387 -0.9985
11828TIP3   OH256974   6.580   0.718   2.269 -0.1733  0.3249  0.4609
11828TIP3    H156975   6.531   0.789   2.309 -1.3466 -0.6797  0.8844
11828TIP3    H256976   6.632   0.759   2.200 -1.0605  1.5292  0.4955
11829TIP3   OH256977   4.431   0.511  14.541  0.6142  0.0125 -0.1684
11829TIP3    H156978   4.423   0.446  14.470  0.3669 -0.2790  0.1202
11829TIP3    H256979   4.376   0.584  14.512 -0.3062 -0.5177  0.1666
11830TIP3   OH256980   3.399   6.220  17.207  0.1409 -0.1917  0.7497
11830TIP3    H156981   3.456   6.203  17.281 -0.3533  0.4932  1.3016
11830TIP3    H256982   3.380   6.314  17.212 -0.2695 -0.2258  0.0280
11831TIP3   OH256983   5.946   0.150  13.341  0.2102 -0.2117 -0.0980
11831TIP3    H156984   5.992   0.222  13.385 -1.5530 -0.0280  1.5801
11831TIP3    H256985   6.015   0.086  13.322  1.3105  0.3716  1.6279
11832TIP3   OH256986   5.763   2.451   2.833 -0.3670 -0.7007 -0.7306
11832TIP3    H156987   5.828   2.399   2.785 -0.8214 -0.2751 -1.8558
11832TIP3    H256988   5.812   2.488   2.906  1.2485  1.2140 -2.6324
11833TIP3   OH256989   6.464   5.391  10.514  0.3136  0.4230 -0.5281
11833TIP3    H156990   6.434   5.480  10.496  1.2536  1.1582  1.1969
11833TIP3    H256991   6.389   5.347  10.553 -0.0762  0.5564 -1.1320
11834TIP3   OH256992   3.793   0.655  11.175 -0.0351 -0.3305 -0.6560
11834TIP3    H156993   3.799   0.751  11.181 -0.6663 -0.2987 -0.4722
11834TIP3    H256994   3.842   0.634  11.095  0.2603  0.1250 -0.6028
11835TIP3   OH256995   4.381   1.302  13.068 -0.2867 -0.0919  0.3668
11835TIP3    H156996   4.396   1.321  13.160 -0.9710 -0.6255  0.5974
11835TIP3    H256997   4.454   1.344  13.022 -0.3160  0.7681  1.0877
11836TIP3   OH256998   3.962   4.644   1.368 -0.3356 -0.3653 -0.0972
11836TIP3    H156999   3.909   4.568   1.393 -0.1550 -0.4844 -0.0747
11836TIP3    H257000   3.942   4.657   1.275 -0.8258 -0.0687  0.0473
11837TIP3   OH257001   2.981   4.302   5.569  0.0338  0.4252  0.3707
11837TIP3    H157002   3.005   4.220   5.612  2.9811  1.9584  1.9580
11837TIP3    H257003   2.924   4.346   5.632  1.1944  0.9948  1.0530
11838TIP3   OH257004   2.433   0.561   0.908  0.1232 -0.2942 -0.2836
11838TIP3    H157005   2.368   0.631   0.897  1.0528  0.2798 -2.7603
11838TIP3    H257006   2.460   0.539   0.819  0.1149 -3.6552  0.4139
11839TIP3   OH257007   0.539   4.969   5.582  0.6158 -0.1009 -0.1277
11839TIP3    H157008   0.602   4.898   5.573  0.9970  0.2134  0.0221
11839TIP3    H257009   0.460   4.937   5.537  0.2759 -1.2057  1.1741
11840TIP3   OH257010   3.215   1.449   0.751 -0.1356 -0.7483 -0.1811
11840TIP3    H157011   3.283   1.381   0.751  0.5151 -0.1618  1.5849
11840TIP3    H257012   3.179   1.446   0.840 -2.2390 -0.8104 -0.9763
11841TIP3   OH257013   6.193   1.379   6.118 -0.6423 -0.1708 -0.4572
11841TIP3    H157014   6.284   1.349   6.129 -1.0545 -0.9778  1.1687
11841TIP3    H257015   6.150   1.307   6.071 -0.5067  0.0906 -0.9846
11842TIP3   OH257016   0.628   6.415  10.837 -0.6475 -0.2798  0.4820
11842TIP3    H157017   0.659   6.374  10.757 -0.0269 -0.9828  1.0644
11842TIP3    H257018   0.532   6.409  10.831 -0.6436  0.5388 -0.6318
11843TIP3   OH257019   0.438   2.459  14.756 -0.1664 -0.2665 -0.4870
11843TIP3    H157020   0.366   2.470  14.818  1.4405 -0.2073  1.4657
11843TIP3    H257021   0.410   2.508  14.678 -1.8629  0.4667  0.5208
11844TIP3   OH257022   6.796   3.906   5.187 -0.4185 -0.1257 -0.9219
11844TIP3    H157023   6.756   3.828   5.224 -0.3875  0.7750  1.1114
11844TIP3    H257024   6.758   3.979   5.235  1.0233  0.9923 -1.3884
11845TIP3   OH257025   5.595   5.924  14.751 -0.1801 -0.1002 -0.0269
11845TIP3    H157026   5.622   5.841  14.788 -1.7863 -0.1221  1.2536
11845TIP3    H257027   5.525   5.954  14.809  0.9813  2.6116  0.1297
11846TIP3   OH257028   1.769   6.141  12.246  0.2297 -0.1421  0.5774
11846TIP3    H157029   1.835   6.161  12.178 -0.8449  0.9331 -0.1955
11846TIP3    H257030   1.699   6.096  12.199 -0.1195 -0.2175  1.1621
11847TIP3   OH257031   1.609   6.309   2.150 -0.4309 -0.4510  0.7103
11847TIP3    H157032   1.615   6.318   2.246 -0.1308  0.5766  0.6039
11847TIP3    H257033   1.529   6.355   2.127  1.0223  2.0035  0.1780
11848TIP3   OH257034   5.507   1.921   3.926  0.1814 -0.0740  0.4775
11848TIP3    H157035   5.540   1.967   3.849 -1.6492 -1.5161 -1.2667
11848TIP3    H257036   5.469   1.990   3.980 -2.2500  0.6778 -1.9332
11849TIP3   OH257037   5.076   6.277  10.786 -0.2935 -0.5172  0.5729
11849TIP3    H157038   5.020   6.207  10.751  1.5324 -2.8255  1.9626
11849TIP3    H257039   5.113   6.319  10.709 -1.2196 -1.2486 -0.3029
11850TIP3   OH257040   4.444   2.748   1.334 -0.0387 -0.3384 -0.6711
11850TIP3    H157041   4.499   2.675   1.362  0.5340  0.6727  0.9559
11850TIP3    H257042   4.454   2.814   1.402 -2.7554  0.1809 -0.6534
11851TIP3   OH257043   4.116   6.287   5.380  0.3536 -0.3356  0.1909
11851TIP3    H157044   4.101   6.323   5.293  0.4478 -1.4702 -0.3159
11851TIP3    H257045   4.129   6.363   5.436 -2.0083  0.5368 -0.3325
11852TIP3   OH257046   5.189   2.738   1.261 -0.1667  0.9390 -0.2142
11852TIP3    H157047   5.154   2.699   1.341 -0.3214  0.2194 -0.6188
11852TIP3    H257048   5.112   2.753   1.206  0.0070  0.7128 -0.5263
11853TIP3   OH257049   1.518   3.718   0.378 -0.3188  0.5064  0.6681
11853TIP3    H157050   1.431   3.721   0.417  0.2447 -0.8098  2.1411
11853TIP3    H257051   1.502   3.718   0.284 -1.8999  0.4612  0.9068
11854TIP3   OH257052   6.243   4.883   4.675 -0.3180  0.2064  0.2324
11854TIP3    H157053   6.183   4.809   4.661  1.2350 -1.0359 -0.0912
11854TIP3    H257054   6.252   4.922   4.588  1.9363 -1.7234 -0.5137
11855TIP3   OH257055   5.595   5.413  12.355  0.3119  0.9913 -0.5964
11855TIP3    H157056   5.573   5.455  12.272 -1.2692  0.0510 -0.7099
11855TIP3    H257057   5.510   5.398  12.397  1.1054  2.0695  1.5381
11856TIP3   OH257058   4.523   6.047  16.019  0.0083  0.3346  0.0222
11856TIP3    H157059   4.436   6.047  15.979  0.4999 -2.1802 -1.2259
11856TIP3    H257060   4.515   5.985  16.092  1.1913 -1.5173 -1.3416
11857TIP3   OH257061   1.889   5.382   2.990 -0.0204  0.7217 -0.5248
11857TIP3    H157062   1.870   5.336   2.908 -0.0657  0.0192 -0.1350
11857TIP3    H257063   1.952   5.325   3.036  0.3949  1.3492 -0.2903
11858TIP3   OH257064   4.139   5.609   4.863  0.1783 -0.2319 -0.0529
11858TIP3    H157065   4.139   5.689   4.810  1.3440 -0.8095 -0.9830
11858TIP3    H257066   4.125   5.539   4.799 -1.3675 -0.7582  0.8184
11859TIP3   OH257067   4.592   3.412  15.379 -0.1562  0.3567 -0.2725
11859TIP3    H157068   4.656   3.476  15.410  0.3821  0.1285 -0.8774
11859TIP3    H257069   4.508   3.449  15.403  0.2101  0.5432  0.7565
11860TIP3   OH257070   3.462   4.601   3.192 -0.3997  0.1890  0.1951
11860TIP3    H157071   3.505   4.531   3.241 -1.9905 -1.6951 -0.9514
11860TIP3    H257072   3.370   4.577   3.192 -1.0349  2.4560 -0.0309
11861TIP3   OH257073   4.923   2.422   5.956  0.8083 -0.0061  1.1565
11861TIP3    H157074   5.014   2.415   5.986  0.8823  2.3484  1.6601
11861TIP3    H257075   4.900   2.333   5.929  3.2608 -0.6557  0.9715
11862TIP3   OH257076   3.532   1.267  16.223  0.0118 -0.1521 -0.6754
11862TIP3    H157077   3.575   1.183  16.207 -0.5336 -0.8292  1.1006
11862TIP3    H257078   3.503   1.261  16.314  1.5438  2.6944  0.1034
11863TIP3   OH257079   6.546   4.921   5.305 -0.0138 -0.4653  0.4029
11863TIP3    H157080   6.485   4.856   5.271  1.3637 -1.8589  0.4762
11863TIP3    H257081   6.591   4.956   5.228  0.6511 -1.0757  0.5055
11864TIP3   OH257082   1.425   1.744  15.879 -0.0679  0.2237 -0.2271
11864TIP3    H157083   1.358   1.730  15.812  0.2369  0.6364 -0.6252
11864TIP3    H257084   1.398   1.688  15.952 -1.0566  0.6688 -0.2365
11865TIP3   OH257085   3.997   6.572  17.184  0.1062  0.3249  0.1605
11865TIP3    H157086   3.984   6.560  17.090  0.4763  0.1843  0.1240
11865TIP3    H257087   3.958   6.657  17.204  0.8963  0.8054 -0.2995
11866TIP3   OH257088   5.138   3.354   4.914 -0.4234 -0.2588  0.0300
11866TIP3    H157089   5.097   3.306   4.842 -0.3476 -1.1709  0.5871
11866TIP3    H257090   5.159   3.440   4.876 -2.6094  0.1827 -0.3690
11867TIP3   OH257091   2.145   3.070   4.308  0.1836  0.0070 -0.9180
11867TIP3    H157092   2.224   3.027   4.339  1.1313  1.8972 -0.5332
11867TIP3    H257093   2.120   3.129   4.380 -1.2290 -0.1263 -1.2727
11868TIP3   OH257094   5.285   1.254  16.250  0.0389 -0.0275 -0.3513
11868TIP3    H157095   5.230   1.284  16.177  0.0141  3.1417  0.7967
11868TIP3    H257096   5.268   1.318  16.320  1.0431 -2.1657  2.0125
11869TIP3   OH257097   6.669   3.458   3.973 -0.1221 -0.3989 -0.5133
11869TIP3    H157098   6.635   3.541   3.940  0.1914  1.1793  2.7392
11869TIP3    H257099   6.764   3.466   3.967 -0.0266  0.2311  1.2693
11870TIP3   OH257100   4.133   6.661  15.784 -0.1966  0.3173  0.1412
11870TIP3    H157101   4.124   6.710  15.702 -0.2779  0.2730  0.1240
11870TIP3    H257102   4.057   6.604  15.786 -0.8908  1.2518  0.8989
11871TIP3   OH257103   6.754   5.281  13.324  0.6169 -0.0090  0.0421
11871TIP3    H157104   6.746   5.353  13.387  1.9609 -0.3014  0.5849
11871TIP3    H257105   6.839   5.295  13.283  1.4436 -1.9064  0.9819
11872TIP3   OH257106   5.606   0.226  12.820  0.0929 -0.2157  0.2706
11872TIP3    H157107   5.567   0.254  12.903 -1.0680  0.7745 -0.5865
11872TIP3    H257108   5.699   0.214  12.840 -0.3373 -1.0522  1.9614
11873TIP3   OH257109   5.464   4.581  14.659 -0.6643 -0.2328  0.7933
11873TIP3    H157110   5.390   4.582  14.599 -0.8457  1.5051  0.9816
11873TIP3    H257111   5.433   4.532  14.735 -1.2386 -0.4457  0.4304
11874TIP3   OH257112   6.454   2.629  14.578 -0.0072 -0.3576  0.8680
11874TIP3    H157113   6.361   2.613  14.593  0.3142 -0.9196  2.4533
11874TIP3    H257114   6.476   2.699  14.640  0.1988  1.2972 -0.9748
11875TIP3   OH257115   0.632   1.081   3.843 -0.4127 -0.0014 -0.5886
11875TIP3    H157116   0.645   1.057   3.751  2.0175  1.4014 -0.7011
11875TIP3    H257117   0.697   1.031   3.891 -1.8575 -0.9436  0.4741
11876TIP3   OH257118   3.277   3.529   0.503 -0.1964 -0.6208 -0.7968
11876TIP3    H157119   3.293   3.602   0.443  0.1765 -1.5121 -1.8152
11876TIP3    H257120   3.364   3.490   0.517 -0.0167  0.4179  1.4969
11877TIP3   OH257121   4.486   1.903  13.701  0.0483 -0.4310  0.1866
11877TIP3    H157122   4.422   1.862  13.643  0.8569  1.1725 -1.9955
11877TIP3    H257123   4.436   1.928  13.778 -1.4403 -1.3293 -0.4464
11878TIP3   OH257124   5.410   0.175   2.593  0.1481 -0.9323  0.2671
11878TIP3    H157125   5.362   0.179   2.510 -0.1075  3.0060  0.4504
11878TIP3    H257126   5.496   0.210   2.573 -0.1683  0.8251  1.7583
11879TIP3   OH257127   5.136   3.881   2.076 -0.6936  0.1210 -0.2561
11879TIP3    H157128   5.220   3.882   2.121 -0.4125  0.6671 -0.7705
11879TIP3    H257129   5.075   3.921   2.138 -0.4884  0.0967 -0.0384
11880TIP3   OH257130   3.307   1.437  12.060 -0.0808  0.1999  0.2293
11880TIP3    H157131   3.338   1.515  12.105  0.1028  0.3791 -0.2022
11880TIP3    H257132   3.240   1.401  12.118 -0.5850  0.9990  0.1576
11881TIP3   OH257133   4.522   0.270   0.392  0.2404  0.6722 -0.0434
11881TIP3    H157134   4.447   0.289   0.336  0.2938 -0.2894 -0.4720
11881TIP3    H257135   4.529   0.346   0.449 -1.5722  0.4367  0.5698
11882TIP3   OH257136   6.253   6.401  12.127 -0.1060  0.2233  0.0419
11882TIP3    H157137   6.194   6.475  12.112  0.4048  0.8786  1.1983
11882TIP3    H257138   6.341   6.438  12.116  0.1242 -0.6135 -1.0889
11883TIP3   OH257139   5.403   0.915   3.154 -0.1096  0.6793 -0.6533
11883TIP3    H157140   5.491   0.952   3.156 -0.2146  1.0203  2.3246
11883TIP3    H257141   5.380   0.903   3.246 -3.2741  0.8052 -1.3041
11884TIP3   OH257142   0.934   4.526  15.828 -1.0454  0.0941 -0.5862
11884TIP3    H157143   0.967   4.599  15.880  0.5038 -1.2146  0.3715
11884TIP3    H257144   0.932   4.558  15.738  1.5291  0.7304 -0.4780
11885TIP3   OH257145   5.413   1.747   5.503 -0.5852 -0.6775  0.1356
11885TIP3    H157146   5.443   1.821   5.450 -0.0156 -0.1519  1.1607
11885TIP3    H257147   5.477   1.678   5.487 -0.2397 -0.4147  0.3764
11886TIP3   OH257148   6.784   4.373   1.119 -0.1283  0.0118  0.3250
11886TIP3    H157149   6.736   4.301   1.159  1.8821 -0.7062  1.5656
11886TIP3    H257150   6.842   4.405   1.188 -0.5338  2.4721 -0.3607
11887TIP3   OH257151   3.754   4.175   4.671 -0.4889 -0.2418  0.5750
11887TIP3    H157152   3.815   4.112   4.635  0.0157  0.6758 -0.2261
11887TIP3    H257153   3.696   4.197   4.598  0.9237  2.0975  0.0482
11888TIP3   OH257154   3.328   5.920  12.858 -0.1754 -0.1382  0.4919
11888TIP3    H157155   3.322   5.831  12.893 -0.7508 -0.5588 -0.6152
11888TIP3    H257156   3.238   5.951  12.854 -0.0530  0.1851  0.1147
11889TIP3   OH257157   1.294   6.788  15.213 -0.3971  0.2734 -0.1480
11889TIP3    H157158   1.365   6.724  15.222 -1.5945 -1.1155 -0.1783
11889TIP3    H257159   1.218   6.746  15.255 -0.6448  2.7538  2.2184
11890TIP3   OH257160   1.928   2.274   3.796 -0.0291 -0.0280  0.3762
11890TIP3    H157161   2.017   2.280   3.831 -0.3924 -0.1468  1.3258
11890TIP3    H257162   1.874   2.246   3.869 -1.1389  1.6924  0.2798
11891TIP3   OH257163   1.479   2.536  10.418  0.7500  0.1370 -0.2247
11891TIP3    H157164   1.566   2.502  10.439  1.3423  1.1998 -0.8880
11891TIP3    H257165   1.495   2.614  10.365 -0.5968  0.9608  0.5139
11892TIP3   OH257166   1.711   0.364   3.166 -0.2461  0.4162 -0.3395
11892TIP3    H157167   1.752   0.450   3.151  0.1884  0.7962  2.4196
11892TIP3    H257168   1.630   0.385   3.213 -0.1894 -0.6874  0.2608
11893TIP3   OH257169   0.772   0.735   4.220 -0.1886  0.3470 -0.3974
11893TIP3    H157170   0.790   0.757   4.128  1.9520  0.7616  0.0678
11893TIP3    H257171   0.777   0.819   4.266  0.5138 -0.0760  0.3280
11894TIP3   OH257172   1.564   2.061   2.093 -0.2893 -0.3397 -0.7187
11894TIP3    H157173   1.614   2.042   2.013  0.5312 -0.8465 -0.0970
11894TIP3    H257174   1.563   2.157   2.098 -1.2873 -0.2577 -1.9046
11895TIP3   OH257175   1.977   1.413   6.037  0.3076 -0.6090 -0.3262
11895TIP3    H157176   1.884   1.400   6.054 -0.3733  0.2919 -2.8175
11895TIP3    H257177   1.991   1.507   6.050 -0.0821 -0.0156 -3.3863
11896TIP3   OH257178   5.801   5.283  14.361  0.4240  0.5253  0.1132
11896TIP3    H157179   5.851   5.361  14.386  0.5810  0.3069  0.4835
11896TIP3    H257180   5.710   5.305  14.383  0.3109  1.0238 -0.8066
11897TIP3   OH257181   6.388   2.923   5.379  0.5022  0.1615 -0.4653
11897TIP3    H157182   6.345   2.938   5.463 -0.9959 -0.8877 -1.0005
11897TIP3    H257183   6.362   2.998   5.325 -1.3237 -0.7834 -0.9978
11898TIP3   OH257184   0.792   0.870  12.606 -0.1907 -0.0552  0.1580
11898TIP3    H157185   0.888   0.871  12.614 -0.1422 -0.0414 -0.3814
11898TIP3    H257186   0.761   0.898  12.691  0.2100 -2.9173  1.3672
11899TIP3   OH257187   5.484   3.718   4.429 -0.6977 -0.7063  0.0895
11899TIP3    H157188   5.536   3.790   4.393  2.0225 -3.2063 -1.3302
11899TIP3    H257189   5.444   3.755   4.508  1.4317  2.0309  0.0399
11900TIP3   OH257190   3.915   4.129   0.815  0.0031  0.2861 -0.1757
11900TIP3    H157191   3.994   4.159   0.770 -0.6260  2.0518 -0.1765
11900TIP3    H257192   3.923   4.034   0.817  1.7301  0.3875 -0.8938
11901TIP3   OH257193   5.903   1.454   1.589  0.0955 -0.2186 -0.0012
11901TIP3    H157194   5.886   1.510   1.513 -0.8614 -1.5445 -0.7965
11901TIP3    H257195   5.834   1.476   1.651 -0.4284 -0.6940 -0.4149
11902TIP3   OH257196   0.639   0.282   2.839 -0.8553  0.1626 -0.1217
11902TIP3    H157197   0.699   0.355   2.850 -0.9123  0.4850 -1.7099
11902TIP3    H257198   0.566   0.318   2.788 -0.8783 -0.9873 -0.9449
11903TIP3   OH257199   1.321   6.041   1.605 -0.1296 -0.1716 -0.0127
11903TIP3    H157200   1.246   5.982   1.604  0.6423 -1.2644  1.8152
11903TIP3    H257201   1.376   6.009   1.677  0.4062  2.6774  0.9694
11904TIP3   OH257202   5.855   1.389  16.441  0.2523  0.0298  1.1371
11904TIP3    H157203   5.911   1.466  16.426 -1.3632  0.9779 -0.2508
11904TIP3    H257204   5.783   1.422  16.495 -1.3423 -0.0605 -0.8563
11905TIP3   OH257205   4.731   6.026  11.445  0.0865  0.7700  0.0183
11905TIP3    H157206   4.661   5.975  11.406  0.1119  1.3702 -0.8475
11905TIP3    H257207   4.788   5.962  11.487 -0.5213  0.2079 -0.0035
11906TIP3   OH257208   3.068   1.812  13.465 -0.3717 -0.2003 -0.3871
11906TIP3    H157209   3.067   1.730  13.416  0.8571 -0.5498  0.1342
11906TIP3    H257210   3.012   1.871  13.415  1.5531 -0.2279 -2.7767
11907TIP3   OH257211   6.705   0.818   1.975 -0.4190  0.0577  0.0729
11907TIP3    H157212   6.795   0.787   1.981  0.1802  1.7535  0.4053
11907TIP3    H257213   6.705   0.902   2.021 -2.2067  0.0388  0.1884
11908TIP3   OH257214   1.230   5.768  13.992 -0.0283 -0.3812 -0.0347
11908TIP3    H157215   1.152   5.824  13.998  0.1921 -0.1651  0.8553
11908TIP3    H257216   1.228   5.735  13.902 -0.5644  0.4699 -0.3464
11909TIP3   OH257217   5.098   1.595  15.326  0.0357 -0.5080  0.0282
11909TIP3    H157218   5.128   1.676  15.286  0.3538  0.2750  1.7293
11909TIP3    H257219   5.178   1.545  15.342  0.2656  0.3909  2.0799
11910TIP3   OH257220   0.314   1.457  12.539  0.1315  0.2248  0.1842
11910TIP3    H157221   0.301   1.496  12.453  0.7524 -0.0705 -0.0498
11910TIP3    H257222   0.312   1.531  12.600 -2.7201  0.2305  0.2238
11911TIP3   OH257223   2.840   5.916   1.392 -0.8520  1.2828  0.0262
11911TIP3    H157224   2.865   5.966   1.470 -0.9668  0.2278  0.7678
11911TIP3    H257225   2.755   5.878   1.414 -1.3444  1.7674 -1.0070
11912TIP3   OH257226   3.941   3.510  11.417  0.0021  0.3895 -0.0445
11912TIP3    H157227   3.970   3.531  11.328 -0.0819  0.7964  0.0218
11912TIP3    H257228   3.898   3.425  11.409 -0.5180  0.6915 -0.5007
11913TIP3   OH257229   4.502   5.156   0.894 -0.1527 -0.2278  0.2666
11913TIP3    H157230   4.525   5.107   0.815 -1.3411 -1.6918  0.7860
11913TIP3    H257231   4.452   5.231   0.861  1.2190  0.3901 -0.4981
11914TIP3   OH257232   0.327   3.719   3.313 -0.4780  0.2019  0.6254
11914TIP3    H157233   0.277   3.645   3.278  0.5791 -0.5429  0.6524
11914TIP3    H257234   0.310   3.790   3.252  0.3830 -0.7420 -0.7623
11915TIP3   OH257235   0.633   0.903  11.465  0.2727 -0.5186  0.1334
11915TIP3    H157236   0.633   0.988  11.421  1.4368 -0.1222  0.8463
11915TIP3    H257237   0.586   0.919  11.547  0.5558 -0.5467  0.3002
11916TIP3   OH257238   1.090   3.624  16.810  0.0375 -0.0370  0.4511
11916TIP3    H157239   1.141   3.615  16.891 -1.1416 -0.9059  1.1273
11916TIP3    H257240   1.036   3.701  16.824  0.9695  0.7476 -0.1731
11917TIP3   OH257241   3.828   4.731   0.980  0.1034  0.3534 -0.3851
11917TIP3    H157242   3.747   4.769   0.948 -1.6434 -1.7239  1.2898
11917TIP3    H257243   3.812   4.637   0.982  1.2294  0.0559  3.1609
11918TIP3   OH257244   5.972   2.285  16.783 -0.0696  0.5227 -0.1567
11918TIP3    H157245   6.023   2.344  16.839  0.1906  1.0292 -0.9093
11918TIP3    H257246   5.892   2.333  16.765 -0.5029  0.0334  0.4093
11919TIP3   OH257247   0.039   1.156   5.343  0.3044  0.5253  0.0116
11919TIP3    H157248   0.111   1.201   5.387 -0.0591  1.3358 -0.2112
11919TIP3    H257249   0.080   1.112   5.268  0.7932 -0.2041  0.6904
11920TIP3   OH257250   2.115   1.430  13.053 -0.1279 -0.3420  0.2948
11920TIP3    H157251   2.117   1.341  13.017 -1.0383 -0.2029 -0.1377
11920TIP3    H257252   2.198   1.439  13.098  0.0793 -1.3349  0.1475
11921TIP3   OH257253   1.600   5.159  15.419 -0.7215 -0.0620 -0.8021
11921TIP3    H157254   1.505   5.156  15.412 -0.7762 -0.0908 -0.1273
11921TIP3    H257255   1.619   5.125  15.506  0.0363 -1.8991 -1.6295
11922TIP3   OH257256   0.959   3.373  14.843 -0.3475  0.2309  0.3483
11922TIP3    H157257   0.943   3.321  14.922  0.7796  0.1612  0.5584
11922TIP3    H257258   1.025   3.437  14.870  2.2714 -1.5997 -1.1915
11923TIP3   OH257259   1.033   4.034  16.282 -0.2592  0.1251  0.0539
11923TIP3    H157260   0.975   4.107  16.262  0.1753 -0.0697 -2.1843
11923TIP3    H257261   1.111   4.076  16.321 -0.4913  0.7365 -0.1228
11924TIP3   OH257262   3.969   1.711  16.018 -0.4693 -0.0722 -0.1862
11924TIP3    H157263   4.039   1.776  16.025  0.4008 -0.8856 -1.0249
11924TIP3    H257264   3.909   1.733  16.089  0.2178  1.1406  0.0534
11925TIP3   OH257265   4.716   1.422   5.611  0.2532  0.1629  0.4720
11925TIP3    H157266   4.799   1.468   5.605  0.5415 -0.3580  0.4284
11925TIP3    H257267   4.679   1.427   5.522 -0.4422  1.6332  0.8209
11926TIP3   OH257268   2.317   4.739   3.776 -0.1722 -0.6253  0.1280
11926TIP3    H157269   2.294   4.708   3.863  0.0055 -0.3747  0.2676
11926TIP3    H257270   2.234   4.752   3.732 -0.2555 -1.0153  0.1673
11927TIP3   OH257271   6.575   4.436   0.192 -0.0602 -0.6526  0.5540
11927TIP3    H157272   6.607   4.418   0.103  0.4579 -0.0309  0.6105
11927TIP3    H257273   6.577   4.351   0.236  1.1077 -0.7061  0.4221
11928TIP3   OH257274   2.237   6.376  14.484 -0.3145  0.0318  0.2383
11928TIP3    H157275   2.266   6.311  14.549 -1.1498  0.7013  1.3093
11928TIP3    H257276   2.142   6.376  14.491 -0.4160  0.1251 -0.9999
11929TIP3   OH257277   4.022   5.723   1.870  0.1100 -0.6079  0.8658
11929TIP3    H157278   3.996   5.812   1.844  0.1646 -1.1638 -1.2697
11929TIP3    H257279   4.109   5.733   1.908  0.9279  0.0627 -1.0809
11930TIP3   OH257280   4.350   3.081  13.943  0.3059 -0.1504 -0.2946
11930TIP3    H157281   4.383   3.121  13.862  0.3516  0.0477 -0.1781
11930TIP3    H257282   4.404   3.003  13.956  0.1484 -0.3110 -0.5793
11931TIP3   OH257283   1.963   4.760  15.778 -0.4496  0.0076 -0.2067
11931TIP3    H157284   1.977   4.830  15.715 -0.8310  0.2893  0.0129
11931TIP3    H257285   1.948   4.682  15.725 -1.3934  0.3630 -0.4801
11932TIP3   OH257286   1.170   4.065  13.197 -0.2698  0.1420  0.0989
11932TIP3    H157287   1.092   4.028  13.238 -0.7225 -0.7982 -1.5385
11932TIP3    H257288   1.196   4.000  13.132  2.6009 -0.1425  1.3905
11933TIP3   OH257289   1.621   0.561   2.178  0.4819 -0.0692 -0.5021
11933TIP3    H157290   1.716   0.565   2.194  0.6488 -1.8462 -0.7696
11933TIP3    H257291   1.594   0.480   2.222 -1.1734  1.0896  0.7195
11934TIP3   OH257292   4.109   1.548  14.977  0.2059  0.2556  0.2478
11934TIP3    H157293   4.187   1.501  14.948  0.6247  0.3697  1.1377
11934TIP3    H257294   4.108   1.629  14.926  0.9927  0.5119  0.6160
11935TIP3   OH257295   5.585   5.712  12.641  0.0975 -0.1652 -0.2003
11935TIP3    H157296   5.612   5.786  12.697  0.8180 -0.6447  0.1078
11935TIP3    H257297   5.601   5.635  12.696  0.1035 -0.5943 -0.8056
11936TIP3   OH257298   0.647   5.551   1.581 -0.1352  0.2219 -0.2614
11936TIP3    H157299   0.625   5.643   1.594  0.4960  0.3501 -0.0933
11936TIP3    H257300   0.582   5.503   1.633  0.7625  0.6416  1.3088
11937TIP3   OH257301   4.604   3.476  14.398  0.4302  0.0158  0.1911
11937TIP3    H157302   4.584   3.536  14.470 -1.4638 -0.1097 -0.1821
11937TIP3    H257303   4.687   3.508  14.363 -0.5522  2.4844 -0.0400
11938TIP3   OH257304   3.624   2.121  10.458  0.4687  0.4409 -0.0012
11938TIP3    H157305   3.654   2.212  10.457 -0.2009  0.7485  2.1988
11938TIP3    H257306   3.666   2.083  10.535  1.1446 -1.2903 -1.1784
11939TIP3   OH257307   4.554   2.471  13.516 -0.6230 -0.4407 -0.1489
11939TIP3    H157308   4.611   2.418  13.461 -0.2074 -1.6510  1.3803
11939TIP3    H257309   4.475   2.418  13.526  0.3926 -1.5577  2.6595
11940TIP3   OH257310   3.105   4.174  16.536 -0.4942 -0.6517  0.4338
11940TIP3    H157311   3.019   4.190  16.573 -0.9416  0.2081 -0.9022
11940TIP3    H257312   3.166   4.196  16.607 -1.2968  1.2509  0.6168
11941TIP3   OH257313   0.833   4.127  11.752  0.0595  0.0603 -0.3533
11941TIP3    H157314   0.813   4.206  11.701  0.6452 -0.2863 -1.1515
11941TIP3    H257315   0.870   4.066  11.688  2.0355  0.0764  0.6950
11942TIP3   OH257316   1.936   6.673   2.313  0.2066  0.3510  0.3513
11942TIP3    H157317   1.943   6.767   2.329 -2.8708  0.4406  1.9394
11942TIP3    H257318   1.890   6.639   2.390  0.2271 -2.2892 -0.7044
11943TIP3   OH257319   4.046   3.954   5.184 -0.2899 -0.2255  0.3213
11943TIP3    H157320   4.052   4.021   5.116 -1.5620 -0.3389  0.0687
11943TIP3    H257321   4.008   4.000   5.259  0.0779 -0.3596  0.5907
11944TIP3   OH257322   0.088   5.367   6.038  0.6640 -0.6165  0.3162
11944TIP3    H157323   0.140   5.373   6.118 -1.2521  1.2713  1.5280
11944TIP3    H257324   0.033   5.291   6.051  0.7981 -0.6789  0.5217
11945TIP3   OH257325   6.218   4.256  12.634  0.1666  1.2177  0.1301
11945TIP3    H157326   6.242   4.289  12.720  0.0494 -0.0152  0.6674
11945TIP3    H257327   6.210   4.334  12.579 -0.1641  2.0614  1.3300
11946TIP3   OH257328   2.160   2.958   1.485 -0.0105  0.2315  0.3189
11946TIP3    H157329   2.180   2.941   1.577  1.4004  2.1358  0.4208
11946TIP3    H257330   2.101   2.887   1.460  1.5247 -1.7412  1.9829
11947TIP3   OH257331   2.759   6.359   0.527 -0.1893 -0.1829  0.2238
11947TIP3    H157332   2.679   6.326   0.569 -0.4598  0.5924  0.3320
11947TIP3    H257333   2.771   6.446   0.565  0.4041 -0.0814 -0.2022
11948TIP3   OH257334   3.177   3.419   2.902  0.2908 -0.4298 -0.1793
11948TIP3    H157335   3.096   3.441   2.948  0.8551  0.6585  0.3358
11948TIP3    H257336   3.234   3.495   2.916  1.4966 -1.2782 -0.2976
11949TIP3   OH257337   4.840   4.539  13.386 -0.2146 -0.5340 -0.3904
11949TIP3    H157338   4.866   4.629  13.365  0.8547 -0.8272 -0.3662
11949TIP3    H257339   4.796   4.546  13.471 -0.6256  0.0395 -0.6437
11950TIP3   OH257340   2.971   4.517   3.862  1.0023 -0.2984  0.0447
11950TIP3    H157341   3.003   4.466   3.787 -2.7120 -2.0677 -0.5989
11950TIP3    H257342   2.987   4.461   3.938  1.5185 -0.1159  0.0734
11951TIP3   OH257343   6.215   3.474  16.950  0.4170 -0.8315 -0.1510
11951TIP3    H157344   6.170   3.399  16.911 -0.7409 -0.9952  1.3808
11951TIP3    H257345   6.225   3.536  16.879 -1.0994 -1.3457 -0.8416
11952TIP3   OH257346   0.500   5.729  12.148 -0.1327 -0.6005  0.2627
11952TIP3    H157347   0.429   5.739  12.085 -0.5051 -2.0706  0.4138
11952TIP3    H257348   0.462   5.677  12.219  0.7644 -0.4033  0.9146
11953TIP3   OH257349   3.465   4.862  15.949 -0.2411 -0.0219  0.4905
11953TIP3    H157350   3.545   4.812  15.933  1.1106  2.8639 -3.1580
11953TIP3    H257351   3.394   4.802  15.923  1.1275 -0.9770 -1.3405
11954TIP3   OH257352   6.634   3.060   2.433  0.1727  0.4884 -0.0585
11954TIP3    H157353   6.570   3.092   2.498  1.8856  1.9080  1.0178
11954TIP3    H257354   6.683   3.138   2.408 -0.2650 -0.0542 -2.9865
11955TIP3   OH257355   6.674   1.560   1.070  0.4528  0.1572  0.1020
11955TIP3    H157356   6.734   1.494   1.103 -0.5418 -1.2456 -0.7590
11955TIP3    H257357   6.587   1.521   1.080 -0.3961  2.2198  1.5381
11956TIP3   OH257358   3.132   6.728  10.484  0.1108 -0.4044  0.3787
11956TIP3    H157359   3.057   6.683  10.523 -0.0433 -0.4162  0.0669
11956TIP3    H257360   3.167   6.783  10.555  0.2096 -0.9007  0.7144
11957TIP3   OH257361   4.654   0.481   6.128 -0.0043 -0.3938 -0.2423
11957TIP3    H157362   4.686   0.543   6.193 -0.5425 -0.7072  0.3292
11957TIP3    H257363   4.643   0.398   6.176 -0.8771 -0.5009 -0.6026
11958TIP3   OH257364   0.160   4.503   2.592  0.4916 -0.2164  0.3634
11958TIP3    H157365   0.070   4.470   2.591  0.1644  0.6506  0.4173
11958TIP3    H257366   0.209   4.439   2.645  0.2554 -1.5307 -0.9307
11959TIP3   OH257367   4.644   3.275   4.840  0.1105 -0.3200  0.1588
11959TIP3    H157368   4.582   3.337   4.879 -0.5696 -0.7169 -0.2739
11959TIP3    H257369   4.641   3.294   4.746  2.6729  1.4867  0.3441
11960TIP3   OH257370   2.415   2.640   5.949  0.1474 -0.3275  0.2989
11960TIP3    H157371   2.491   2.585   5.930 -0.5862 -1.5727  0.8382
11960TIP3    H257372   2.452   2.718   5.990  1.2320 -0.2761 -0.7082
11961TIP3   OH257373   6.636   5.991   3.094  0.0681 -0.0170  0.4703
11961TIP3    H157374   6.653   6.084   3.105  1.1524 -0.2827  1.2754
11961TIP3    H257375   6.720   5.949   3.112  0.2005 -1.0350 -2.0259
11962TIP3   OH257376   4.916   1.243  13.436 -0.1690 -0.0395 -0.4558
11962TIP3    H157377   5.007   1.230  13.464 -0.2496  0.1492 -0.1114
11962TIP3    H257378   4.921   1.243  13.340 -0.1861 -2.8710 -0.5480
11963TIP3   OH257379   1.961   0.676  14.911 -0.2333  0.0026  0.2375
11963TIP3    H157380   2.051   0.645  14.920  0.2896  1.7117  1.1940
11963TIP3    H257381   1.960   0.724  14.828 -0.2335  0.0946  0.2910
11964TIP3   OH257382   3.695   1.510   3.695  0.1259 -0.6949  0.3582
11964TIP3    H157383   3.740   1.431   3.724 -0.2827 -0.3931  1.9075
11964TIP3    H257384   3.635   1.480   3.627  2.0992 -1.2159 -1.2379
11965TIP3   OH257385   5.756   2.661   1.900  0.0720 -0.2502 -0.6182
11965TIP3    H157386   5.830   2.616   1.940 -0.2806  0.2707  0.7023
11965TIP3    H257387   5.699   2.591   1.867  1.0352 -0.6551 -1.4454
11966TIP3   OH257388   6.136   1.693  14.845 -0.8901 -0.3596  1.0967
11966TIP3    H157389   6.180   1.660  14.767 -2.2663 -0.9125  0.5225
11966TIP3    H257390   6.072   1.756  14.811 -1.4446 -0.5409  1.7814
11967TIP3   OH257391   1.158   0.098  14.629  0.0329 -0.3204 -0.2084
11967TIP3    H157392   1.131   0.089  14.720  2.4771 -0.9727  0.5356
11967TIP3    H257393   1.103   0.037  14.581 -0.3779 -0.9543  1.0346
11968TIP3   OH257394   0.899   6.324  14.905  0.1273 -0.4908  0.1604
11968TIP3    H157395   0.856   6.363  14.981 -0.4775  0.4516 -0.6387
11968TIP3    H257396   0.829   6.278  14.860  0.7101 -2.0047  0.7475
11969TIP3   OH257397   0.329   4.900  12.985  0.2466  0.6986  0.2502
11969TIP3    H157398   0.417   4.870  13.008  0.0575 -1.5347 -1.5093
11969TIP3    H257399   0.343   4.985  12.943  2.0606 -0.8938 -2.7430
11970TIP3   OH257400   2.118   0.270   3.411 -0.0007  0.6069 -0.2542
11970TIP3    H157401   2.047   0.231   3.361  3.5191 -1.7940 -3.9695
11970TIP3    H257402   2.114   0.363   3.388 -1.3906  0.3754 -1.0882
11971TIP3   OH257403   6.508   6.250  14.021  0.5091 -0.1677 -0.0052
11971TIP3    H157404   6.442   6.310  13.987 -0.0947 -0.8804 -0.0993
11971TIP3    H257405   6.588   6.273  13.972 -0.0014 -0.2235 -0.8837
11972TIP3   OH257406   5.350   3.362   1.575 -0.3513  0.1732 -0.3102
11972TIP3    H157407   5.337   3.309   1.653  3.2061  1.1503  1.1599
11972TIP3    H257408   5.366   3.450   1.608 -0.2362  0.9531 -2.2705
11973TIP3   OH257409   2.817   3.379   4.791  0.2394 -0.8762 -0.2857
11973TIP3    H157410   2.836   3.387   4.697 -2.2272  0.7612 -0.7631
11973TIP3    H257411   2.726   3.408   4.799  0.5434 -0.4182  2.7065
11974TIP3   OH257412   1.360   5.437  15.551  0.0096  0.7328  0.1264
11974TIP3    H157413   1.351   5.505  15.617  0.3424  1.0301 -0.1266
11974TIP3    H257414   1.377   5.357  15.600 -1.3996  0.6277  0.4859
11975TIP3   OH257415   1.495   4.302  11.372 -0.0489  0.4351  0.5565
11975TIP3    H157416   1.544   4.301  11.290  0.1012 -1.9498  0.6040
11975TIP3    H257417   1.555   4.341  11.435 -0.7608  3.9041 -0.6840
11976TIP3   OH257418   6.411   3.630   5.643  0.0818  0.3618  0.1546
11976TIP3    H157419   6.342   3.624   5.577  1.3400  0.6966 -1.2352
11976TIP3    H257420   6.446   3.541   5.649  0.4837  0.4914 -0.2155
11977TIP3   OH257421   3.186   2.870  11.128 -0.4621 -0.3086  0.3766
11977TIP3    H157422   3.173   2.819  11.208 -0.0677 -1.5151 -0.2914
11977TIP3    H257423   3.185   2.804  11.058  0.4472  0.5674 -0.4865
11978TIP3   OH257424   2.792   2.984  13.563  0.3441 -0.5971  0.3737
11978TIP3    H157425   2.813   2.953  13.651  1.5935  0.8585  0.6420
11978TIP3    H257426   2.758   3.073  13.576 -0.2272 -0.6652 -0.5595
11979TIP3   OH257427   5.731   2.271  13.031 -0.3679 -0.3057  0.2395
11979TIP3    H157428   5.720   2.272  12.936 -1.0010 -1.0603  0.3012
11979TIP3    H257429   5.710   2.182  13.057  1.0465 -0.4574  0.9573
11980TIP3   OH257430   5.750   4.867  12.655  0.1309 -0.9992  0.8675
11980TIP3    H157431   5.831   4.817  12.647  0.5068 -0.2572 -0.1630
11980TIP3    H257432   5.723   4.884  12.565 -0.3392  0.0830  1.1939
11981TIP3   OH257433   5.596   2.733   6.179  0.4105 -0.1959 -0.2943
11981TIP3    H157434   5.574   2.668   6.246  1.3150 -0.0530  0.1540
11981TIP3    H257435   5.595   2.817   6.225  0.7352 -0.0620 -0.5236
11982TIP3   OH257436   1.303   2.632  11.326 -0.0507  0.3579  0.1798
11982TIP3    H157437   1.345   2.718  11.320  0.2797  0.1223 -1.2468
11982TIP3    H257438   1.214   2.647  11.296  0.5316 -0.1180 -1.9264
11983TIP3   OH257439   1.115   2.204  17.169 -0.8665 -0.6322  0.2171
11983TIP3    H157440   1.162   2.281  17.200  0.5214 -0.6019 -1.8400
11983TIP3    H257441   1.063   2.177  17.245 -0.9286  1.9270  1.2042
11984TIP3   OH257442   4.566   5.850  14.485 -0.2925 -0.4099  0.4658
11984TIP3    H157443   4.527   5.937  14.485 -1.5375 -0.9440  1.1748
11984TIP3    H257444   4.660   5.866  14.498 -0.6451  0.7672  1.8707
11985TIP3   OH257445   0.474   4.208  11.546  0.2332  0.2028 -0.0152
11985TIP3    H157446   0.420   4.142  11.590  1.5828  0.1317  1.6272
11985TIP3    H257447   0.557   4.207  11.593  1.1253  1.4404 -1.4540
11986TIP3   OH257448   5.520   1.589  13.666  0.1101 -0.2889 -0.2517
11986TIP3    H157449   5.447   1.617  13.721  0.2317 -1.4988  0.5555
11986TIP3    H257450   5.562   1.671  13.638 -1.0480  0.3873 -0.0512
11987TIP3   OH257451   4.420   0.586  14.157 -0.1521 -0.0976 -0.1917
11987TIP3    H157452   4.457   0.671  14.133  1.1856 -0.3135  1.0077
11987TIP3    H257453   4.453   0.526  14.091 -0.2539  0.1245 -0.4467
11988TIP3   OH257454   3.213   4.045   4.964  0.4302  0.4003 -0.4220
11988TIP3    H157455   3.125   4.075   4.989  0.0688 -0.7884 -0.2173
11988TIP3    H257456   3.263   4.050   5.046  0.3747  0.4440 -0.3904
11989TIP3   OH257457   5.196   6.118  15.373 -0.1364  0.0141 -0.2932
11989TIP3    H157458   5.170   6.055  15.440  0.6720 -0.0277 -0.0066
11989TIP3    H257459   5.278   6.156  15.406  0.6872 -0.5514 -1.5988
11990TIP3   OH257460   6.775   6.289  16.432 -0.8300 -0.1363 -0.6104
11990TIP3    H157461   6.757   6.251  16.346  0.3729  1.1112 -1.4415
11990TIP3    H257462   6.745   6.380  16.425  0.4408  0.3389 -0.1385
11991TIP3   OH257463   6.155   6.492   2.102 -0.1534  0.3038 -0.1118
11991TIP3    H157464   6.161   6.523   2.192  0.9321 -1.0333  0.3118
11991TIP3    H257465   6.133   6.399   2.110  0.0944  0.1369 -1.2198
11992TIP3   OH257466   0.984   1.997   3.600 -0.5438  0.6158  0.0650
11992TIP3    H157467   1.004   1.961   3.686  2.1852 -0.6949 -0.9868
11992TIP3    H257468   0.944   1.925   3.552  0.9450  0.2538 -0.7028
11993TIP3   OH257469   5.703   6.329   1.064 -0.2132 -0.0902  0.6324
11993TIP3    H157470   5.760   6.282   1.003  1.0429  2.2064 -0.0632
11993TIP3    H257471   5.640   6.374   1.007  0.6156  1.6159  0.9858
11994TIP3   OH257472   6.191   2.698   6.137 -0.0877  0.3782  0.0234
11994TIP3    H157473   6.127   2.627   6.128 -1.2105  1.1619  1.3342
11994TIP3    H257474   6.215   2.697   6.230  2.2662 -0.2387 -0.5434
11995TIP3   OH257475   4.666   3.114  11.716  0.3256 -0.7267  0.2565
11995TIP3    H157476   4.758   3.130  11.698 -0.0754 -0.6973 -2.1074
11995TIP3    H257477   4.647   3.032  11.671 -0.9133 -0.4850  0.3007
11996TIP3   OH257478   3.468   1.200  15.214 -0.3923  0.3353  0.2222
11996TIP3    H157479   3.457   1.117  15.168 -0.4028 -0.9207  2.3715
11996TIP3    H257480   3.381   1.237  15.218 -0.3342  0.6611 -1.0596
11997TIP3   OH257481   4.360   5.790  14.701 -0.1449 -0.2249 -0.0735
11997TIP3    H157482   4.400   5.816  14.617  0.6727 -0.1762  0.3172
11997TIP3    H257483   4.294   5.857  14.718  0.1049  0.1080 -0.3833
11998TIP3   OH257484   5.612   0.630   5.349  0.3149  0.5168  0.3923
11998TIP3    H157485   5.526   0.595   5.328  0.6766  0.1971 -0.6203
11998TIP3    H257486   5.606   0.723   5.327  0.4272  0.3562 -0.3490
11999TIP3   OH257487   6.116   3.147   0.527  0.2418  0.1819  0.0175
11999TIP3    H157488   6.090   3.223   0.579  0.8490 -0.2806  1.0382
11999TIP3    H257489   6.070   3.074   0.567  2.2986 -0.4980  1.2620
12000TIP3   OH257490   5.523   0.927   0.541  0.0287  0.2710 -0.0832
12000TIP3    H157491   5.590   0.864   0.514 -1.3970 -0.7324 -1.5045
12000TIP3    H257492   5.529   0.998   0.477  0.6843  0.9180  0.6717
12001TIP3   OH257493   6.121   0.547   1.719  0.0516  0.4881  0.2796
12001TIP3    H157494   6.149   0.568   1.808  0.3548 -0.6838  0.4703
12001TIP3    H257495   6.139   0.627   1.670  0.2247  1.0250  1.1894
12002TIP3   OH257496   0.258   4.379  11.473  0.7793 -0.2472 -0.3256
12002TIP3    H157497   0.310   4.448  11.433 -0.3239  0.1035 -1.2010
12002TIP3    H257498   0.305   4.298  11.453  1.2729  0.1075 -0.6127
12003TIP3   OH257499   6.050   0.818  12.941 -0.3294 -0.1923 -0.2641
12003TIP3    H157500   6.016   0.827  13.030 -0.7363 -0.4644 -0.3885
12003TIP3    H257501   6.140   0.787  12.953  0.1159  1.1893  0.0851
12004TIP3   OH257502   0.176   3.164   5.229 -0.0769  0.0067 -0.0181
12004TIP3    H157503   0.221   3.205   5.155 -0.1237  1.3842  0.6842
12004TIP3    H257504   0.143   3.081   5.194  1.6187 -0.3092 -0.9905
12005TIP3   OH257505   4.739   3.453  16.862  0.1752  0.5589 -0.1560
12005TIP3    H157506   4.692   3.375  16.891  0.8103 -0.3419 -1.4552
12005TIP3    H257507   4.825   3.447  16.903  0.8932 -0.4523 -1.6916
12006TIP3   OH257508   1.187   2.080  14.533  0.3948 -1.1617 -0.0410
12006TIP3    H157509   1.152   2.045  14.616  1.2579 -0.0675  0.8193
12006TIP3    H257510   1.255   2.018  14.508  2.4036  0.1261  1.8402
12007TIP3   OH257511   5.359   0.426  11.507 -0.1727 -0.0916  0.4532
12007TIP3    H157512   5.432   0.389  11.458  0.0501  0.4490  0.3673
12007TIP3    H257513   5.362   0.383  11.592  0.8175  0.5986  0.7792
12008TIP3   OH257514   3.454   0.350  13.278 -0.2413  0.3810  0.2376
12008TIP3    H157515   3.535   0.396  13.302  1.2641 -1.4183 -1.0388
12008TIP3    H257516   3.429   0.301  13.356  0.7166 -0.1275  0.2383
12009TIP3   OH257517   4.591   1.358   4.194 -0.0442 -0.3656  0.4428
12009TIP3    H157518   4.561   1.317   4.275 -2.1837  1.0861  0.4627
12009TIP3    H257519   4.608   1.284   4.135 -1.1192 -1.3748  1.3391
12010TIP3   OH257520   4.946   5.216   6.467 -0.1116  0.2311 -0.5566
12010TIP3    H157521   4.962   5.127   6.439  0.3708  0.7496 -1.9834
12010TIP3    H257522   4.885   5.252   6.403 -0.6598  0.8058  0.2516
12011TIP3   OH257523   6.352   6.752   5.686 -0.1926  0.1620 -0.2416
12011TIP3    H157524   6.364   6.803   5.606 -0.5731  0.4821 -0.0988
12011TIP3    H257525   6.426   6.777   5.741  0.2678 -0.3291 -0.6276
12012TIP3   OH257526   6.775   1.258   1.980 -0.1980 -0.3863  0.2196
12012TIP3    H157527   6.818   1.175   1.960  0.8664  0.4485 -1.1520
12012TIP3    H257528   6.683   1.235   1.992  0.6979 -2.6332  5.6880
12013TIP3   OH257529   0.018   5.127  12.338  0.2859 -0.2879  0.4294
12013TIP3    H157530   0.017   5.032  12.333  2.4494 -0.3291 -0.2361
12013TIP3    H257531  -0.072   5.151  12.360 -0.5465 -2.4126 -0.4026
12014TIP3   OH257532   0.943   1.736  13.472  0.2305 -0.0904 -0.6505
12014TIP3    H157533   0.862   1.749  13.423  0.3375  0.5080 -0.6821
12014TIP3    H257534   0.927   1.659  13.526 -1.4506  1.6406  1.4935
12015TIP3   OH257535   5.336   3.063   6.273  0.1704  0.0162 -0.0782
12015TIP3    H157536   5.395   2.994   6.303 -1.0357 -0.8642  0.3001
12015TIP3    H257537   5.293   3.027   6.196 -0.8078  0.1480  0.3883
12016TIP3   OH257538   2.274   5.609   3.923  0.0536 -0.1555 -0.0080
12016TIP3    H157539   2.295   5.696   3.957 -0.5800 -0.6341  1.7192
12016TIP3    H257540   2.185   5.618   3.888 -0.2417 -0.2248  0.7013
12017TIP3   OH257541   3.968   4.484  15.936 -0.5535  0.0067 -0.0521
12017TIP3    H157542   3.947   4.547  15.868 -4.2144  0.0765  0.9302
12017TIP3    H257543   3.980   4.401  15.890 -3.2296 -0.0057 -0.8849
12018TIP3   OH257544   0.005   2.697  16.688 -0.3137  0.4511 -0.6683
12018TIP3    H157545   0.087   2.702  16.640  0.5038  0.6239  0.7152
12018TIP3    H257546  -0.026   2.787  16.693  0.8381  0.7749  1.1884
12019TIP3   OH257547   1.866   6.633  14.702  0.7224 -0.8536  0.0568
12019TIP3    H157548   1.859   6.727  14.687 -2.2614 -0.5905  2.2623
12019TIP3    H257549   1.932   6.624  14.771 -0.0751 -0.2050  0.9184
12020TIP3   OH257550   4.629   3.256  10.881  0.0618  0.1754  0.4635
12020TIP3    H157551   4.589   3.272  10.796  1.6254 -0.0915 -0.3616
12020TIP3    H257552   4.713   3.302  10.877 -0.2296  0.9599  2.2331
12021TIP3   OH257553   1.575   1.851  11.586 -0.3913 -0.1269  0.3846
12021TIP3    H157554   1.506   1.814  11.531  0.1879 -1.5908  0.5940
12021TIP3    H257555   1.530   1.908  11.647 -0.9616  2.8684 -2.5202
12022TIP3   OH257556   2.307   4.024  16.406 -0.2567  0.3074 -0.1464
12022TIP3    H157557   2.313   4.057  16.496  0.7273 -0.9221  0.2557
12022TIP3    H257558   2.213   4.012  16.392 -0.3506 -0.6479  1.1553
12023TIP3   OH257559   3.061   6.282  14.478  0.2586  0.0189 -0.0257
12023TIP3    H157560   3.010   6.215  14.523  1.8578 -1.7562 -0.7103
12023TIP3    H257561   3.000   6.354  14.465 -1.8753 -1.7149 -0.2019
12024TIP3   OH257562   5.044   1.393  12.571  0.0509  0.1442  0.5075
12024TIP3    H157563   5.124   1.396  12.518 -0.2986 -1.8234 -0.2030
12024TIP3    H257564   5.075   1.399  12.661  0.8302  1.2308  0.1930
12025TIP3   OH257565   2.648   0.100  16.218 -0.0242 -0.1162 -0.1579
12025TIP3    H157566   2.575   0.150  16.181  0.0467 -1.1825 -1.8554
12025TIP3    H257567   2.622   0.008  16.208  0.7319 -0.4773  0.9965
12026TIP3   OH257568   0.132   1.576   3.403 -0.0553  0.3710 -0.3930
12026TIP3    H157569   0.073   1.591   3.476  0.3921  1.6904 -0.2748
12026TIP3    H257570   0.077   1.586   3.325 -0.1284  1.0421 -0.2682
12027TIP3   OH257571   2.994   1.125   6.365 -0.3176 -0.2491 -0.5382
12027TIP3    H157572   3.089   1.141   6.367 -0.1988 -0.9070 -0.7317
12027TIP3    H257573   2.971   1.129   6.273 -0.1581 -1.8333 -0.6745
12028TIP3   OH257574   0.546   0.971  16.975  0.5550 -0.1003 -0.8102
12028TIP3    H157575   0.516   0.921  17.051  0.0679  0.3093 -0.7302
12028TIP3    H257576   0.570   0.905  16.911  1.3745 -0.4693 -0.1516
12029TIP3   OH257577   4.493   3.625   1.597 -0.0076  0.6751 -0.0531
12029TIP3    H157578   4.521   3.694   1.536  1.0486  1.3122  1.0839
12029TIP3    H257579   4.546   3.640   1.675 -2.7008  1.1448  1.8202
12030TIP3   OH257580   5.048   0.101  11.914 -0.1046 -0.1137 -0.2459
12030TIP3    H157581   5.087   0.055  11.988  0.0744  1.0593  0.4074
12030TIP3    H257582   4.961   0.127  11.945  0.7076  2.1147  0.2905
12031TIP3   OH257583   2.669   0.085   5.119 -0.2761  0.0340 -0.2771
12031TIP3    H157584   2.597   0.023   5.127  0.2599 -0.5195  0.3955
12031TIP3    H257585   2.627   0.169   5.099 -0.9789 -0.6023 -1.5834
12032TIP3   OH257586   1.455   5.656   1.743 -0.4889 -0.0324 -0.1668
12032TIP3    H157587   1.452   5.751   1.756 -0.2287 -0.1899  1.1308
12032TIP3    H257588   1.542   5.631   1.774 -1.5530 -1.0613  2.2570
12033TIP3   OH257589   2.991   3.359   4.481 -0.6451 -0.7228 -0.0052
12033TIP3    H157590   2.968   3.285   4.424  0.5592 -1.7964  0.8509
12033TIP3    H257591   3.054   3.323   4.543  1.1614  1.3843 -0.4865
12034TIP3   OH257592   2.284   2.516  11.592 -0.5395 -0.0012  0.0100
12034TIP3    H157593   2.244   2.592  11.550  0.7569  0.0886 -1.1249
12034TIP3    H257594   2.351   2.487  11.530 -0.9369 -2.0169  0.4521
12035TIP3   OH257595   2.360   4.536  12.683  0.2495  0.3363 -0.6467
12035TIP3    H157596   2.288   4.564  12.627  0.8486  1.0325 -1.0896
12035TIP3    H257597   2.435   4.588  12.654  0.7427  0.2083  0.3385
12036TIP3   OH257598   3.204   0.852  14.883 -0.7944 -0.3061  0.0353
12036TIP3    H157599   3.133   0.794  14.857 -0.4233 -0.6744 -0.1720
12036TIP3    H257600   3.275   0.793  14.909 -0.2356  0.0478 -0.6557
12037TIP3   OH257601   6.060   0.854  12.320  0.2503 -0.4158 -0.3572
12037TIP3    H157602   5.975   0.843  12.276 -0.1828 -0.1304  0.3808
12037TIP3    H257603   6.054   0.797  12.397  0.7580 -0.4421 -0.3373
12038TIP3   OH257604   4.173   2.858  15.197  0.3648 -0.2081  0.1553
12038TIP3    H157605   4.210   2.770  15.206  1.6589  0.4263  1.3002
12038TIP3    H257606   4.225   2.900  15.129 -0.3386 -0.3523 -0.4851
12039TIP3   OH257607   6.414   5.765  11.136  0.5695  0.7231 -0.7429
12039TIP3    H157608   6.332   5.795  11.095  0.3104  0.7187 -0.2344
12039TIP3    H257609   6.441   5.839  11.191 -0.1538 -0.0012  0.6422
12040TIP3   OH257610   0.825   4.215  10.781  0.1208  0.0677 -0.1048
12040TIP3    H157611   0.811   4.308  10.800  1.3419 -0.3291  3.5965
12040TIP3    H257612   0.879   4.215  10.702 -0.1998  2.4972 -0.3996
12041TIP3   OH257613   1.821   5.102   0.105  0.2963 -1.1986 -0.3321
12041TIP3    H157614   1.801   5.027   0.049  2.9551 -3.1091  1.0481
12041TIP3    H257615   1.800   5.073   0.194  2.2304 -0.7399  0.3330
12042TIP3   OH257616   0.467   4.400   3.252 -0.2702 -0.2300  0.0413
12042TIP3    H157617   0.465   4.337   3.325  1.9594 -0.6746 -0.2344
12042TIP3    H257618   0.538   4.370   3.196 -1.4660  0.5422 -1.9693
12043TIP3   OH257619   0.798   1.873   1.886 -0.3656 -0.4756  0.0122
12043TIP3    H157620   0.881   1.863   1.839  0.6452  0.3535  1.5086
12043TIP3    H257621   0.732   1.835   1.828  1.2271 -2.3233 -0.7129
12044TIP3   OH257622   3.451   4.381  16.513 -0.1576 -0.3172 -0.1478
12044TIP3    H157623   3.416   4.299  16.548 -3.5164  0.5280 -1.1509
12044TIP3    H257624   3.441   4.443  16.585  1.3393 -0.5034  0.2436
12045TIP3   OH257625   6.010   2.592  11.574  0.2566  0.4023 -0.8316
12045TIP3    H157626   6.050   2.518  11.620 -0.2713 -1.4365 -3.1333
12045TIP3    H257627   6.083   2.632  11.526  0.4964  1.2821  0.2240
12046TIP3   OH257628   3.751   2.032   0.957 -0.0401 -0.3344 -0.6837
12046TIP3    H157629   3.795   1.977   0.892  0.4056  1.3894 -1.9059
12046TIP3    H257630   3.695   2.090   0.906 -0.1771  0.6309  0.5191
12047TIP3   OH257631   1.836   6.680  12.228 -0.1903 -0.2272 -0.4781
12047TIP3    H157632   1.817   6.598  12.274 -0.6697 -0.5597 -1.2379
12047TIP3    H257633   1.802   6.749  12.285 -1.2576 -0.6648 -0.5582
12048TIP3   OH257634   2.212   1.491   5.851 -0.6123  0.3772  0.6088
12048TIP3    H157635   2.200   1.550   5.776  1.7480  0.3422  0.1379
12048TIP3    H257636   2.127   1.492   5.895 -1.9080  0.8340 -1.7338
12049TIP3   OH257637   5.465   6.815  12.993 -0.9174  0.4036  0.8057
12049TIP3    H157638   5.408   6.753  13.038 -0.1396  0.1961  1.5422
12049TIP3    H257639   5.533   6.837  13.058  0.0259  0.3787 -0.1390
12050TIP3   OH257640   1.409   2.057   5.413  0.4761  0.5204  0.0688
12050TIP3    H157641   1.417   1.969   5.451  0.4913 -0.0720 -1.2630
12050TIP3    H257642   1.499   2.090   5.409  0.4183  0.8722  1.1289
12051TIP3   OH257643   2.598   4.431  11.826 -0.2151 -0.1152 -0.3998
12051TIP3    H157644   2.625   4.520  11.803 -0.3258  0.1638  0.5235
12051TIP3    H257645   2.507   4.439  11.852  0.1125 -0.2732  0.8666
12052TIP3   OH257646   6.429   6.578   2.727  0.5905 -0.0759 -0.0506
12052TIP3    H157647   6.417   6.503   2.785  1.7748 -0.5911 -0.4410
12052TIP3    H257648   6.439   6.541   2.640  2.5960  0.3727 -0.0739
12053TIP3   OH257649   6.142   4.081  13.388 -0.1970  0.5952  0.5149
12053TIP3    H157650   6.134   3.992  13.354  1.0229  0.9010 -0.6725
12053TIP3    H257651   6.054   4.116  13.383 -0.8964 -0.8618  1.9689
12054TIP3   OH257652   3.522   1.108   5.066  0.5565 -0.0144  0.2296
12054TIP3    H157653   3.501   1.139   4.978  0.5015 -0.9841 -0.1146
12054TIP3    H257654   3.604   1.153   5.089  0.4948  0.3492 -0.2529
12055TIP3   OH257655   6.486   1.995   0.917  0.0525  0.0308  0.3230
12055TIP3    H157656   6.534   2.061   0.866  0.8976  0.4902  1.6470
12055TIP3    H257657   6.554   1.936   0.950 -0.6448 -1.2353 -0.4287
12056TIP3   OH257658   2.948   2.365  14.361 -0.0031 -0.1229 -0.9223
12056TIP3    H157659   2.943   2.460  14.373 -0.5673 -0.1401 -0.9722
12056TIP3    H257660   3.041   2.347  14.346  0.4211  0.1644  1.1367
12057TIP3   OH257661   6.472   4.748   0.796  0.6889 -0.4573  0.4643
12057TIP3    H157662   6.413   4.702   0.736 -0.7378  0.7819  0.8438
12057TIP3    H257663   6.528   4.680   0.833  1.0410 -1.3630 -1.6250
12058TIP3   OH257664   5.467   2.241   6.026  0.8463 -0.5164  0.2589
12058TIP3    H157665   5.454   2.243   6.121  0.0322 -1.2659  0.1740
12058TIP3    H257666   5.522   2.165   6.011  1.1833 -0.2510  0.1550
12059TIP3   OH257667   2.797   2.792   1.348  0.4858  0.5118 -0.5821
12059TIP3    H157668   2.859   2.804   1.276  0.1384  3.8293 -0.4826
12059TIP3    H257669   2.852   2.766   1.422  1.2117 -0.2949 -1.3793
12060TIP3   OH257670   5.754   3.486  16.409 -0.2060 -0.2784 -0.5621
12060TIP3    H157671   5.697   3.519  16.339 -2.1489 -0.4464  0.8618
12060TIP3    H257672   5.828   3.547  16.410 -0.7984  0.5161 -1.8597
12061TIP3   OH257673   6.505   5.376   2.566 -0.9968  0.1287  0.5505
12061TIP3    H157674   6.594   5.408   2.548 -0.8860 -0.0553  0.7711
12061TIP3    H257675   6.516   5.313   2.636 -1.3436  0.3245  0.7852
12062TIP3   OH257676   2.380   2.117  14.258 -0.7574  0.2920  0.2578
12062TIP3    H157677   2.292   2.112  14.221 -0.8476  5.2834 -0.8235
12062TIP3    H257678   2.367   2.107  14.352 -2.6691  1.7871  0.2065
12063TIP3   OH257679   2.993   4.038  13.141 -0.3812 -0.1217  0.2156
12063TIP3    H157680   2.939   3.960  13.140  0.7001 -1.0100  2.4311
12063TIP3    H257681   3.077   4.008  13.178  0.8430  1.6364 -0.9878
12064TIP3   OH257682   6.774   1.278  11.312 -0.0158  0.3602 -0.3530
12064TIP3    H157683   6.798   1.281  11.404  0.5424 -0.5312 -0.4546
12064TIP3    H257684   6.761   1.186  11.293  0.6235  0.4460 -1.3373
12065TIP3   OH257685   5.151   4.970   0.164 -0.5804 -0.2353  0.4209
12065TIP3    H157686   5.123   5.018   0.086 -0.9798 -0.2686  0.5450
12065TIP3    H257687   5.110   5.016   0.237  0.1375  0.0610  0.6545
12066TIP3   OH257688   0.317   4.270   2.675  0.6071 -0.2179 -0.0826
12066TIP3    H157689   0.358   4.231   2.598  1.7552 -1.2665  1.0237
12066TIP3    H257690   0.261   4.201   2.710  1.2761 -0.2972  0.8707
12067TIP3   OH257691   6.790   2.485   6.108 -0.4506 -0.0734 -0.2970
12067TIP3    H157692   6.884   2.473   6.095 -0.8274 -1.9894 -1.7397
12067TIP3    H257693   6.769   2.563   6.057  0.6694  1.7558  1.8924
12068TIP3   OH257694   4.072   6.265  10.658 -0.4897  1.1705 -0.4224
12068TIP3    H157695   4.086   6.179  10.620 -1.3757  1.4875 -1.5212
12068TIP3    H257696   4.103   6.257  10.748 -0.7975 -0.3577 -0.4295
12069TIP3   OH257697   0.047   3.575  10.560 -0.0704  0.4373  0.3301
12069TIP3    H157698  -0.031   3.595  10.509  0.5731  1.8464 -0.1657
12069TIP3    H257699   0.072   3.487  10.532 -0.8441  0.4173 -0.3322
12070TIP3   OH257700   1.909   4.125  14.507  0.6180  0.3452  0.4082
12070TIP3    H157701   1.948   4.053  14.457  1.6504  0.7517  0.6207
12070TIP3    H257702   1.955   4.203  14.478  0.6963  0.6929  1.4195
12071TIP3   OH257703   1.063   3.843   0.937 -0.9335 -0.5430  0.3825
12071TIP3    H157704   0.988   3.898   0.960 -0.2929  0.5259 -0.0372
12071TIP3    H257705   1.024   3.767   0.893 -1.7424  0.1649 -0.1468
12072TIP3   OH257706   3.698   6.602  13.541 -0.0839  0.3364  0.0419
12072TIP3    H157707   3.690   6.604  13.446 -0.3949 -1.4018 -0.0059
12072TIP3    H257708   3.789   6.576  13.557 -0.7363 -2.1373  0.1144
12073TIP3   OH257709   1.863   3.739  14.440 -0.1561 -0.4604  0.5840
12073TIP3    H157710   1.861   3.772  14.529 -0.7419  1.5688 -0.1214
12073TIP3    H257711   1.790   3.678  14.435 -0.1939 -0.4891  1.4548
12074TIP3   OH257712   1.309   0.658  13.384  0.1039  0.2255 -0.4380
12074TIP3    H157713   1.379   0.597  13.364 -1.2323 -1.2768 -0.7236
12074TIP3    H257714   1.254   0.659  13.306 -0.8130  0.4939  0.1918
12075TIP3   OH257715   1.474   0.200   2.607 -0.3773 -0.1616 -0.1653
12075TIP3    H157716   1.497   0.213   2.515 -2.6418  4.0696 -0.3850
12075TIP3    H257717   1.543   0.143   2.642  1.1017 -1.1212 -4.1814
12076TIP3   OH257718   2.039   5.412  11.837 -0.6054  0.6458 -0.0175
12076TIP3    H157719   2.096   5.394  11.762 -1.0308 -3.2272  0.3914
12076TIP3    H257720   2.094   5.396  11.913 -0.6747  2.7991  0.5379
12077TIP3   OH257721   4.431   4.256  14.173 -0.4874 -0.1663  0.6072
12077TIP3    H157722   4.397   4.338  14.207 -1.0925 -0.0298 -0.2766
12077TIP3    H257723   4.526   4.262  14.185 -0.5754  0.4414  1.0198
12078TIP3   OH257724   6.049   0.715   6.508  0.3246 -0.3391 -0.0384
12078TIP3    H157725   6.078   0.653   6.576 -1.4270  1.6296  2.7485
12078TIP3    H257726   5.957   0.694   6.493  0.5788 -0.4710 -1.5587
12079TIP3   OH257727   1.582   2.376  13.641  0.2630  0.3811 -0.3930
12079TIP3    H157728   1.591   2.343  13.731 -0.6832  1.1033 -0.0105
12079TIP3    H257729   1.488   2.372  13.623  0.2294  1.8555 -0.6967
12080TIP3   OH257730   6.799   1.298  16.281  0.4299  0.1139 -0.0817
12080TIP3    H157731   6.781   1.239  16.354  0.4520  2.2433  1.7693
12080TIP3    H257732   6.890   1.325  16.294  0.5628  0.2383 -1.1492
12081TIP3   OH257733   5.413   2.579  14.984  0.0154  0.2832  0.1206
12081TIP3    H157734   5.507   2.594  14.990  0.1858 -0.5486 -0.3583
12081TIP3    H257735   5.380   2.604  15.071  0.3996  2.2957 -0.2652
12082TIP3   OH257736   2.531   3.454   0.723 -0.1881  0.1689  0.4723
12082TIP3    H157737   2.561   3.542   0.746 -0.0751  0.5686 -1.1292
12082TIP3    H257738   2.441   3.451   0.754  0.4429  0.0646  2.4616
12083TIP3   OH257739   5.822   4.522  10.074  0.5663  0.0726  0.2722
12083TIP3    H157740   5.755   4.510  10.141 -0.0282  1.6656  0.0261
12083TIP3    H257741   5.905   4.513  10.120  0.2065 -1.6457  0.6427
12084TIP3   OH257742   5.843   3.675   4.761 -0.4108 -0.7502 -0.1312
12084TIP3    H157743   5.813   3.728   4.687  0.1426 -1.2093 -0.6851
12084TIP3    H257744   5.866   3.740   4.828  0.6579 -0.2492 -0.9521
12085TIP3   OH257745   0.218   2.877   6.046  0.1890  0.1001  0.6534
12085TIP3    H157746   0.268   2.916   5.974  1.5265 -1.6371  0.5681
12085TIP3    H257747   0.167   2.949   6.082 -1.8390  0.7451 -3.0300
12086TIP3   OH257748   5.187   1.450  16.404  0.4436  0.0574  0.0450
12086TIP3    H157749   5.095   1.442  16.428  0.1833  1.3537 -0.4536
12086TIP3    H257750   5.193   1.532  16.355  1.7022 -0.4412 -0.7067
12087TIP3   OH257751   4.763   0.655  12.937 -0.0927 -0.4690 -0.0442
12087TIP3    H157752   4.825   0.653  12.864  0.9576  0.0103  0.8226
12087TIP3    H257753   4.751   0.748  12.956 -1.0134 -0.5555 -0.1196
12088TIP3   OH257754   3.790   3.993   4.165  0.1191  0.0884 -0.1305
12088TIP3    H157755   3.724   4.063   4.169 -1.6887 -1.4659 -0.8435
12088TIP3    H257756   3.767   3.942   4.087  1.6242 -1.0607  0.1208
12089TIP3   OH257757   4.344   0.806   6.473  0.2186  0.4565 -0.0291
12089TIP3    H157758   4.406   0.762   6.415 -1.8409 -0.9139 -1.3043
12089TIP3    H257759   4.302   0.736   6.522 -0.0394  1.3914  1.1522
12090TIP3   OH257760   3.166   4.939   4.054  0.3578  0.1328 -0.1205
12090TIP3    H157761   3.093   4.878   4.068  1.1803 -0.5296  1.5370
12090TIP3    H257762   3.144   5.015   4.107  0.2762  0.4718 -0.6337
12091TIP3   OH257763   3.206   6.134   3.773 -0.0780 -0.0459 -0.3066
12091TIP3    H157764   3.252   6.133   3.689  0.6425  0.6730  0.0593
12091TIP3    H257765   3.256   6.196   3.827 -0.7271 -0.2348  0.5391
12092TIP3   OH257766   0.850   4.728  16.214  0.1400  0.3218 -0.1844
12092TIP3    H157767   0.817   4.678  16.289 -0.3636  1.8718  0.6709
12092TIP3    H257768   0.944   4.709  16.212 -0.0989 -0.9340 -0.1194
12093TIP3   OH257769   0.947   0.977   4.017 -0.0500 -0.5339  0.0829
12093TIP3    H157770   0.972   0.987   3.925 -1.4178  3.1158 -0.0535
12093TIP3    H257771   1.030   0.961   4.062  1.5466  2.6657 -1.3256
12094TIP3   OH257772   0.557   4.850   3.421  0.3891 -0.2035 -0.0545
12094TIP3    H157773   0.499   4.802   3.362 -0.1513 -0.4768  0.6777
12094TIP3    H257774   0.548   4.804   3.505  2.2824 -0.7618 -0.1112
12095TIP3   OH257775   1.376   1.741  11.438 -1.0695  0.5349  0.2280
12095TIP3    H157776   1.330   1.658  11.434 -1.6604  0.8551  0.2846
12095TIP3    H257777   1.344   1.790  11.362  1.0729 -0.1850 -1.2480
12096TIP3   OH257778   0.559   0.800  17.208 -0.8163  0.1889  0.2844
12096TIP3    H157779   0.602   0.824  17.290  0.9757 -1.9039  0.0510
12096TIP3    H257780   0.495   0.733  17.232 -0.8443  0.1410  0.0836
12097TIP3   OH257781   4.891   5.415  13.198  0.2787  0.1101 -0.2307
12097TIP3    H157782   4.870   5.389  13.288  1.2268 -0.4863 -0.1593
12097TIP3    H257783   4.823   5.477  13.174 -0.8154 -0.8037  0.3891
12098TIP3   OH257784   1.539   3.723   5.240 -0.2605  0.2410 -0.0254
12098TIP3    H157785   1.485   3.643   5.240 -0.3001  0.2546  1.1047
12098TIP3    H257786   1.496   3.781   5.303  1.4206  0.0028  1.3934
12099TIP3   OH257787   2.470   1.451  15.623  0.1470  0.2781  0.5632
12099TIP3    H157788   2.540   1.495  15.671  0.3486  1.5316 -0.7931
12099TIP3    H257789   2.516   1.409  15.549 -0.5050  1.1672 -0.3743
12100TIP3   OH257790   2.274   3.941   0.201 -0.7009 -0.0714 -0.6239
12100TIP3    H157791   2.267   3.947   0.297 -0.0811  3.3708 -0.6764
12100TIP3    H257792   2.364   3.910   0.186 -0.4387  0.4251 -0.0964
12101TIP3   OH257793   5.962   5.417  10.646 -0.2759 -0.0301 -0.0177
12101TIP3    H157794   5.879   5.462  10.627 -0.3994  0.1216  0.8529
12101TIP3    H257795   6.029   5.484  10.631 -0.2758 -0.2216 -0.9628
12102TIP3   OH257796   6.385   1.284   1.756  0.1012 -0.1501 -0.1879
12102TIP3    H157797   6.441   1.273   1.833 -0.5063 -0.0266  0.2814
12102TIP3    H257798   6.431   1.239   1.685  0.9273  0.2017  0.1231
12103TIP3   OH257799   0.278   4.371  13.166 -0.7458 -0.4832  0.0834
12103TIP3    H157800   0.243   4.406  13.247 -1.9982  0.9567 -1.0202
12103TIP3    H257801   0.362   4.415  13.155 -0.7409 -0.4133  0.4040
12104TIP3   OH257802   5.981   1.975  15.886 -0.3119  0.6350 -0.3659
12104TIP3    H157803   5.990   2.068  15.865 -0.2997  0.7943  0.3144
12104TIP3    H257804   6.055   1.933  15.842  2.3084  1.5350  2.7816
12105TIP3   OH257805   4.485   5.278  15.878 -0.3775  0.5160 -0.7625
12105TIP3    H157806   4.562   5.336  15.879 -0.5420  0.8799  2.2324
12105TIP3    H257807   4.518   5.194  15.911 -0.7865 -0.1361 -1.9754
12106TIP3   OH257808   2.610   4.934  10.545 -0.1412 -0.0127 -0.2267
12106TIP3    H157809   2.547   4.889  10.601  0.4625  0.6214  0.9790
12106TIP3    H257810   2.659   4.863  10.504  0.1234 -0.4867  0.8729
12107TIP3   OH257811   3.330   5.629  12.919  0.1695  0.5717  0.5594
12107TIP3    H157812   3.378   5.587  12.990 -0.1389 -0.2011  0.3202
12107TIP3    H257813   3.238   5.619  12.943  0.0581  0.1751 -0.0114
12108TIP3   OH257814   5.954   5.926   1.124 -0.9206 -0.2432 -0.3671
12108TIP3    H157815   6.021   5.986   1.157  0.3544 -0.4070 -2.4855
12108TIP3    H257816   5.971   5.920   1.030 -4.0183 -0.2036 -1.0434
12109TIP3   OH257817   0.785   0.552  14.603 -0.2611  0.0555 -0.1289
12109TIP3    H157818   0.873   0.580  14.580 -0.5387  0.4189 -0.7525
12109TIP3    H257819   0.780   0.567  14.698  0.5784 -0.6241  0.0390
12110TIP3   OH257820   1.431   5.187  15.648  0.6614 -0.7140  0.2244
12110TIP3    H157821   1.428   5.110  15.704  0.3958 -0.3276  0.7556
12110TIP3    H257822   1.403   5.156  15.562  1.1142 -1.3249  0.2929
12111TIP3   OH257823   2.747   4.701   1.219 -0.0516 -0.1147 -0.5375
12111TIP3    H157824   2.829   4.745   1.196 -0.5542  0.9630 -0.3266
12111TIP3    H257825   2.773   4.611   1.235  0.7643 -0.2712 -2.4754
12112TIP3   OH257826   3.873   1.576   2.727 -0.2295  0.1862  0.3608
12112TIP3    H157827   3.778   1.577   2.736 -0.1288 -0.7473  1.9231
12112TIP3    H257828   3.889   1.522   2.649 -0.9580 -1.0885  1.0568
12113TIP3   OH257829   2.845   5.574  16.405 -0.1005 -0.5456 -0.0606
12113TIP3    H157830   2.874   5.650  16.456 -1.6589 -0.0413  0.1217
12113TIP3    H257831   2.914   5.509  16.418  1.4423  0.9094 -0.4609
12114TIP3   OH257832   0.259   5.662   3.994 -0.0276 -0.2633  0.3177
12114TIP3    H157833   0.341   5.623   4.025  0.4377  1.9077  2.0573
12114TIP3    H257834   0.282   5.702   3.910  0.7056  0.3014  0.7746
12115TIP3   OH257835   5.775   0.566   5.055  0.1403  0.8826 -0.1768
12115TIP3    H157836   5.838   0.608   5.113 -0.8112  0.4690  1.1852
12115TIP3    H257837   5.696   0.554   5.108 -0.6806  0.2570 -1.4715
12116TIP3   OH257838   4.557   4.727   3.721 -0.4614  0.0048 -0.0815
12116TIP3    H157839   4.511   4.805   3.689 -1.1288 -0.4585 -0.2962
12116TIP3    H257840   4.523   4.714   3.809  0.5109  0.6094  0.4003
12117TIP3   OH257841   5.707   1.605   1.727  0.1753 -0.1096  0.2999
12117TIP3    H157842   5.632   1.557   1.762 -0.5765  2.5696  2.7492
12117TIP3    H257843   5.669   1.661   1.660  0.0996  0.6532  0.9679
12118TIP3   OH257844   0.288   2.612  11.585 -0.4141 -0.0166 -0.0495
12118TIP3    H157845   0.381   2.631  11.573 -0.2024 -0.9834 -0.0291
12118TIP3    H257846   0.285   2.554  11.661 -0.9771 -0.3931 -0.3519
12119TIP3   OH257847   1.144   1.415  12.306  0.0503 -1.0959 -1.1616
12119TIP3    H157848   1.066   1.389  12.357 -0.5667 -0.8032 -1.9431
12119TIP3    H257849   1.189   1.332  12.290 -0.0248 -1.2562 -0.5951
12120TIP3   OH257850   2.722   3.006  15.783  0.2285 -0.1232 -0.3662
12120TIP3    H157851   2.668   2.939  15.741  1.5650 -1.0112 -0.7345
12120TIP3    H257852   2.669   3.085  15.778 -0.2386 -0.4919 -2.5346
12121TIP3   OH257853   3.527   6.172   0.573  0.0320 -0.2634 -0.0311
12121TIP3    H157854   3.604   6.229   0.580 -0.3772  0.4612 -1.0840
12121TIP3    H257855   3.455   6.233   0.554 -0.4472 -1.1149 -1.0088
12122TIP3   OH257856   3.734   1.267   4.468  0.0095 -0.0175 -0.1398
12122TIP3    H157857   3.771   1.182   4.444  0.9019  0.0782  0.8253
12122TIP3    H257858   3.708   1.256   4.560  0.6759  0.9115  0.1762
12123TIP3   OH257859   5.934   0.580  11.548  0.6390 -0.2374 -0.0169
12123TIP3    H157860   5.841   0.601  11.550  0.5329 -0.7788  1.0712
12123TIP3    H257861   5.940   0.504  11.491  0.6090  0.6233 -1.2199
12124TIP3   OH257862   5.435   1.859  16.860  0.0956 -0.9790 -0.7748
12124TIP3    H157863   5.369   1.828  16.798 -1.3755  0.7190 -0.1541
12124TIP3    H257864   5.483   1.781  16.886 -0.7494 -2.0568 -2.3174
12125TIP3   OH257865   0.446   1.792   1.575 -0.2862  0.1795 -0.2066
12125TIP3    H157866   0.489   1.757   1.653  2.5952  2.1619 -0.7571
12125TIP3    H257867   0.404   1.873   1.605 -0.7578 -0.0043 -0.3589
12126TIP3   OH257868   5.653   0.943   3.791 -0.0157  0.0824 -0.6202
12126TIP3    H157869   5.670   1.032   3.822  0.5421  0.5653 -2.2155
12126TIP3    H257870   5.581   0.953   3.727 -2.0857 -1.0694  1.3861
12127TIP3   OH257871   2.991   4.226  16.083  0.2730 -0.5795 -0.4564
12127TIP3    H157872   2.903   4.207  16.051  0.1586 -1.9592  0.6053
12127TIP3    H257873   3.003   4.168  16.158  2.1679 -0.5972 -0.7153
12128TIP3   OH257874   0.863   1.219  14.279  0.2944 -0.1742  0.6091
12128TIP3    H157875   0.832   1.294  14.329  0.0855  0.3057 -0.2330
12128TIP3    H257876   0.944   1.249  14.238 -0.4519  0.0421 -0.7806
12129TIP3   OH257877   2.019   0.772  16.799 -0.5348 -0.0130 -0.2018
12129TIP3    H157878   1.961   0.744  16.869  1.1892 -0.2417  1.1840
12129TIP3    H257879   2.088   0.706  16.795  0.5107  1.0565 -0.7244
12130TIP3   OH257880   0.053   2.466  16.054  0.2914 -0.1231  0.0049
12130TIP3    H157881   0.041   2.419  16.136  1.8167  0.8734  0.8562
12130TIP3    H257882   0.109   2.408  16.001 -0.2404 -0.5249 -0.1227
12131TIP3   OH257883   2.635   6.769  13.691 -0.2435 -0.3584 -0.4896
12131TIP3    H157884   2.572   6.822  13.740 -0.3768  0.8455 -1.8972
12131TIP3    H257885   2.676   6.830  13.630  0.0893 -1.7335 -1.7205
12132TIP3   OH257886   4.435   2.089  17.050 -0.1506  0.0318 -0.5801
12132TIP3    H157887   4.347   2.119  17.070  0.3565  0.5401  1.0284
12132TIP3    H257888   4.427   2.044  16.966 -2.0113 -0.3212 -0.2447
12133TIP3   OH257889   5.543   1.571  12.495  0.0916  0.0103 -0.2451
12133TIP3    H157890   5.591   1.503  12.543  0.5059 -1.6227 -2.7789
12133TIP3    H257891   5.456   1.571  12.535  0.1684 -1.8306  0.0013
12134TIP3   OH257892   0.306   0.888  13.755 -0.2015 -0.0593 -0.0130
12134TIP3    H157893   0.222   0.846  13.742 -1.1817  1.6499  0.4387
12134TIP3    H257894   0.337   0.909  13.667 -0.0233 -1.0743 -0.2006
12135TIP3   OH257895   1.108   0.085   4.534  0.0843 -0.4857  0.0417
12135TIP3    H157896   1.103   0.144   4.610 -1.5729  0.4496 -0.7592
12135TIP3    H257897   1.183   0.117   4.484 -0.4175  0.5515 -0.0611
12136TIP3   OH257898   6.560   5.480   1.024  0.7984 -0.6336  0.5556
12136TIP3    H157899   6.526   5.563   1.057 -2.6725 -1.2729 -0.9833
12136TIP3    H257900   6.603   5.440   1.099 -0.2001  1.1840  2.1917
12137TIP3   OH257901   2.766   1.199   4.881  0.4030 -0.0970  0.0445
12137TIP3    H157902   2.808   1.181   4.797  0.1045  0.6035 -0.2692
12137TIP3    H257903   2.695   1.135   4.887 -0.1960  0.4656 -0.7130
12138TIP3   OH257904   2.542   5.585   1.505 -0.4011 -0.0668 -0.7688
12138TIP3    H157905   2.498   5.655   1.553  1.1675  1.2614 -1.1561
12138TIP3    H257906   2.634   5.593   1.531 -0.3234 -2.7874  0.0959
12139TIP3   OH257907   0.320   3.897   1.459 -0.0317  0.4941  0.0435
12139TIP3    H157908   0.406   3.912   1.421 -0.5268  1.6942 -0.6607
12139TIP3    H257909   0.260   3.949   1.406 -1.2442 -0.5129  0.3478
12140TIP3   OH257910   4.782   5.568   0.946 -0.2158 -0.1327 -0.2194
12140TIP3    H157911   4.853   5.511   0.917 -0.5285 -1.1428  0.9054
12140TIP3    H257912   4.702   5.520   0.924 -0.5535  0.8028 -1.0902
12141TIP3   OH257913   6.626   6.114  16.212 -0.0887  0.2280 -0.6575
12141TIP3    H157914   6.655   6.038  16.162 -1.4145 -1.7753  1.4034
12141TIP3    H257915   6.607   6.079  16.299 -0.6350  2.9832  0.4274
12142TIP3   OH257916   2.665   2.092  14.817 -0.2339  0.5985  0.3350
12142TIP3    H157917   2.641   2.008  14.856  2.2230 -0.6712 -0.6016
12142TIP3    H257918   2.685   2.070  14.725  0.5017  2.1847  0.0820
12143TIP3   OH257919   5.800   2.398   0.029 -0.1366  0.0433  0.1830
12143TIP3    H157920   5.792   2.312   0.071 -0.5574 -0.0218 -0.0348
12143TIP3    H257921   5.790   2.380  -0.064 -0.4248  0.3552  0.1535
12144TIP3   OH257922   5.469   6.105  16.590 -0.0253 -0.2407  0.3428
12144TIP3    H157923   5.548   6.086  16.539 -0.6385  0.4482 -0.9174
12144TIP3    H257924   5.501   6.130  16.676  1.0712 -1.0688  0.2030
12145TIP3   OH257925   2.632   5.465   3.294 -0.5104  0.4079  0.4299
12145TIP3    H157926   2.682   5.388   3.267 -0.4948  0.8051 -0.7439
12145TIP3    H257927   2.596   5.442   3.379  1.5770  0.0515  1.2743
12146TIP3   OH257928   6.660   2.109   6.791 -0.3238 -0.1502 -0.0243
12146TIP3    H157929   6.587   2.092   6.851  0.6664  0.6488  1.4684
12146TIP3    H257930   6.633   2.187   6.743 -0.6931 -0.2123  0.0746
12147TIP3   OH257931   5.735   6.793  12.856  0.0825  0.0024  0.2067
12147TIP3    H157932   5.796   6.755  12.919  0.5543 -2.5842 -1.6687
12147TIP3    H257933   5.649   6.789  12.900  0.1714 -2.9962  0.2780
12148TIP3   OH257934   6.116   0.379   0.588  0.6774 -0.1461 -0.2065
12148TIP3    H157935   6.201   0.401   0.551  0.9085 -0.9280 -0.1670
12148TIP3    H257936   6.084   0.306   0.535  0.5121 -0.5481  0.4239
12149TIP3   OH257937   2.163   1.304   2.635  0.3496 -0.1369 -0.2061
12149TIP3    H157938   2.093   1.367   2.621 -0.9232 -1.5121 -0.2825
12149TIP3    H257939   2.244   1.355   2.624 -0.6175  1.4400 -0.3087
12150TIP3   OH257940   2.547   1.986  15.460  0.3589 -0.7780 -0.5032
12150TIP3    H157941   2.605   1.984  15.384  1.2910 -0.9452  0.2044
12150TIP3    H257942   2.572   2.066  15.507  0.5856 -1.2764  0.2351
12151TIP3   OH257943   3.668   0.201  15.615 -0.0631  0.2971 -0.1266
12151TIP3    H157944   3.597   0.142  15.590 -0.5535  0.5028  0.7615
12151TIP3    H257945   3.745   0.165  15.570 -0.3240 -1.0994  0.4817
12152TIP3   OH257946   3.811   6.199  14.708 -0.2057 -0.5749  0.3219
12152TIP3    H157947   3.817   6.282  14.756 -1.4825  0.5171 -1.2814
12152TIP3    H257948   3.829   6.132  14.774 -1.9069  0.8352  2.3645
12153TIP3   OH257949   4.236   6.332  14.577  0.1182 -0.1415  0.2923
12153TIP3    H157950   4.249   6.335  14.482  1.0670 -1.4891  0.3525
12153TIP3    H257951   4.167   6.396  14.593 -1.1802 -0.9900 -1.4995
12154TIP3   OH257952   5.178   4.690   0.767  0.0796  0.3498 -0.4408
12154TIP3    H157953   5.107   4.753   0.783  0.9693  1.1444  0.5634
12154TIP3    H257954   5.138   4.622   0.714 -1.9024 -0.0569  1.4116
12155TIP3   OH257955   2.212   5.578   0.355  0.4914  0.3387  0.2044
12155TIP3    H157956   2.292   5.612   0.316  1.0344 -1.1283 -0.0319
12155TIP3    H257957   2.149   5.650   0.347  0.7954  0.4096 -2.6719
12156TIP3   OH257958   1.836   3.087   1.299 -0.2806  0.0575 -0.3306
12156TIP3    H157959   1.822   3.001   1.259 -0.3095 -0.1470  0.1093
12156TIP3    H257960   1.792   3.081   1.383 -2.3863  1.3264 -1.2681
12157TIP3   OH257961   4.720   5.239  11.120  0.3695 -0.5166  0.1549
12157TIP3    H157962   4.767   5.169  11.164 -0.2272 -1.2446 -0.3303
12157TIP3    H257963   4.742   5.228  11.027 -0.4266 -0.6264 -0.0304
12158TIP3   OH257964   3.369   3.637  11.693 -0.7266  0.0839 -0.1200
12158TIP3    H157965   3.358   3.732  11.689  2.7992  0.5925 -1.2196
12158TIP3    H257966   3.385   3.619  11.785  0.3759  0.8945 -0.1254
12159TIP3   OH257967   1.154   4.040  15.544  0.0271 -0.3034 -0.6801
12159TIP3    H157968   1.094   4.099  15.498 -0.1648  1.2483  1.4445
12159TIP3    H257969   1.097   3.971  15.578 -0.1157 -0.3993 -1.1061
12160TIP3   OH257970   3.079   5.725  17.092 -0.1387 -0.1621 -0.6088
12160TIP3    H157971   3.033   5.797  17.048 -0.8938 -0.0314  0.3494
12160TIP3    H257972   3.149   5.700  17.032 -0.1762  1.0443 -1.1748
12161TIP3   OH257973   6.419   5.277   3.580 -0.1443 -0.5329 -0.0308
12161TIP3    H157974   6.325   5.263   3.585  0.0949 -1.9000  1.8024
12161TIP3    H257975   6.453   5.238   3.661  1.7682  1.8849  0.4385
12162TIP3   OH257976   1.138   1.252  13.265 -0.3721 -0.5265  0.0890
12162TIP3    H157977   1.098   1.178  13.219 -1.0619  0.3310 -0.7569
12162TIP3    H257978   1.066   1.291  13.314  0.0294 -0.5260  0.6788
12163TIP3   OH257979   3.040   5.298   1.628  0.3259  0.2351 -0.2685
12163TIP3    H157980   3.080   5.253   1.702 -1.0148 -1.2997 -0.4304
12163TIP3    H257981   2.950   5.265   1.625 -0.2075  1.6378 -1.4780
12164TIP3   OH257982   3.966   6.662   6.230  0.0673 -0.1400 -0.2534
12164TIP3    H157983   4.005   6.576   6.240  0.1852 -0.2810 -1.6356
12164TIP3    H257984   4.040   6.723   6.229 -0.0516  0.0481  1.2546
12165TIP3   OH257985   0.489   0.701  11.967  0.3861 -0.1652 -0.8325
12165TIP3    H157986   0.495   0.788  12.008 -0.0071 -0.3279 -0.4249
12165TIP3    H257987   0.540   0.644  12.025  0.3398 -0.2759 -0.9021
12166TIP3   OH257988   5.960   3.117  14.696  0.0596  0.1362 -0.1712
12166TIP3    H157989   6.043   3.069  14.699 -1.6641 -3.2538 -1.0745
12166TIP3    H257990   5.929   3.115  14.787  0.1789 -0.1227 -0.1350
12167TIP3   OH257991   3.492   1.330  14.172  0.1663  0.4683 -0.3457
12167TIP3    H157992   3.465   1.244  14.206 -1.5324  0.1484 -2.2583
12167TIP3    H257993   3.467   1.327  14.079  2.2431  2.1862 -1.0225
12168TIP3   OH257994   2.090   4.377   6.413 -0.1315 -0.2540 -0.0195
12168TIP3    H157995   2.086   4.472   6.401 -1.3756  0.0807  2.4013
12168TIP3    H257996   2.174   4.362   6.458  0.7662 -0.5328 -1.7095
12169TIP3   OH257997   4.923   4.023  12.064  0.1430 -0.1773 -0.2990
12169TIP3    H157998   4.917   4.098  12.123 -0.5506 -0.3864 -0.1000
12169TIP3    H257999   4.836   4.015  12.026 -0.1788 -1.7175  0.7038
12170TIP3   OH258000   4.292   0.720  14.481  0.1440 -0.4256  0.4798
12170TIP3    H158001   4.210   0.765  14.500  0.9097  0.4324  1.9194
12170TIP3    H258002   4.300   0.725  14.386 -0.3035  1.6355  0.4913
12171TIP3   OH258003   4.598   2.742   4.388  0.3183  0.3410 -0.0631
12171TIP3    H158004   4.600   2.657   4.344 -2.3704  0.5775 -0.8535
12171TIP3    H258005   4.532   2.731   4.456  1.2223  1.3179  1.0045
12172TIP3   OH258006   0.023   1.517   2.164 -0.2976  0.2724 -0.3212
12172TIP3    H158007   0.003   1.585   2.100 -0.0678 -0.4089 -1.1400
12172TIP3    H258008   0.053   1.565   2.241  0.4112  1.0887 -1.0807
12173TIP3   OH258009   1.122   3.137  13.724 -0.0938  0.1708 -0.5063
12173TIP3    H158010   1.132   3.104  13.814 -0.6436 -1.6174 -1.0652
12173TIP3    H258011   1.119   3.059  13.670 -0.8860  1.1796 -1.9939
12174TIP3   OH258012   0.660   2.259   5.740  0.3179  0.5051 -0.4435
12174TIP3    H158013   0.652   2.251   5.645 -0.4727  1.9141 -0.5136
12174TIP3    H258014   0.753   2.279   5.754  0.7581 -1.1407 -0.7759
12175TIP3   OH258015   2.429   2.913  17.243  0.2409 -0.0644 -0.0372
12175TIP3    H158016   2.334   2.917  17.254  0.3994  1.9700  1.0865
12175TIP3    H258017   2.448   2.973  17.171  0.7225 -0.1133  0.0404
12176TIP3   OH258018   2.864   4.515  12.751  0.7269  0.3446 -0.1410
12176TIP3    H158019   2.922   4.518  12.827  0.4586 -1.7710  0.2175
12176TIP3    H258020   2.907   4.455  12.690 -1.2070 -1.6639  0.3284
12177TIP3   OH258021   2.311   4.462   1.895  0.6401 -0.3829 -0.5568
12177TIP3    H158022   2.358   4.545   1.899 -1.9370  1.1127  0.9248
12177TIP3    H258023   2.332   4.418   1.977 -0.8002  0.5074  0.3330
12178TIP3   OH258024   5.190   3.818   3.862 -0.2097 -0.3185 -0.2070
12178TIP3    H158025   5.234   3.885   3.811 -3.1345  0.7937 -1.5268
12178TIP3    H258026   5.232   3.821   3.948  2.2321  0.5035 -1.3416
12179TIP3   OH258027   5.994   3.099  13.971 -0.3288 -0.5606  0.5511
12179TIP3    H158028   5.989   3.081  13.877  1.8430  0.3694  0.1731
12179TIP3    H258029   5.985   3.014  14.013 -1.9060 -0.9207 -0.4472
12180TIP3   OH258030   4.662   6.451   2.644  0.4284 -0.5370 -0.0329
12180TIP3    H158031   4.729   6.511   2.676  0.5073 -0.8368  0.3814
12180TIP3    H258032   4.706   6.400   2.575  0.2528  0.1238 -0.6405
12181TIP3   OH258033   5.476   4.367  15.779  0.3343 -0.4178  0.2303
12181TIP3    H158034   5.486   4.462  15.781  0.2644 -0.4180  1.8130
12181TIP3    H258035   5.563   4.334  15.756  0.4290  0.0036 -0.0368
12182TIP3   OH258036   2.416   4.909   4.339 -0.0325  0.0165 -0.6091
12182TIP3    H158037   2.435   4.870   4.253 -2.0772 -1.1295 -0.6022
12182TIP3    H258038   2.474   4.984   4.344 -0.8997  1.0573 -3.7176
12183TIP3   OH258039   1.674   0.896  12.884 -0.4237 -0.8243  0.1990
12183TIP3    H158040   1.692   0.919  12.975  0.2288 -0.9457  0.1048
12183TIP3    H258041   1.632   0.974  12.848  1.5792  0.1885 -0.0608
12184TIP3   OH258042   6.304   1.476  16.355 -0.8962  0.2964 -0.2034
12184TIP3    H158043   6.361   1.510  16.286 -1.5400  0.4430 -0.6737
12184TIP3    H258044   6.320   1.381  16.355  0.8340  0.5448  1.0479
12185TIP3   OH258045   5.927   0.819  16.024  0.0623 -0.3665 -0.5212
12185TIP3    H158046   6.006   0.765  16.021  0.3004  0.0194 -1.3411
12185TIP3    H258047   5.959   0.907  16.041  0.0022  0.1427 -2.8079
12186TIP3   OH258048   3.951   5.210  16.580  0.1210  0.3006  0.4430
12186TIP3    H158049   3.879   5.248  16.629  0.3863  1.3782  0.0332
12186TIP3    H258050   4.005   5.285  16.555  2.0775 -0.5674  1.8296
12187TIP3   OH258051   3.344   3.032  15.402  0.6287 -0.1559 -0.0113
12187TIP3    H158052   3.390   2.961  15.447  1.7634  0.1864 -0.5866
12187TIP3    H258053   3.288   3.071  15.469  0.5991 -1.0816  0.5145
12188TIP3   OH258054   0.327   5.268  14.253 -0.3996  0.0049 -0.3948
12188TIP3    H158055   0.402   5.295  14.200 -0.7865 -3.7532 -3.3008
12188TIP3    H258056   0.354   5.185  14.292 -1.6437  0.6740  2.1010
12189TIP3   OH258057   5.546   3.512  13.304  0.1474 -0.4313 -0.4100
12189TIP3    H158058   5.456   3.538  13.285 -0.3987 -1.8777  0.0349
12189TIP3    H258059   5.543   3.416  13.308  1.7288 -0.5140 -0.4735
12190TIP3   OH258060   3.550   4.512   6.672 -0.1659 -0.4493  0.3779
12190TIP3    H158061   3.565   4.476   6.584  0.8441 -0.9923  0.7535
12190TIP3    H258062   3.619   4.474   6.725 -0.3362  0.4329  1.2629
12191TIP3   OH258063   5.441   0.322  10.515 -0.3789 -0.2134 -0.8994
12191TIP3    H158064   5.381   0.291  10.447  0.8162 -2.4539 -1.0139
12191TIP3    H258065   5.385   0.334  10.592 -1.2370 -0.7599 -1.4123
12192TIP3   OH258066   1.809   0.087  10.607 -0.0637 -0.7249 -0.2635
12192TIP3    H158067   1.763   0.095  10.691 -0.6656 -1.0557 -0.5578
12192TIP3    H258068   1.856   0.169  10.598 -0.0561 -0.6540  0.3656
12193TIP3   OH258069   4.417   0.572   3.450 -0.4820  0.0756 -0.1105
12193TIP3    H158070   4.460   0.487   3.459 -0.8965 -0.1998 -0.6392
12193TIP3    H258071   4.447   0.604   3.365  0.7178  1.0717  0.6664
12194TIP3   OH258072   3.146   1.955   4.883  0.0447  0.3578  0.4851
12194TIP3    H158073   3.071   1.902   4.855  0.7318 -1.0740  1.2322
12194TIP3    H258074   3.209   1.891   4.916  0.7803  1.6811  1.7477
12195TIP3   OH258075   5.719   1.654   3.268 -0.4189 -0.6769  0.2156
12195TIP3    H158076   5.746   1.686   3.182 -2.9245  1.3145  0.0553
12195TIP3    H258077   5.664   1.578   3.248 -1.5480  0.1818 -0.0365
12196TIP3   OH258078   6.482   2.384   4.689 -0.2900 -0.2889 -0.2102
12196TIP3    H158079   6.464   2.304   4.639 -0.9977  0.5266 -1.3233
12196TIP3    H258080   6.473   2.455   4.625 -1.0131  0.7919  1.0272
12197TIP3   OH258081   0.717   3.728  12.436 -0.0889  0.4323  1.0846
12197TIP3    H158082   0.745   3.753  12.348 -0.2744  3.2105  1.7268
12197TIP3    H258083   0.773   3.654  12.458  1.3456  0.9219 -0.6109
12198TIP3   OH258084   6.075   2.544   3.205 -0.3712  0.4085 -0.6849
12198TIP3    H158085   6.072   2.516   3.296 -1.5747  0.1110 -0.7889
12198TIP3    H258086   6.166   2.533   3.179  0.1103  1.0786  0.6452
12199TIP3   OH258087   1.495   0.480   4.950 -0.1000 -0.4373  0.2849
12199TIP3    H158088   1.520   0.551   4.892 -0.2192  1.2390  2.1792
12199TIP3    H258089   1.554   0.487   5.024  0.1024 -2.5653  0.3960
12200TIP3   OH258090   2.383   2.547   1.714  0.2043 -0.1791  0.6111
12200TIP3    H158091   2.468   2.553   1.671 -0.1184 -0.7421 -0.1149
12200TIP3    H258092   2.332   2.487   1.660 -0.7548  0.3737  0.8724
12201TIP3   OH258093   1.539   1.404  13.012  0.2837 -0.2276 -0.7453
12201TIP3    H158094   1.518   1.398  13.105  0.7099 -1.0511 -0.6880
12201TIP3    H258095   1.486   1.336  12.971 -1.0192  1.1021 -1.3304
12202TIP3   OH258096   1.399   6.264  14.778  0.2213 -0.1104 -0.0856
12202TIP3    H158097   1.374   6.202  14.847  5.0825 -3.1973 -0.5953
12202TIP3    H258098   1.434   6.339  14.826 -3.1433  1.1756  0.5708
12203TIP3   OH258099   0.941   5.261   1.018 -0.3682  0.5590  0.1412
12203TIP3    H158100   0.925   5.188   0.959  2.1428  0.9510 -1.1922
12203TIP3    H258101   0.914   5.339   0.968 -1.5093  0.6702  0.9107
12204TIP3   OH258102   5.571   3.543   3.874  0.9049 -0.0295 -0.4104
12204TIP3    H158103   5.607   3.589   3.950 -0.6796  0.0300  0.3575
12204TIP3    H258104   5.644   3.490   3.841  1.3928 -0.8503  1.7918
12205TIP3   OH258105   4.247   0.790  16.622 -0.0549  0.0738 -0.1440
12205TIP3    H158106   4.297   0.799  16.541 -0.0318 -1.6923 -0.3735
12205TIP3    H258107   4.287   0.716  16.668 -0.0312  1.0771  1.5391
12206TIP3   OH258108   5.542   3.446  13.917 -0.2364 -0.4742 -0.4339
12206TIP3    H158109   5.461   3.400  13.893 -0.5213  0.4305 -1.2719
12206TIP3    H258110   5.525   3.538  13.896  1.1931 -0.3326 -1.1108
12207TIP3   OH258111   5.610   4.567  11.855 -0.1060 -0.2811 -0.1083
12207TIP3    H158112   5.540   4.542  11.794  2.2672 -1.7971 -2.4529
12207TIP3    H258113   5.657   4.638  11.810  0.3004  0.2178  1.0775
12208TIP3   OH258114   2.451   0.938  17.106  0.7022 -0.0685  0.2019
12208TIP3    H158115   2.445   0.843  17.102 -0.4461  0.0077 -0.3476
12208TIP3    H258116   2.525   0.960  17.050  0.0182 -0.5614 -0.9289
12209TIP3   OH258117   6.363   3.257   6.766 -0.4944  0.5914  0.4057
12209TIP3    H158118   6.300   3.189   6.741 -0.3445  1.2161 -1.8913
12209TIP3    H258119   6.449   3.221   6.743 -0.3489  1.2428 -0.1025
12210TIP3   OH258120   3.435   3.904  13.876 -0.0053 -0.5184  0.3305
12210TIP3    H158121   3.357   3.932  13.925 -1.2168  1.6599 -2.5812
12210TIP3    H258122   3.424   3.809  13.867 -2.2388 -0.3048  0.1981
12211TIP3   OH258123   5.996   2.011  11.664 -0.2508  0.1881 -0.3249
12211TIP3    H158124   5.940   1.939  11.632  0.4051  0.3569 -1.9646
12211TIP3    H258125   6.043   2.040  11.586  1.5567  0.5715  0.8576
12212TIP3   OH258126   0.754   0.235   3.612  0.6412  0.0318 -0.3023
12212TIP3    H158127   0.805   0.159   3.583  1.9146  1.6383 -2.6610
12212TIP3    H258128   0.667   0.220   3.576  0.5454 -0.8331  0.2567
12213TIP3   OH258129   4.118   0.791  13.472  0.1974 -0.5572 -0.4703
12213TIP3    H158130   4.098   0.734  13.397  0.4851  1.0204 -1.8125
12213TIP3    H258131   4.104   0.736  13.549  0.0658 -2.2999 -1.6875
12214TIP3   OH258132   3.389   0.635  11.637  0.1266  0.2882 -0.3322
12214TIP3    H158133   3.408   0.699  11.706  1.9202 -1.8666  1.3622
12214TIP3    H258134   3.305   0.596  11.663  0.1349  0.4289 -0.0902
12215TIP3   OH258135   4.499   2.963  15.252 -0.2252 -0.6879 -0.7457
12215TIP3    H158136   4.556   2.918  15.314 -0.4630  1.4932  1.1647
12215TIP3    H258137   4.410   2.942  15.281 -0.4079 -1.5917 -1.8666
12216TIP3   OH258138   2.359   4.707  11.051  0.2581 -0.1294  0.0588
12216TIP3    H158139   2.426   4.686  11.116  1.4762  0.1676 -1.0520
12216TIP3    H258140   2.409   4.734  10.974 -1.1627  1.4936 -0.3504
12217TIP3   OH258141   5.944   1.900  15.120  0.0071 -0.6559 -0.2302
12217TIP3    H158142   5.945   1.882  15.026  0.6161 -1.1255 -0.1415
12217TIP3    H258143   5.983   1.822  15.159 -1.1500 -0.8919  0.4954
12218TIP3   OH258144   1.723   4.222   1.955 -0.7620 -0.0217  0.0655
12218TIP3    H158145   1.718   4.235   1.860  1.8111 -1.0402 -0.2744
12218TIP3    H258146   1.793   4.158   1.967 -0.5249  0.6286  2.7154
12219TIP3   OH258147   4.414   0.209   2.535  0.2739  0.5039  0.3479
12219TIP3    H158148   4.402   0.266   2.459  3.2090  1.4591  0.4843
12219TIP3    H258149   4.507   0.214   2.554  0.0739 -1.8225  2.4148
12220TIP3   OH258150   1.198   1.636   3.713  0.3028 -0.2701  0.4368
12220TIP3    H158151   1.209   1.545   3.739  1.6662 -0.1443  0.3835
12220TIP3    H258152   1.161   1.632   3.625  0.3438 -0.7674  0.4410
12221TIP3   OH258153   5.698   2.410   2.058 -0.0542  0.5441 -0.4117
12221TIP3    H158154   5.642   2.484   2.080  0.6111  0.8654  0.2702
12221TIP3    H258155   5.705   2.360   2.140 -0.8311 -0.5103 -0.9713
12222TIP3   OH258156   5.434   6.345  13.649  0.4882 -0.0480 -0.8189
12222TIP3    H158157   5.454   6.306  13.734 -0.2157  3.0842  0.9456
12222TIP3    H258158   5.444   6.440  13.663 -2.9810  0.8617 -3.2413
12223TIP3   OH258159   2.718   0.714   1.956  0.7803 -0.1579 -0.1828
12223TIP3    H158160   2.655   0.752   2.017 -0.4585 -1.4613 -0.6068
12223TIP3    H258161   2.755   0.639   2.002 -1.1402 -1.9746 -1.3964
12224TIP3   OH258162   1.542   5.545   3.516  0.2503  0.3365 -0.0732
12224TIP3    H158163   1.466   5.556   3.458  0.2098 -2.1063 -0.5988
12224TIP3    H258164   1.618   5.551   3.457  0.2636 -0.8386 -0.2082
12225TIP3   OH258165   6.722   4.050   4.915 -0.2834 -0.2559 -0.3787
12225TIP3    H158166   6.731   4.145   4.925 -2.4607  0.0822 -1.1188
12225TIP3    H258167   6.784   4.014   4.979 -0.1093  1.6580  0.6334
12226TIP3   OH258168   0.223   2.735   2.301  0.0291 -0.3136  0.2023
12226TIP3    H158169   0.182   2.818   2.279  1.0339  0.3689  0.8392
12226TIP3    H258170   0.304   2.734   2.250 -0.5016 -1.4315 -0.6794
12227TIP3   OH258171   5.405   0.691   2.984  0.0280  0.0250  0.4277
12227TIP3    H158172   5.388   0.726   2.896 -2.6207  0.2003  0.9306
12227TIP3    H258173   5.425   0.769   3.036  0.6818  0.0171  0.2056
12228TIP3   OH258174   0.870   5.350  16.595 -0.2175 -0.1545  0.5258
12228TIP3    H158175   0.829   5.397  16.522  0.4540 -0.3655  0.0050
12228TIP3    H258176   0.950   5.313  16.558  0.7903  0.7966  1.6794
12229TIP3   OH258177   1.216   3.904   5.031  0.5027  0.0695  0.0669
12229TIP3    H158178   1.267   3.952   5.096  0.9729 -1.9873  1.3052
12229TIP3    H258179   1.278   3.886   4.960  0.3553  1.1449 -0.3457
12230TIP3   OH258180   1.746   1.015  10.882 -0.1212 -0.5166 -0.6018
12230TIP3    H158181   1.821   0.959  10.861  0.0472  0.5328 -3.2380
12230TIP3    H258182   1.745   1.018  10.977  1.7544 -2.4451 -0.4316
12231TIP3   OH258183   3.497   2.020   2.465  0.6918 -0.3234  0.0886
12231TIP3    H158184   3.459   2.063   2.388  1.5667 -0.3435 -0.3714
12231TIP3    H258185   3.461   1.932   2.464  1.4148 -0.6303 -0.8608
12232TIP3   OH258186   0.731   2.447  15.655 -0.3467 -0.3298 -0.3475
12232TIP3    H158187   0.793   2.499  15.705 -0.7274 -1.2377  1.1241
12232TIP3    H258188   0.680   2.512  15.606 -1.7048  0.8880  2.4395
12233TIP3   OH258189   1.974   0.234  11.478  0.3454 -0.0849 -0.0817
12233TIP3    H158190   2.004   0.300  11.541 -1.6448 -0.5604  1.4680
12233TIP3    H258191   2.018   0.154  11.505 -1.7030 -0.6772  1.9081
12234TIP3   OH258192   5.462   5.859   1.833  0.5006 -0.3789  0.4695
12234TIP3    H158193   5.468   5.924   1.903  0.8920 -0.6995  0.7428
12234TIP3    H258194   5.376   5.873   1.793  0.7239  0.5375  0.2956
12235TIP3   OH258195   4.693   0.315   1.102 -0.1244  0.1404  0.5381
12235TIP3    H158196   4.783   0.328   1.072 -1.1268  1.9698 -2.0385
12235TIP3    H258197   4.691   0.224   1.132  2.2342 -0.4297 -0.7545
12236TIP3   OH258198   3.277   3.735   1.830 -0.5330 -0.2463  0.3378
12236TIP3    H158199   3.257   3.667   1.894 -1.1031 -1.6763 -1.2899
12236TIP3    H258200   3.263   3.817   1.877 -0.5666 -1.2352  2.1367
12237TIP3   OH258201   3.990   2.099   1.101 -0.0255 -0.0973 -0.2017
12237TIP3    H158202   3.901   2.087   1.069 -0.1884 -1.5028  0.7017
12237TIP3    H258203   4.008   2.020   1.152  1.5408  0.4134  0.0875
12238TIP3   OH258204   3.654   6.382   4.503  0.5063 -0.3094 -0.2946
12238TIP3    H158205   3.580   6.325   4.482  1.0308 -0.1004 -3.1627
12238TIP3    H258206   3.614   6.466   4.525 -0.1489 -0.8314  0.5939
12239TIP3   OH258207   0.898   1.173  16.656 -0.4669 -0.2379  0.4075
12239TIP3    H158208   0.867   1.114  16.587  0.0985  0.4902 -0.4852
12239TIP3    H258209   0.907   1.258  16.614  0.6068  0.0608  1.1906
12240TIP3   OH258210   0.952   4.547  11.681  0.3449 -0.2054 -0.5514
12240TIP3    H158211   0.961   4.619  11.618  3.4051 -0.1366 -0.2114
12240TIP3    H258212   1.020   4.485  11.656  0.4440 -1.0377  1.5715
12241TIP3   OH258213   3.572   5.454   2.059  0.1965  0.4114  0.1382
12241TIP3    H158214   3.549   5.445   1.967  0.1099 -0.1798  0.2112
12241TIP3    H258215   3.603   5.544   2.068  0.9927  0.2340 -0.6401
12242TIP3   OH258216   1.054   2.007  15.264  0.2938 -0.4654  0.0471
12242TIP3    H158217   0.960   1.994  15.275  0.1741  1.3676  1.9414
12242TIP3    H258218   1.092   1.985  15.350  0.8357  3.7882  1.1591
12243TIP3   OH258219   2.891   0.038   5.998  0.0573  0.0256  0.6722
12243TIP3    H158220   2.954   0.085   5.944 -0.8754  0.9371  0.3465
12243TIP3    H258221   2.827   0.002   5.936 -0.5220  0.3221  1.0822
12244TIP3   OH258222   6.187   1.236   0.102 -0.4413 -0.0022  0.5115
12244TIP3    H158223   6.138   1.172   0.154  1.8271 -2.0439  0.3154
12244TIP3    H258224   6.238   1.285   0.166 -0.0168 -0.3809  0.4708
12245TIP3   OH258225   4.606   4.519   4.800  0.3951  0.1985  0.2371
12245TIP3    H158226   4.512   4.535   4.797  0.2868 -0.5043 -1.7283
12245TIP3    H258227   4.613   4.424   4.812  0.8969  0.3540  1.3328
12246TIP3   OH258228   0.540   2.935  13.587  0.4301 -0.3186  0.2969
12246TIP3    H158229   0.607   2.969  13.646 -0.4437  1.0962  0.5071
12246TIP3    H258230   0.540   2.994  13.512 -0.1845 -0.6398  0.0258
12247TIP3   OH258231   4.883   0.009   5.699  0.3060 -0.3411 -0.4965
12247TIP3    H158232   4.830  -0.034   5.632 -0.5359  1.0049 -0.7379
12247TIP3    H258233   4.862  -0.037   5.780 -0.0024 -0.8523 -0.8622
12248TIP3   OH258234   3.356   2.696   5.820  0.4612 -0.5372 -0.1577
12248TIP3    H158235   3.332   2.722   5.909  0.6190 -0.5636 -0.1082
12248TIP3    H258236   3.355   2.601   5.821 -2.4914 -0.6260 -0.9509
12249TIP3   OH258237   4.884   4.337   2.389  0.2900  0.2325  0.2614
12249TIP3    H158238   4.913   4.250   2.417 -1.6721 -0.0724  1.5265
12249TIP3    H258239   4.965   4.383   2.365  1.2651 -2.3653 -1.8798
12250TIP3   OH258240   3.483   3.718   3.610  0.1806  0.4436  0.4237
12250TIP3    H158241   3.465   3.810   3.590  0.7555  0.2755 -0.9978
12250TIP3    H258242   3.562   3.697   3.559 -2.1310 -1.9072 -2.6623
12251TIP3   OH258243   0.440   3.449  12.753 -0.3738 -0.0840  0.1274
12251TIP3    H158244   0.418   3.385  12.821  1.4463  0.1821  1.0214
12251TIP3    H258245   0.518   3.413  12.711 -0.4020  0.6681 -0.5980
12252TIP3   OH258246   4.154   3.946  11.228 -0.5602  0.0965 -0.2043
12252TIP3    H158247   4.062   3.922  11.236 -0.6869  0.3280 -0.8650
12252TIP3    H258248   4.201   3.881  11.279 -1.0234 -0.5424 -0.5835
12253TIP3   OH258249   4.739   4.158  16.774 -0.5390 -0.3815  0.1508
12253TIP3    H158250   4.689   4.092  16.822 -1.0025  0.2543  0.5575
12253TIP3    H258251   4.674   4.207  16.725 -0.6413  1.7201  2.1812
12254TIP3   OH258252   5.525   2.816   0.225  0.1314  0.2067  0.3398
12254TIP3    H158253   5.598   2.775   0.179 -0.1199  1.6219 -1.4474
12254TIP3    H258254   5.517   2.767   0.307  2.1363 -0.8981 -0.0680
12255TIP3   OH258255   2.554   2.342  16.364 -0.7914 -0.0862  0.4531
12255TIP3    H158256   2.473   2.346  16.313 -1.1343  0.9254  1.0528
12255TIP3    H258257   2.526   2.348  16.455 -0.1695 -1.6701  0.7855
12256TIP3   OH258258   6.121   5.837  15.401  0.4950  0.3988 -0.4140
12256TIP3    H158259   6.206   5.880  15.402  1.0329 -0.4481 -2.6116
12256TIP3    H258260   6.141   5.744  15.391 -0.6832 -0.0858  1.3463
12257TIP3   OH258261   2.830   2.805  11.589  0.1877 -0.8442  0.1148
12257TIP3    H158262   2.877   2.819  11.507  0.3071 -0.8200  0.1856
12257TIP3    H258263   2.900   2.794  11.654  0.1896  2.3097  0.8145
12258TIP3   OH258264   5.735   4.073  14.527  0.0864  0.1259 -0.3602
12258TIP3    H158265   5.751   3.999  14.470  0.5500 -0.8703  1.0073
12258TIP3    H258266   5.723   4.034  14.614  0.4066  1.6472  0.4028
12259TIP3   OH258267   5.430   4.243  13.718  0.1637  0.1367  0.1998
12259TIP3    H158268   5.484   4.314  13.755  1.0098 -1.3931  2.0680
12259TIP3    H258269   5.341   4.274  13.729  0.5379  1.7850 -0.9571
12260TIP3   OH258270   6.240   3.869  14.369  0.4805 -0.1551  0.4847
12260TIP3    H158271   6.214   3.778  14.358 -0.5832  0.3527 -1.6248
12260TIP3    H258272   6.336   3.867  14.371  0.5224 -1.1990 -1.1177
12261TIP3   OH258273   4.449   5.215  16.523  0.2912  0.3069  0.1302
12261TIP3    H158274   4.463   5.123  16.544 -0.2139 -0.0994 -1.1641
12261TIP3    H258275   4.406   5.252  16.600 -0.4791 -0.8140  0.2655
12262TIP3   OH258276   1.873   1.525  13.161 -0.2993 -0.0025  0.6141
12262TIP3    H158277   1.856   1.544  13.254  0.2305  0.2563  0.6601
12262TIP3    H258278   1.964   1.497  13.159  0.2954  1.8556 -0.0994
12263TIP3   OH258279   1.803   3.438   1.792 -0.0365  0.2106  0.0714
12263TIP3    H158280   1.888   3.395   1.779  0.6173  1.7849 -1.3589
12263TIP3    H258281   1.740   3.367   1.794  1.0893 -0.8862 -1.1908
12264TIP3   OH258282   5.214   5.857  16.197 -0.0652 -0.8536  0.1889
12264TIP3    H158283   5.250   5.901  16.274  0.5876  0.3941 -0.7835
12264TIP3    H258284   5.121   5.851  16.214 -0.0739  0.3271  0.6713
12265TIP3   OH258285   2.382   5.587  15.543 -0.1095 -0.1725 -0.3363
12265TIP3    H158286   2.320   5.530  15.590 -0.6488 -0.4306 -1.3217
12265TIP3    H258287   2.397   5.541  15.460 -0.2129  0.9057 -0.9651
12266TIP3   OH258288   1.189   2.787  15.710  0.5935  0.7827 -0.0267
12266TIP3    H158289   1.126   2.858  15.722 -1.0126 -0.6296  0.1615
12266TIP3    H258290   1.274   2.829  15.723 -0.3231  2.5815  0.5226
12267TIP3   OH258291   2.274   1.253   5.731  0.1640  0.1106 -1.2320
12267TIP3    H158292   2.207   1.312   5.766 -0.0029 -1.0025  0.4603
12267TIP3    H258293   2.259   1.170   5.777  2.1077 -0.4380 -1.4983
12268TIP3   OH258294   1.362   0.733  15.725 -0.8197  0.4201 -0.4761
12268TIP3    H158295   1.301   0.719  15.797  1.0350  0.0729  1.1292
12268TIP3    H258296   1.350   0.658  15.667  0.9728 -2.0308  2.0483
12269TIP3   OH258297   4.768   2.944  12.181  0.0285  0.6884 -0.2212
12269TIP3    H158298   4.762   3.039  12.171 -0.2659  0.6663 -0.2698
12269TIP3    H258299   4.857   2.928  12.212 -0.1222  1.0371  0.4174
12270TIP3   OH258300   4.785   0.886   3.675  0.5078  0.3932 -0.3464
12270TIP3    H158301   4.754   0.797   3.694  1.5833 -0.0271 -0.4952
12270TIP3    H258302   4.814   0.919   3.760  0.8100  0.3182 -0.4198
12271TIP3   OH258303   4.420   2.809  14.185  0.2669  0.0912  0.0459
12271TIP3    H158304   4.414   2.867  14.262  0.2472 -1.1422  1.0015
12271TIP3    H258305   4.336   2.818  14.142 -0.4147 -0.5654  1.1940
12272TIP3   OH258306   2.876   6.052  13.928  0.0611 -0.5967  0.4622
12272TIP3    H158307   2.791   6.034  13.969 -0.5674  0.2955 -0.3886
12272TIP3    H258308   2.940   6.033  13.997 -0.8925 -0.1282  1.5267
12273TIP3   OH258309   1.037   4.668   3.654 -0.2534 -0.1632 -0.8980
12273TIP3    H158310   1.106   4.731   3.673  0.1976 -0.8600 -0.1897
12273TIP3    H258311   1.020   4.624   3.737 -2.5281  0.9335 -0.7114
12274TIP3   OH258312   4.986   0.538   1.207  0.3367 -0.0924 -0.1771
12274TIP3    H158313   4.933   0.487   1.146 -0.2629 -0.9617  1.0121
12274TIP3    H258314   5.067   0.556   1.160  0.4937 -2.0300 -0.7376
12275TIP3   OH258315   4.613   2.168   0.802 -0.0315  0.0256  0.2073
12275TIP3    H158316   4.535   2.180   0.857  0.2401  0.0039  0.5956
12275TIP3    H258317   4.584   2.106   0.734  0.2294 -1.6457  1.5593
12276TIP3   OH258318   6.104   1.144   1.702  0.1051 -0.1522 -0.3613
12276TIP3    H158319   6.151   1.218   1.740 -0.8009 -0.2996  1.1562
12276TIP3    H258320   6.166   1.105   1.640  1.0643  1.0940 -0.2239
12277TIP3   OH258321   2.632   2.870  16.398 -0.0406  0.2821  0.1048
12277TIP3    H158322   2.673   2.835  16.477 -2.9377  0.7319  1.9593
12277TIP3    H258323   2.590   2.794  16.357 -0.0491  0.3440 -0.0019
12278TIP3   OH258324   3.816   1.039   2.399 -0.0866  0.1519 -0.5283
12278TIP3    H158325   3.762   0.974   2.444 -0.3653  1.0488  0.4847
12278TIP3    H258326   3.830   1.108   2.465 -0.2821  1.3886 -1.7329
12279TIP3   OH258327   0.740   6.112  14.769  0.0305 -0.3397  0.4010
12279TIP3    H158328   0.780   6.025  14.765  1.3790  0.1578  2.0811
12279TIP3    H258329   0.665   6.102  14.827  0.0961 -0.4175  0.4726
12280TIP3   OH258330   0.094   3.718   1.289  0.0159 -0.2144  0.2933
12280TIP3    H158331   0.154   3.786   1.319 -0.5071  0.6224 -0.5344
12280TIP3    H258332   0.121   3.699   1.199  0.0757 -1.0243  0.4687
12281TIP3   OH258333   2.530   6.711   4.107 -0.2629  0.3385 -0.5522
12281TIP3    H158334   2.480   6.771   4.163 -0.3957  0.5008 -0.8422
12281TIP3    H258335   2.619   6.746   4.107 -0.1215 -0.0060  0.0439
12282TIP3   OH258336   3.062   0.408  10.471 -0.1648  0.0038  0.2174
12282TIP3    H158337   3.033   0.333  10.420 -0.2422 -0.2723  0.6667
12282TIP3    H258338   3.102   0.371  10.550  1.0211  0.3852 -0.1702
12283TIP3   OH258339   0.288   2.106  16.607  0.0124  0.6146 -0.1508
12283TIP3    H158340   0.271   2.186  16.657 -0.1466  0.7257 -0.3858
12283TIP3    H258341   0.254   2.036  16.663  1.0848  0.6076  0.5246
12284TIP3   OH258342   1.453   2.815   4.044 -0.0768 -0.0687 -0.8079
12284TIP3    H158343   1.519   2.765   3.995  1.5999  0.7305  0.5182
12284TIP3    H258344   1.378   2.755   4.050  0.8444 -1.3700 -1.5964
12285TIP3   OH258345   4.084   3.824  13.006 -0.3908  0.0676 -1.1308
12285TIP3    H158346   4.091   3.850  12.914 -0.3926 -2.3014 -1.8718
12285TIP3    H258347   4.144   3.751  13.014  0.8971  1.2831  1.2388
12286TIP3   OH258348   4.112   6.304   3.108  0.2844 -0.1902  0.0263
12286TIP3    H158349   4.023   6.291   3.141  0.1013 -0.8793 -0.7080
12286TIP3    H258350   4.124   6.399   3.107  0.0833 -0.1332  1.4815
12287TIP3   OH258351   1.576   5.594   0.947 -0.8108  0.3552  0.2885
12287TIP3    H158352   1.573   5.615   1.041  1.4026 -0.8397  0.7032
12287TIP3    H258353   1.668   5.571   0.931 -1.4116 -0.7635 -1.8849
12288TIP3   OH258354   6.309   1.221   5.875  0.2445  0.1046 -0.5919
12288TIP3    H158355   6.291   1.132   5.846 -0.1097  0.4850 -1.5596
12288TIP3    H258356   6.402   1.220   5.899  0.1777 -0.5832 -0.3612
12289TIP3   OH258357   5.684   6.708  16.338 -0.3145 -0.2330  0.4389
12289TIP3    H158358   5.711   6.639  16.398  0.3035 -0.7110 -0.3670
12289TIP3    H258359   5.643   6.774  16.394 -0.4943 -1.0385  1.2710
12290TIP3   OH258360   6.177   1.911  15.684 -0.2536 -0.2540 -0.3278
12290TIP3    H158361   6.175   1.999  15.647  2.3372  0.4660  0.9810
12290TIP3    H258362   6.163   1.853  15.610  0.8567  1.2101 -1.7500
12291TIP3   OH258363   4.235   2.212  12.696 -0.4979  0.1585 -0.1249
12291TIP3    H158364   4.297   2.265  12.646 -0.6619  0.1101 -0.3862
12291TIP3    H258365   4.246   2.239  12.787  0.0906 -0.0319 -0.1331
12292TIP3   OH258366   0.133   0.890   5.874  0.3574 -0.3222  0.0756
12292TIP3    H158367   0.131   0.968   5.819  0.8713 -1.2063 -1.2677
12292TIP3    H258368   0.131   0.817   5.811 -0.7056 -1.3919  1.3000
12293TIP3   OH258369   3.789   0.006  14.500  0.2697  0.0472 -0.0445
12293TIP3    H158370   3.738  -0.071  14.526  1.9048 -0.9471  0.3303
12293TIP3    H258371   3.859   0.012  14.564  0.9267  1.1070 -0.8136
12294TIP3   OH258372   3.040   2.844   1.772  0.5503  1.0839 -0.1779
12294TIP3    H158373   3.049   2.939   1.780 -1.3307  1.2744 -0.0013
12294TIP3    H258374   2.960   2.832   1.721  1.6782 -0.4138 -1.7136
12295TIP3   OH258375   2.553   6.568  13.015 -0.0230 -0.3369  0.8257
12295TIP3    H158376   2.502   6.612  12.947  3.2505 -0.0742 -1.7355
12295TIP3    H258377   2.523   6.477  13.013 -2.1725  0.3161  1.3589
12296TIP3   OH258378   0.678   2.278  16.188 -0.2287  0.0981 -0.1723
12296TIP3    H158379   0.652   2.195  16.228  2.6576 -1.3738 -1.0619
12296TIP3    H258380   0.663   2.344  16.256 -0.8697 -1.4124  1.2042
12297TIP3   OH258381   2.428   0.590   3.820 -0.1007  0.0385  0.0850
12297TIP3    H158382   2.459   0.680   3.808 -2.3415  1.1558  1.6874
12297TIP3    H258383   2.429   0.552   3.732 -0.9084  2.3113 -1.0010
12298TIP3   OH258384   1.777   0.466  12.864 -0.5364 -0.3799  0.0002
12298TIP3    H158385   1.771   0.513  12.781 -2.5879  1.5488  1.1235
12298TIP3    H258386   1.848   0.509  12.910 -0.5304 -0.2914 -0.0900
12299TIP3   OH258387   4.244   3.348  13.444  0.0131  0.2975 -0.0420
12299TIP3    H158388   4.275   3.262  13.416 -1.8403 -1.2071  2.1475
12299TIP3    H258389   4.177   3.371  13.381 -0.9760 -0.9199  0.5193
12300TIP3   OH258390   1.798   1.195   2.644 -0.6045  0.5273 -0.3792
12300TIP3    H158391   1.843   1.231   2.568 -0.4071  1.4169  0.1314
12300TIP3    H258392   1.799   1.267   2.708  3.5254 -1.5286  2.3511
12301TIP3   OH258393   4.175   0.813   6.767  0.5177  0.3473 -0.0783
12301TIP3    H158394   4.269   0.815   6.787  0.6617 -1.4400 -0.3706
12301TIP3    H258395   4.165   0.739   6.707 -1.0337  0.7436 -0.3523
12302TIP3   OH258396   3.653   5.661   9.947  0.0101 -0.2052 -0.2619
12302TIP3    H158397   3.623   5.734  10.000 -0.5458 -1.1149  0.7138
12302TIP3    H258398   3.629   5.583   9.997  1.3500 -1.0477 -0.8694
12303TIP3   OH258399   6.447   3.485   4.776  0.5356 -0.2760  0.7200
12303TIP3    H158400   6.402   3.569   4.781  2.3361  0.9131 -1.2921
12303TIP3    H258401   6.380   3.420   4.795 -0.6842  1.6042  3.4218
12304TIP3   OH258402   1.506   1.120  10.659  0.0733  0.1099  0.4587
12304TIP3    H158403   1.492   1.204  10.703  1.4928  0.9912 -0.6754
12304TIP3    H258404   1.419   1.083  10.650 -0.4812  0.9667  1.9057
12305TIP3   OH258405   4.248   3.923  15.179  0.0262  0.4611 -0.0033
12305TIP3    H158406   4.193   3.855  15.217  0.9567 -0.5079 -0.3271
12305TIP3    H258407   4.313   3.941  15.247 -0.8257  1.7916  0.4814
12306TIP3   OH258408   1.059   5.174   5.769 -0.1853  0.1358  0.0498
12306TIP3    H158409   0.997   5.154   5.839  2.1813  2.9138  3.2798
12306TIP3    H258410   1.025   5.253   5.728 -0.6933 -0.5208 -0.8154
12307TIP3   OH258411   4.477   6.494   5.646 -1.0541  0.1688  0.2616
12307TIP3    H158412   4.449   6.445   5.569 -1.3840 -0.1059  0.5493
12307TIP3    H258413   4.402   6.549   5.667 -1.1626 -0.1368  0.6890
12308TIP3   OH258414   1.442   5.412  14.751 -0.1691 -0.9500  0.4285
12308TIP3    H158415   1.447   5.481  14.685  1.2250 -0.5581  0.9067
12308TIP3    H258416   1.517   5.356  14.734 -0.0122 -1.0664  1.4230
12309TIP3   OH258417   3.674   1.273   6.611  0.3654 -0.8459 -0.2499
12309TIP3    H158418   3.719   1.350   6.575 -2.3900  1.0643  0.0155
12309TIP3    H258419   3.632   1.232   6.535 -1.1763  0.1533  0.0035
12310TIP3   OH258420   0.569   2.301   4.803 -0.6259 -0.3578  0.2542
12310TIP3    H158421   0.662   2.281   4.805 -1.0748 -2.8196  0.0634
12310TIP3    H258422   0.555   2.359   4.878  0.8014 -1.3149  1.3109
12311TIP3   OH258423   5.378   4.163   6.143 -0.0434 -0.1348 -0.1334
12311TIP3    H158424   5.427   4.173   6.061 -0.1709  0.7019 -0.1214
12311TIP3    H258425   5.336   4.077   6.136 -0.0631 -0.0684 -0.9511
12312TIP3   OH258426   4.099   5.160  15.881 -0.2518  0.4443  0.3857
12312TIP3    H158427   4.110   5.253  15.864  0.0820  0.2600 -0.4651
12312TIP3    H258428   4.048   5.128  15.806 -1.7082  0.2195  1.4349
12313TIP3   OH258429   1.982   3.478  15.142 -0.0746 -0.0254 -0.6991
12313TIP3    H158430   1.986   3.573  15.151 -0.4541 -0.1111  0.6739
12313TIP3    H258431   1.922   3.462  15.070  0.6521  0.7768 -1.5065
12314TIP3   OH258432   5.814   2.499   6.415 -0.1124  0.1768  0.0821
12314TIP3    H158433   5.729   2.542   6.406  0.3592  0.7487 -2.3231
12314TIP3    H258434   5.795   2.406   6.403 -0.2200  0.4707 -2.5133
12315TIP3   OH258435   5.627   2.866   1.361  0.9702  0.2748 -0.0672
12315TIP3    H158436   5.619   2.960   1.344  2.0509  0.7140  1.6588
12315TIP3    H258437   5.577   2.825   1.290 -0.0634  2.1565 -0.4991
12316TIP3   OH258438   1.518   0.396  16.107  0.2019  0.5007 -0.3926
12316TIP3    H158439   1.524   0.330  16.176 -1.3986  0.7216  0.0039
12316TIP3    H258440   1.521   0.480  16.155 -1.8754  0.6522 -0.4332
12317TIP3   OH258441   3.462   2.671   3.042 -0.0448 -0.0572  0.4002
12317TIP3    H158442   3.518   2.684   3.119 -0.3307 -0.1029  0.6187
12317TIP3    H258443   3.447   2.576   3.040 -1.0304  0.0765  0.9988
12318TIP3   OH258444   2.207   0.742   6.607 -0.6160  0.0391 -0.3662
12318TIP3    H158445   2.117   0.752   6.638 -0.7582  2.4517 -1.3231
12318TIP3    H258446   2.198   0.712   6.516 -0.3441 -2.0656  0.2623
12319TIP3   OH258447   2.380   5.555  16.176  0.4264 -0.2329  0.0049
12319TIP3    H158448   2.440   5.594  16.111  2.2104 -0.9826  1.1196
12319TIP3    H258449   2.431   5.552  16.257 -0.1859 -3.2321  0.4103
12320TIP3   OH258450   6.099   6.620  13.545 -0.1768 -0.0538  0.2977
12320TIP3    H158451   6.102   6.694  13.606  0.2039  1.1209 -1.0919
12320TIP3    H258452   6.014   6.629  13.502  0.0923 -0.1136 -0.2441
12321TIP3   OH258453   3.984   5.319  13.151  0.1831  0.3968 -0.3302
12321TIP3    H158454   4.011   5.388  13.090  1.4890 -0.3437 -0.6325
12321TIP3    H258455   3.945   5.251  13.095 -0.3977  0.5443 -0.1144
12322TIP3   OH258456   4.130   4.960  14.552  0.6156  0.0609  0.3055
12322TIP3    H158457   4.192   5.024  14.587  1.0190 -0.9372  1.5221
12322TIP3    H258458   4.118   4.898  14.624 -0.7642 -0.5075 -0.3890
12323TIP3   OH258459   1.506   0.003  13.071  0.2342 -0.4564 -0.4257
12323TIP3    H158460   1.445  -0.050  13.124  1.1524 -0.3153  0.8099
12323TIP3    H258461   1.512   0.086  13.118  0.1912  0.0998 -1.3918
12324TIP3   OH258462   0.000   1.310   3.900 -0.3339 -0.0700  0.4692
12324TIP3    H158463   0.032   1.311   3.991  2.4326  1.9024 -0.3848
12324TIP3    H258464   0.066   1.262   3.852 -1.1599 -0.0680 -0.6935
12325TIP3   OH258465   4.299   5.849   3.022  0.4118 -0.3624  0.2807
12325TIP3    H158466   4.272   5.759   3.041  2.0516 -1.4802 -2.1126
12325TIP3    H258467   4.329   5.846   2.931 -0.2166  2.8216 -0.1565
12326TIP3   OH258468   4.041   0.287  14.331 -0.2531 -0.0589  0.3706
12326TIP3    H158469   3.989   0.348  14.384  0.7891 -0.6608  2.1601
12326TIP3    H258470   3.976   0.225  14.296 -1.0073  0.5788  0.6086
12327TIP3   OH258471   3.454   1.372   4.203 -0.1015  0.1628  0.0004
12327TIP3    H158472   3.505   1.357   4.123 -0.7300  3.2636 -1.1019
12327TIP3    H258473   3.366   1.340   4.181 -0.8302  2.8770 -1.4465
12328TIP3   OH258474   5.117   5.201   0.002 -0.1904 -0.3181  0.4186
12328TIP3    H158475   5.052   5.267   0.025  0.4397  0.8027 -0.8582
12328TIP3    H258476   5.195   5.251  -0.024  1.3427 -1.6181  2.2340
12329TIP3   OH258477   6.011   0.751  14.385  0.6807 -0.0850  0.1210
12329TIP3    H158478   5.979   0.841  14.380 -2.3223 -1.0405  0.3530
12329TIP3    H258479   5.940   0.698  14.349  0.6375 -2.6653  3.5265
12330TIP3   OH258480   4.070   3.156   4.345 -0.0542 -0.2164  0.3989
12330TIP3    H158481   4.132   3.225   4.321 -0.7299  0.1280 -0.4081
12330TIP3    H258482   4.114   3.107   4.415  0.6425  0.7119  0.6237
12331TIP3   OH258483   0.553   3.038  15.631 -0.0068 -0.1477  0.1571
12331TIP3    H158484   0.621   3.101  15.607 -1.5558  1.4226 -0.3509
12331TIP3    H258485   0.553   2.974  15.560  0.0070  0.6527 -0.5886
12332TIP3   OH258486   6.490   3.712  16.949  0.5047  0.1673 -0.5116
12332TIP3    H158487   6.455   3.656  16.881 -2.2624  1.0403  0.0473
12332TIP3    H258488   6.539   3.780  16.902  1.2218 -0.9031 -1.3628
12333TIP3   OH258489   4.116   1.318  16.268  0.1305  0.5241 -0.9578
12333TIP3    H158490   4.166   1.350  16.193 -1.7736  1.0808 -2.0501
12333TIP3    H258491   4.056   1.390  16.289  0.2306  0.1457  0.7519
12334TIP3   OH258492   4.256   5.950   0.230 -0.1460  0.2186 -0.2277
12334TIP3    H158493   4.270   5.918   0.141  3.1387  1.1145 -0.1429
12334TIP3    H258494   4.323   5.907   0.282 -0.9475  0.9749  1.5184
12335TIP3   OH258495   3.371   5.369  12.368  0.3714 -0.9374 -0.1523
12335TIP3    H158496   3.312   5.408  12.304 -1.4584 -1.1623  1.2890
12335TIP3    H258497   3.355   5.275  12.361  0.9239 -1.0397 -0.0723
12336TIP3   OH258498   4.066   2.835   1.654 -0.0413  0.2114 -0.6011
12336TIP3    H158499   4.141   2.776   1.645 -0.4836 -0.1601 -2.0178
12336TIP3    H258500   4.023   2.807   1.735 -0.0591 -1.2171 -1.0787
12337TIP3   OH258501   1.481   5.927   1.818 -0.0748 -0.3628 -0.0385
12337TIP3    H158502   1.576   5.940   1.819 -0.0209 -0.7604  0.6430
12337TIP3    H258503   1.446   6.000   1.869 -0.1580 -0.0914 -0.4764
12338TIP3   OH258504   3.668   0.614  12.928 -0.4826  0.0966  0.1121
12338TIP3    H158505   3.703   0.531  12.961 -1.6501 -1.0590 -1.3798
12338TIP3    H258506   3.696   0.617  12.837 -1.1856  0.9314 -0.0869
12339TIP3   OH258507   1.395   4.322  15.048  0.6594 -0.0914  0.8684
12339TIP3    H158508   1.427   4.371  14.972  1.5580 -1.3391  0.3993
12339TIP3    H258509   1.345   4.250  15.011  1.1136 -0.7175  1.4428
12340TIP3   OH258510   4.583   6.219   2.960 -0.1505 -0.1110  0.2132
12340TIP3    H158511   4.488   6.227   2.949 -0.2059  2.1011  1.4787
12340TIP3    H258512   4.617   6.215   2.871 -1.3883 -0.3243 -0.2808
12341TIP3   OH258513   1.772   2.781   0.683  0.1505  0.3708 -0.1345
12341TIP3    H158514   1.785   2.852   0.620  1.2074  1.9995  1.8200
12341TIP3    H258515   1.679   2.783   0.704 -0.3253 -0.5414 -1.9667
12342TIP3   OH258516   6.087   4.623   2.565  0.2418  0.1524 -0.1092
12342TIP3    H158517   6.145   4.627   2.489  0.6936 -0.6436  0.1843
12342TIP3    H258518   6.123   4.553   2.619  0.1326  0.9302  1.0067
12343TIP3   OH258519   5.932   5.266   4.901  0.4490  0.0352  0.0717
12343TIP3    H158520   5.926   5.172   4.882  0.0435  0.0051  0.3189
12343TIP3    H258521   5.852   5.303   4.862  0.3315  0.1907  0.4512
12344TIP3   OH258522   5.819   1.810   1.495  0.0792 -0.1587  0.4239
12344TIP3    H158523   5.905   1.817   1.537 -0.2876 -0.5129  1.2526
12344TIP3    H258524   5.833   1.842   1.406  0.6626  1.5050  1.0860
12345TIP3   OH258525   4.483   4.940  14.737 -0.2937  0.0602  0.0807
12345TIP3    H158526   4.416   4.995  14.776 -2.5288 -1.3744 -1.4631
12345TIP3    H258527   4.528   4.996  14.674  0.8990  1.3849  2.0334
12346TIP3   OH258528   1.809   6.520   1.690 -0.4599 -0.5489 -0.5075
12346TIP3    H158529   1.863   6.577   1.635  0.6986 -2.3638 -1.3396
12346TIP3    H258530   1.804   6.565   1.774  1.7298  0.0740 -0.6494
12347TIP3   OH258531   4.571   0.165   5.579  0.1555 -0.3024 -0.2947
12347TIP3    H158532   4.576   0.070   5.563  0.7696 -0.1645 -0.9504
12347TIP3    H258533   4.509   0.197   5.515 -0.4567 -0.3269  0.2729
12348TIP3   OH258534   2.496   5.137   6.174  1.3945 -0.1612  0.1653
12348TIP3    H158535   2.499   5.055   6.223 -1.7467 -1.8507 -2.0765
12348TIP3    H258536   2.429   5.189   6.219  2.9541  1.0274  1.2238
12349TIP3   OH258537   3.960   1.584   0.376 -0.5088  0.1308 -0.0344
12349TIP3    H158538   3.878   1.541   0.352 -0.3802 -0.5323  0.7065
12349TIP3    H258539   3.933   1.673   0.401 -0.7515  0.5732 -1.7177
12350TIP3   OH258540   0.835   5.136  11.854 -0.1368  0.5681 -0.3989
12350TIP3    H158541   0.925   5.154  11.881  0.1715 -0.1828 -0.9198
12350TIP3    H258542   0.783   5.199  11.904  0.6859  1.1352 -0.2286
12351TIP3   OH258543   0.691   1.688   6.291 -0.3960 -0.3577  0.4362
12351TIP3    H158544   0.654   1.737   6.364 -0.0539 -0.2974  0.5689
12351TIP3    H258545   0.785   1.685   6.308 -0.4964 -1.7617  0.8460
12352TIP3   OH258546   3.492   1.538  15.298  0.1544  0.8244 -0.2526
12352TIP3    H158547   3.460   1.517  15.386  1.4492  0.6685  0.2045
12352TIP3    H258548   3.420   1.516  15.240  0.4265 -2.3465  0.4301
12353TIP3   OH258549   6.605   0.110  12.998  0.1726 -0.4181 -0.0618
12353TIP3    H158550   6.655   0.049  12.944 -1.5239 -1.5995 -0.3504
12353TIP3    H258551   6.514   0.097  12.972 -0.6713 -0.6595  2.7022
12354TIP3   OH258552   6.471   3.472   1.809  0.4099  0.5501 -0.5694
12354TIP3    H158553   6.534   3.532   1.848 -0.3796  0.8207  0.3329
12354TIP3    H258554   6.395   3.527   1.789 -0.0897 -0.0275 -0.2953
12355TIP3   OH258555   0.844   2.011  12.709 -0.2477  0.0611  0.2383
12355TIP3    H158556   0.750   2.009  12.692 -0.0640  0.7380 -0.9531
12355TIP3    H258557   0.852   1.996  12.803 -1.5561  0.2029  0.3817
12356TIP3   OH258558   0.111   0.452  11.966 -0.0725 -0.1137 -0.3900
12356TIP3    H158559   0.110   0.418  11.877 -0.1649 -0.2404 -0.3400
12356TIP3    H258560   0.081   0.379  12.021 -2.7042  0.7759 -0.5319
12357TIP3   OH258561   5.352   2.175   6.301 -0.0879 -0.4912 -0.2500
12357TIP3    H158562   5.402   2.239   6.351  1.7153 -0.6774 -1.6968
12357TIP3    H258563   5.265   2.214   6.293  1.0354  2.0426 -1.4196
12358TIP3   OH258564   2.965   4.076  13.814  0.1034 -0.1568 -0.3741
12358TIP3    H158565   2.969   4.005  13.750  2.0863  0.9399 -1.5573
12358TIP3    H258566   3.041   4.131  13.794 -1.0285  1.9841  0.8902
12359TIP3   OH258567   4.115   2.155  11.485  0.3242 -0.1846  0.1025
12359TIP3    H158568   4.058   2.217  11.440  0.8813  0.5022  0.3337
12359TIP3    H258569   4.178   2.127  11.418  1.1367  0.8172  0.4360
12360TIP3   OH258570   3.493   4.268   3.071 -0.5042  0.0871  0.1464
12360TIP3    H158571   3.538   4.192   3.034 -1.1500  0.0690 -0.6142
12360TIP3    H258572   3.544   4.343   3.039  0.0044 -0.0059  0.7190
12361TIP3   OH258573   1.794   1.831  13.502 -0.1682 -0.2211  0.5935
12361TIP3    H158574   1.771   1.911  13.549 -0.9064 -0.8960  1.4084
12361TIP3    H258575   1.774   1.849  13.410 -1.2920  0.1863  0.9077
12362TIP3   OH258576   4.721   4.509   2.131  0.0700 -0.7139  0.3250
12362TIP3    H158577   4.738   4.445   2.062 -1.5714  0.3733 -1.1940
12362TIP3    H258578   4.635   4.487   2.165 -0.8470  1.0239 -0.7114
12363TIP3   OH258579   3.591   0.870  15.959  0.1011  0.2324  0.0980
12363TIP3    H158580   3.587   0.832  15.871  1.1869 -0.0490  0.1632
12363TIP3    H258581   3.530   0.817  16.010 -0.5122  0.3753 -0.4671
12364TIP3   OH258582   3.897   5.302   1.673  0.1560  0.3002  0.3484
12364TIP3    H158583   3.971   5.340   1.625  1.7366 -0.2678  2.2151
12364TIP3    H258584   3.843   5.377   1.697  0.3799  0.7797 -0.5938
12365TIP3   OH258585   2.377   5.909   4.948 -0.2820 -0.5144  0.5366
12365TIP3    H158586   2.354   5.865   4.866  0.0911  0.7711 -0.2733
12365TIP3    H258587   2.441   5.976   4.923  1.0619 -1.1367  2.1129
12366TIP3   OH258588   4.287   3.650  15.316  0.6306 -0.1082 -0.3339
12366TIP3    H158589   4.279   3.648  15.220  0.3829 -0.5654 -0.3033
12366TIP3    H258590   4.253   3.566  15.345 -1.0795  0.7596  0.3027
12367TIP3   OH258591   1.507   1.504  14.627 -0.0247  0.4503 -0.4592
12367TIP3    H158592   1.508   1.531  14.719 -0.6861 -2.1538  0.3955
12367TIP3    H258593   1.564   1.567  14.583 -0.6625  2.5080  1.4790
12368TIP3   OH258594   1.824   6.620   2.602  0.1311 -0.1746  0.1138
12368TIP3    H158595   1.763   6.691   2.620 -0.2534 -1.0740  2.7261
12368TIP3    H258596   1.790   6.546   2.652  1.4635 -1.7303 -1.1667
12369TIP3   OH258597   1.653   0.259  10.835  0.3169  0.2754 -0.1517
12369TIP3    H158598   1.568   0.236  10.797 -0.1506  1.3115  0.2140
12369TIP3    H258599   1.702   0.299  10.763 -0.4044  1.8372  0.1839
12370TIP3   OH258600   2.975   2.943  16.352 -0.1676 -0.0695  0.4624
12370TIP3    H158601   3.025   2.945  16.270  0.3365  0.7776  0.7899
12370TIP3    H258602   2.937   2.855  16.354  1.8705 -1.0028  0.5633
12371TIP3   OH258603   4.097   4.323   0.028  0.3003  0.0833 -0.1028
12371TIP3    H158604   4.019   4.376   0.015  0.2912 -0.0196 -0.4828
12371TIP3    H258605   4.067   4.247   0.078 -0.4849 -1.4702 -2.7305
12372TIP3   OH258606   4.659   2.195   2.783  0.6103  0.5302  0.2322
12372TIP3    H158607   4.753   2.203   2.766  0.7643  0.5466  1.0331
12372TIP3    H258608   4.617   2.219   2.701  1.3184  0.1665 -0.2418
12373TIP3   OH258609   5.944   3.736   5.429  0.3145 -0.2090 -0.1929
12373TIP3    H158610   5.933   3.641   5.438  0.5180 -0.3076 -0.9164
12373TIP3    H258611   5.923   3.754   5.337  0.2470  0.4516 -0.0529
12374TIP3   OH258612   3.200   0.463   3.936 -0.9355  0.0838 -0.4524
12374TIP3    H158613   3.247   0.518   3.999  0.2357 -0.6367 -0.6684
12374TIP3    H258614   3.269   0.421   3.884 -1.7998 -1.3031 -0.5337
12375TIP3   OH258615   0.632   6.129   2.690 -0.1541 -0.1685  0.1105
12375TIP3    H158616   0.652   6.182   2.767 -0.0787  1.8713 -1.2173
12375TIP3    H258617   0.717   6.102   2.656 -0.1181  0.0587  0.0167
12376TIP3   OH258618   2.822   6.660  12.114  0.0374  0.2285 -0.4571
12376TIP3    H158619   2.810   6.569  12.141 -1.1184  1.1586  2.5924
12376TIP3    H258620   2.885   6.656  12.042 -0.1226 -2.9680 -0.5418
12377TIP3   OH258621   2.635   2.610   0.969 -0.1946  0.1182 -0.0431
12377TIP3    H158622   2.681   2.669   1.028  0.0044 -0.8588  0.7985
12377TIP3    H258623   2.661   2.639   0.881  0.2939  0.9528  0.3656
12378TIP3   OH258624   4.368   3.007   0.230 -0.5276 -0.6639 -0.1036
12378TIP3    H158625   4.277   2.983   0.213 -0.7236  0.4235 -0.7122
12378TIP3    H258626   4.394   2.953   0.305 -1.8697 -0.5657  0.4597
12379TIP3   OH258627   5.226   4.727  11.938 -0.4599 -0.0969  0.2444
12379TIP3    H158628   5.245   4.637  11.966  0.3752  0.5851  2.0329
12379TIP3    H258629   5.304   4.753  11.889 -1.9950 -1.3532 -3.1874
12380TIP3   OH258630   4.371   4.255   1.868  0.8382 -0.1647 -0.0859
12380TIP3    H158631   4.314   4.318   1.912  1.2971 -0.5316  1.0833
12380TIP3    H258632   4.370   4.282   1.777  0.4694  1.1071  0.2678
12381TIP3   OH258633   3.283   2.498   0.517 -0.3833  0.6569  0.1501
12381TIP3    H158634   3.232   2.579   0.509 -0.1810  0.6719 -1.3959
12381TIP3    H258635   3.362   2.524   0.564 -0.7009  1.1760  0.4010
12382TIP3   OH258636   4.140   3.812  14.608  0.0251 -0.3675 -0.0584
12382TIP3    H158637   4.188   3.796  14.526  1.0312 -1.0819  0.6518
12382TIP3    H258638   4.062   3.758  14.600 -0.9549  1.1477 -1.4258
12383TIP3   OH258639   4.957   4.611   4.878  0.5083 -0.2422  0.0517
12383TIP3    H158640   5.042   4.604   4.835 -0.5456  0.6858 -2.3789
12383TIP3    H258641   4.894   4.602   4.807 -1.5073 -2.0720  1.9239
12384TIP3   OH258642   0.506   6.356   0.307 -0.5318 -0.2335  0.0478
12384TIP3    H158643   0.546   6.272   0.329  0.4601  0.4900  1.0959
12384TIP3    H258644   0.537   6.375   0.218 -0.5661 -0.8388 -0.0987
12385TIP3   OH258645   2.602   3.425  15.206 -0.2634  0.0372  0.0683
12385TIP3    H158646   2.663   3.498  15.219  0.8933 -0.8191 -0.4313
12385TIP3    H258647   2.646   3.367  15.145 -1.3687 -0.8716  0.0993
12386TIP3   OH258648   1.649   5.897  13.487 -0.2681 -0.1330 -0.1435
12386TIP3    H158649   1.574   5.846  13.457 -0.3255 -0.9796  1.3413
12386TIP3    H258650   1.724   5.858  13.442 -0.2713 -1.7817  1.1884
12387TIP3   OH258651   4.594   1.494  12.633 -0.2937 -0.1508  0.0761
12387TIP3    H158652   4.596   1.406  12.597 -0.2325 -0.7309  1.4351
12387TIP3    H258653   4.543   1.545  12.570 -0.7043 -1.2497 -0.5066
12388TIP3   OH258654   1.033   4.097   4.864 -0.5344  0.0154  0.3348
12388TIP3    H158655   1.087   4.061   4.793  0.0325  2.5796 -0.6656
12388TIP3    H258656   1.062   4.050   4.942  1.6449 -0.2209 -0.5289
12389TIP3   OH258657   2.799   2.414  14.028 -0.4337  0.0099  0.1327
12389TIP3    H158658   2.823   2.329  14.064 -1.1647  0.1581  0.9922
12389TIP3    H258659   2.742   2.394  13.953  2.2756 -0.3565 -1.9984
12390TIP3   OH258660   0.632   3.986  15.024 -0.3801 -0.4770  0.4271
12390TIP3    H158661   0.647   4.076  14.993 -0.1237  0.5587  3.2597
12390TIP3    H258662   0.650   3.931  14.948  1.3943  1.7560 -0.8893
12391TIP3   OH258663   4.638   0.966  15.175  0.4997 -0.0771  0.0461
12391TIP3    H158664   4.680   0.965  15.090  0.2976 -2.3240 -0.0805
12391TIP3    H258665   4.708   0.949  15.238  0.3374 -0.3681  0.1512
12392TIP3   OH258666   5.549   5.992  12.136 -0.3983  0.0418 -0.0987
12392TIP3    H158667   5.640   6.021  12.127 -0.3904  0.1888  0.4420
12392TIP3    H258668   5.551   5.931  12.209 -1.0074  1.2128  0.9212
12393TIP3   OH258669   5.177   5.631  17.028 -0.3751  0.7678  0.4367
12393TIP3    H158670   5.232   5.589  17.094 -1.7079  1.2752  1.9209
12393TIP3    H258671   5.206   5.722  17.027  1.6179  0.2190 -1.8443
12394TIP3   OH258672   0.682   3.315   2.342  0.2445 -0.0762  0.8433
12394TIP3    H158673   0.684   3.386   2.407 -0.8729  1.1372 -0.3908
12394TIP3    H258674   0.774   3.297   2.324  0.5557  0.8961  1.3701
12395TIP3   OH258675   2.961   6.162   0.615 -0.0104 -0.3587 -0.1448
12395TIP3    H158676   2.901   6.088   0.622 -0.2434 -0.2140 -0.5504
12395TIP3    H258677   2.917   6.222   0.554  0.3740 -0.0808 -0.1503
12396TIP3   OH258678   6.785   3.398  16.832 -0.2487  0.0779  0.2162
12396TIP3    H158679   6.834   3.480  16.829 -1.7799  1.0249 -0.1262
12396TIP3    H258680   6.735   3.403  16.914 -0.1452 -0.6413  0.3274
12397TIP3   OH258681   0.317   6.080  13.393 -0.5741  0.0172 -0.2901
12397TIP3    H158682   0.318   6.166  13.436  1.2000 -0.1032 -0.0312
12397TIP3    H258683   0.311   6.100  13.299 -3.0633  0.3109 -0.1363
12398TIP3   OH258684   2.051   5.957  14.492  0.2452 -0.1277 -0.3753
12398TIP3    H158685   1.972   5.930  14.445 -0.4381  0.2759  0.5218
12398TIP3    H258686   2.116   5.890  14.470 -1.0197 -1.7822  0.7243
12399TIP3   OH258687   3.000   6.517   4.807 -0.4731  0.0756  0.5744
12399TIP3    H158688   3.083   6.557   4.781  0.1195 -1.2779  0.2831
12399TIP3    H258689   2.943   6.529   4.731  0.3702 -1.4258 -0.3526
12400TIP3   OH258690   5.778   6.566  10.966  0.2571 -0.0986 -0.2023
12400TIP3    H158691   5.848   6.562  11.031 -0.7500  0.4279  0.9625
12400TIP3    H258692   5.816   6.613  10.893  1.8144 -1.7805 -0.5531
12401TIP3   OH258693   4.579   3.287  12.733  0.6664  0.1858 -0.2929
12401TIP3    H158694   4.592   3.358  12.670 -1.3450  0.1086 -0.8681
12401TIP3    H258695   4.605   3.208  12.685  0.8250  0.3049 -0.4049
12402TIP3   OH258696   2.828   4.807  15.918  0.0933  0.0108 -0.2155
12402TIP3    H158697   2.910   4.795  15.966  0.3778 -2.1472 -1.1418
12402TIP3    H258698   2.836   4.894  15.879  1.9443 -0.1577 -0.2905
12403TIP3   OH258699   3.586   2.987  11.623 -0.2932  0.1429  0.0280
12403TIP3    H158700   3.602   3.077  11.650  0.8628  0.6717 -2.1950
12403TIP3    H258701   3.672   2.946  11.623 -0.3839 -0.1368 -1.6139
12404TIP3   OH258702   1.956   0.440   0.135 -0.3579  0.4263 -0.3844
12404TIP3    H158703   1.868   0.474   0.119 -0.8085 -0.6187 -0.2119
12404TIP3    H258704   1.947   0.345   0.126  0.8535  0.3361 -0.8229
12405TIP3   OH258705   0.229   6.502   1.692  0.3741  0.3896  0.1758
12405TIP3    H158706   0.265   6.587   1.668 -1.7678  0.5539 -3.2176
12405TIP3    H258707   0.154   6.490   1.633 -1.4193 -2.4578  2.7013
12406TIP3   OH258708   3.612   0.819   0.924  0.1300 -0.1612  0.4194
12406TIP3    H158709   3.671   0.854   0.858  0.4487  0.9636  1.2772
12406TIP3    H258710   3.605   0.726   0.902 -1.3059  0.4892 -2.3458
12407TIP3   OH258711   5.821   2.710  10.653  0.7295 -0.8718  0.6387
12407TIP3    H158712   5.899   2.661  10.677 -0.0925 -2.8078 -0.3798
12407TIP3    H258713   5.751   2.644  10.650 -0.9239  0.7611  1.3611
12408TIP3   OH258714   6.252   1.064   2.041 -0.3844 -0.3741 -0.4812
12408TIP3    H158715   6.181   1.035   1.983  0.2046 -0.8961 -0.9729
12408TIP3    H258716   6.217   1.140   2.086 -0.7757  0.2174 -1.7320
12409TIP3   OH258717   6.247   0.238  15.402  0.3592  0.2200  0.3461
12409TIP3    H158718   6.327   0.207  15.445  0.7403  1.8758  0.9127
12409TIP3    H258719   6.249   0.333  15.414 -0.9065  0.4520 -1.0134
12410TIP3   OH258720   5.245   2.492   0.326  0.1647  0.4775 -0.2455
12410TIP3    H158721   5.184   2.547   0.277 -1.4077 -0.6952  0.3161
12410TIP3    H258722   5.220   2.402   0.305  0.8428 -0.0502  1.0323
12411TIP3   OH258723   5.858   6.045   4.720  0.0500  0.0288  0.6336
12411TIP3    H158724   5.783   5.987   4.707 -0.2369  0.5669 -0.2351
12411TIP3    H258725   5.877   6.040   4.813  1.5595 -3.3244  0.3186
12412TIP3   OH258726   5.962   3.505  11.864  0.2023 -0.4650  0.6132
12412TIP3    H158727   5.941   3.445  11.935  0.0571 -0.1540  0.8345
12412TIP3    H258728   5.986   3.448  11.791  0.5637 -0.7829  0.9728
12413TIP3   OH258729   5.325   4.023   3.752 -0.3533  0.2448 -0.2064
12413TIP3    H158730   5.375   4.095   3.789  0.7644 -0.3439 -0.5126
12413TIP3    H258731   5.289   4.058   3.670 -1.3666  1.0025  0.5447
12414TIP3   OH258732   4.524   4.275   3.191 -0.4768 -0.0358  0.0090
12414TIP3    H158733   4.537   4.353   3.137 -0.0272  0.2767  0.5709
12414TIP3    H258734   4.435   4.284   3.226 -0.1356  0.6272  0.7210
12415TIP3   OH258735   1.620   2.331   1.248  0.0326 -0.1120 -0.2849
12415TIP3    H158736   1.602   2.246   1.287  2.5508 -0.3552  0.5174
12415TIP3    H258737   1.705   2.321   1.205  0.6665  2.1139  0.3070
12416TIP3   OH258738   3.208   4.613   3.323 -0.0755  0.2460  0.1819
12416TIP3    H158739   3.172   4.604   3.235  1.2216 -0.5441 -0.2906
12416TIP3    H258740   3.266   4.688   3.318 -1.8736  1.8014  1.0611
12417TIP3   OH258741   2.366   3.858   1.780 -0.4209 -0.4091 -0.5370
12417TIP3    H158742   2.397   3.832   1.866 -0.6015 -0.1105 -0.3802
12417TIP3    H258743   2.300   3.791   1.757  1.4198 -1.9650 -1.5607
12418TIP3   OH258744   4.503   3.633   3.455  0.3941  0.0645  0.5381
12418TIP3    H158745   4.518   3.613   3.363 -0.5886 -0.6362  0.5119
12418TIP3    H258746   4.409   3.622   3.467  0.0517  2.8583  0.9897
12419TIP3   OH258747   4.078   5.143  11.725 -0.1600 -0.7696  0.1359
12419TIP3    H158748   4.062   5.237  11.719 -1.7496 -0.9841  0.4984
12419TIP3    H258749   3.994   5.106  11.754 -0.0028 -2.4627 -1.3776
12420TIP3   OH258750   5.293   0.720  16.578  0.1097  0.1008 -0.5189
12420TIP3    H158751   5.221   0.731  16.640  0.6562 -0.5785  0.2651
12420TIP3    H258752   5.300   0.804  16.533 -1.1837  0.1651 -0.6314
12421TIP3   OH258753   6.380   6.821   1.125 -0.4498 -0.0900  0.0893
12421TIP3    H158754   6.339   6.907   1.139 -0.6616 -0.0521 -0.6989
12421TIP3    H258755   6.474   6.838   1.133 -0.5520 -0.1547  1.7848
12422TIP3   OH258756   5.567   3.996  13.720  0.3095 -0.2503  0.1729
12422TIP3    H158757   5.545   3.979  13.628  1.1714  0.1392 -0.1185
12422TIP3    H258758   5.506   4.064  13.747 -1.8676 -2.3000  0.7727
12423TIP3   OH258759   3.227   4.996  12.018  0.7237 -0.3192 -0.3124
12423TIP3    H158760   3.137   4.962  12.016  0.4548  0.3908 -0.4774
12423TIP3    H258761   3.281   4.919  12.038 -0.1516 -0.3120  2.6902
12424TIP3   OH258762   2.987   4.550  15.745  0.3900  0.5597  0.3321
12424TIP3    H158763   3.037   4.547  15.827  0.4387  0.8675  0.3161
12424TIP3    H258764   2.986   4.459  15.714 -1.5560  0.0296  1.8129
12425TIP3   OH258765   3.483   5.848   2.150  0.1853 -0.6139 -0.2001
12425TIP3    H158766   3.442   5.907   2.087 -1.3900 -1.4589 -0.0191
12425TIP3    H258767   3.467   5.888   2.235  0.9839 -0.2520 -0.2043
12426TIP3   OH258768   0.358   3.455  12.428  0.3137 -0.0907  0.0841
12426TIP3    H158769   0.352   3.363  12.403 -1.4609  0.0858 -0.2534
12426TIP3    H258770   0.393   3.454  12.518  0.5496 -1.0548 -0.0109
12427TIP3   OH258771   3.030   1.074   5.108  0.2253 -0.2317  0.6004
12427TIP3    H158772   2.950   1.022   5.104  0.4151 -0.5493  0.9358
12427TIP3    H258773   2.999   1.165   5.107 -0.0328 -0.2524 -2.3526
12428TIP3   OH258774   6.809   3.039   4.724 -0.3496  0.9975  0.1335
12428TIP3    H158775   6.892   3.060   4.681  0.8637 -2.6264  0.3551
12428TIP3    H258776   6.745   3.036   4.653  0.5676  0.0528 -0.6877
12429TIP3   OH258777   0.363   2.538   5.487  0.0606  0.2661 -1.0380
12429TIP3    H158778   0.458   2.539   5.483  0.0460  1.3802 -1.5787
12429TIP3    H258779   0.335   2.549   5.396 -0.6036 -0.8253 -0.9831
12430TIP3   OH258780   4.252   4.794  11.369 -0.2164  0.1030 -0.6494
12430TIP3    H158781   4.274   4.831  11.284  1.0955  0.8429 -0.0284
12430TIP3    H258782   4.329   4.741  11.392  0.5056  1.7679  1.0681
12431TIP3   OH258783   2.534   0.318   5.059  0.9385 -0.6369 -0.2601
12431TIP3    H158784   2.445   0.327   5.025 -0.1912 -2.9658  1.7582
12431TIP3    H258785   2.552   0.400   5.105 -0.6038 -0.5281  0.1917
12432TIP3   OH258786   5.050   0.001   3.617  0.1783 -0.2618  0.7907
12432TIP3    H158787   5.131   0.049   3.601 -0.1652 -0.2443 -1.1769
12432TIP3    H258788   5.057  -0.029   3.708  2.5923 -0.6251  0.5543
12433TIP3   OH258789   4.918   1.252   1.631  0.0120  0.2625 -0.1592
12433TIP3    H158790   4.967   1.220   1.555  2.4201  0.7962  1.0756
12433TIP3    H258791   4.932   1.347   1.630 -0.3147  0.3250  0.7123
12434TIP3   OH258792   1.047   0.140   5.464  0.3147 -0.2265 -0.0396
12434TIP3    H158793   1.137   0.173   5.455  0.4497 -1.0877 -4.1919
12434TIP3    H258794   0.998   0.186   5.396 -2.4733  0.1640  2.0694
12435TIP3   OH258795   3.456   6.660  16.570 -0.2296 -0.4731  0.7906
12435TIP3    H158796   3.480   6.593  16.506 -1.1194 -0.6792  0.6661
12435TIP3    H258797   3.496   6.741  16.537 -0.7401 -0.5630 -0.0665
12436TIP3   OH258798   4.267   5.367  16.706 -0.8716 -0.0655  0.2212
12436TIP3    H158799   4.225   5.424  16.771 -1.0097  0.4012 -0.2754
12436TIP3    H258800   4.225   5.389  16.623  0.6186  0.7455 -0.3768
12437TIP3   OH258801   5.797   4.567   2.679 -0.4297 -0.1528 -0.0223
12437TIP3    H158802   5.730   4.604   2.737  1.0886  1.2673  0.9243
12437TIP3    H258803   5.826   4.641   2.626  2.0007 -0.1010  1.2358
12438TIP3   OH258804   0.277   5.811  12.023  0.2910 -0.1949 -0.7876
12438TIP3    H158805   0.257   5.904  12.035  1.4688  0.3205 -2.4368
12438TIP3    H258806   0.211   5.765  12.075 -1.4548  1.5005 -1.4050
12439TIP3   OH258807   6.249   3.672  16.173 -0.1654  0.3555  0.5138
12439TIP3    H158808   6.317   3.699  16.112  0.2363  0.7521  1.1204
12439TIP3    H258809   6.185   3.743  16.172 -0.7310 -0.1567 -0.2821
12440TIP3   OH258810   6.584   0.168  15.423  0.1092 -0.5871 -0.2553
12440TIP3    H158811   6.616   0.253  15.394 -1.1159  0.4621  1.2702
12440TIP3    H258812   6.525   0.139  15.354  1.6913 -0.9430 -1.4933
12441TIP3   OH258813   5.274   0.864   0.492  0.1296 -0.0452  0.3881
12441TIP3    H158814   5.243   0.922   0.561  1.1654  1.9947 -0.7423
12441TIP3    H258815   5.369   0.878   0.490  0.2244 -0.6669 -0.9059
12442TIP3   OH258816   1.667   2.412   0.807  0.1449  0.2225  0.2677
12442TIP3    H158817   1.746   2.414   0.861 -0.3025  1.3900  0.9199
12442TIP3    H258818   1.607   2.472   0.851 -0.1172  1.4956 -1.7342
12443TIP3   OH258819   3.433   3.597   1.617  0.0561  0.1859 -0.1951
12443TIP3    H158820   3.485   3.653   1.558  0.6873  1.1328  1.1932
12443TIP3    H258821   3.398   3.658   1.682  0.6893 -1.0034  1.3242
12444TIP3   OH258822   2.388   5.187   2.971 -0.7284 -0.7725 -0.4271
12444TIP3    H158823   2.369   5.278   2.947 -0.0107 -0.0521  1.5882
12444TIP3    H258824   2.445   5.155   2.900  2.0408  1.5441  0.5648
12445TIP3   OH258825   4.831   2.397  16.557 -0.0899  0.0154 -0.1879
12445TIP3    H158826   4.848   2.491  16.570  1.1576  0.0297 -1.6489
12445TIP3    H258827   4.819   2.363  16.646  0.6466  1.3521  0.4657
12446TIP3   OH258828   1.746   0.861  14.726 -0.3183 -0.0419 -0.0012
12446TIP3    H158829   1.797   0.940  14.742 -1.8082  0.9074  0.2410
12446TIP3    H258830   1.714   0.871  14.636  0.7787 -1.1491 -0.5392
12447TIP3   OH258831   5.221   4.203   0.161 -0.0778  0.1841  0.2271
12447TIP3    H158832   5.223   4.286   0.113  1.2114  0.0198 -0.0253
12447TIP3    H258833   5.289   4.149   0.120 -1.0487 -1.0956  0.2313
12448TIP3   OH258834   6.667   5.135  11.306 -0.2180 -0.0279 -0.2532
12448TIP3    H158835   6.683   5.041  11.306 -0.4169 -0.0616 -0.0617
12448TIP3    H258836   6.573   5.144  11.321 -0.2210  0.1986 -0.3916
12449TIP3   OH258837   6.345   5.124  13.158 -0.0438 -0.4391  0.0780
12449TIP3    H158838   6.376   5.162  13.241  1.1360 -1.1470 -0.0119
12449TIP3    H258839   6.336   5.031  13.177 -2.1614 -0.2697  0.0750
12450TIP3   OH258840   3.546   2.730   3.328 -0.4344  0.5047 -0.6111
12450TIP3    H158841   3.493   2.655   3.355 -3.2541  1.7316 -2.2464
12450TIP3    H258842   3.487   2.805   3.336  2.0699  2.5399  0.3711
12451TIP3   OH258843   2.666   0.823  16.495 -0.0784 -0.0992 -0.4980
12451TIP3    H158844   2.617   0.773  16.430  0.0219  0.6671 -1.1697
12451TIP3    H258845   2.600   0.857  16.555 -0.1029 -1.5710  0.3814
12452TIP3   OH258846   4.367   0.002   1.440  0.3020  0.2178 -0.0325
12452TIP3    H158847   4.406  -0.073   1.395 -1.1380 -1.2591  1.0478
12452TIP3    H258848   4.300   0.034   1.379 -0.0869 -0.3204  0.1101
12453TIP3   OH258849   1.234   0.087   3.158 -0.3006 -0.6973  0.3013
12453TIP3    H158850   1.201   0.063   3.244 -0.3411 -0.0081  0.4802
12453TIP3    H258851   1.329   0.090   3.168 -0.3971  1.7485  0.9698
12454TIP3   OH258852   3.006   0.413   2.004 -0.2572 -0.1772  0.6187
12454TIP3    H158853   3.092   0.418   1.961  0.2668  0.1652  1.6612
12454TIP3    H258854   2.945   0.451   1.941  0.6805  1.4339  0.6452
12455TIP3   OH258855   4.324   2.381   2.535  0.2909 -0.2394  0.5227
12455TIP3    H158856   4.257   2.389   2.604  1.1024  0.3545  1.2658
12455TIP3    H258857   4.279   2.407   2.455  0.1358  2.2846  1.3215
12456TIP3   OH258858   3.337   3.911   2.379 -0.6389  0.1355  0.1996
12456TIP3    H158859   3.291   3.948   2.454  0.6053  0.0960  1.0139
12456TIP3    H258860   3.355   3.821   2.403  1.0220  0.5091  0.4947
12457TIP3   OH258861   5.458   6.526  14.483  0.2536  0.0235  0.3083
12457TIP3    H158862   5.505   6.443  14.493  1.5597  0.6963 -0.0000
12457TIP3    H258863   5.424   6.545  14.570 -0.4705 -1.0446  0.2875
12458TIP3   OH258864   4.942   1.115  12.535  0.2053  0.2643 -0.6067
12458TIP3    H158865   4.961   1.208  12.538  1.5980  0.0184 -1.2671
12458TIP3    H258866   5.026   1.072  12.549 -0.3170 -0.8902 -0.8559
12459TIP3   OH258867   5.048   1.305  14.385 -0.4025 -0.7082 -0.4062
12459TIP3    H158868   5.011   1.358  14.314 -0.6428 -0.6046 -0.2035
12459TIP3    H258869   5.142   1.303  14.366 -0.6710 -2.3604 -1.8662
12460TIP3   OH258870   3.531   4.157   4.127  0.6801  0.1930 -0.2912
12460TIP3    H158871   3.526   4.105   4.047  1.2576  0.4521 -0.5001
12460TIP3    H258872   3.446   4.145   4.169 -0.3659  1.6186 -1.9078
12461TIP3   OH258873   2.040   5.799  16.020 -0.0278  0.2598 -0.6275
12461TIP3    H158874   2.125   5.764  15.996 -0.4090 -0.8568 -0.4024
12461TIP3    H258875   2.030   5.878  15.967  0.6071 -0.2886 -1.5759
12462TIP3   OH258876   2.144   0.990  16.901  0.3226  0.1266  0.3266
12462TIP3    H158877   2.151   1.036  16.817  0.3623  0.6984  0.6409
12462TIP3    H258878   2.103   0.906  16.878 -0.4839  0.6353 -0.1365
12463TIP3   OH258879   0.941   6.461  15.770 -0.4060 -0.5601  0.1875
12463TIP3    H158880   1.007   6.457  15.839  0.4122  0.2862 -0.5226
12463TIP3    H258881   0.892   6.541  15.789 -0.6003 -0.6716  0.1566
12464TIP3   OH258882   6.702   3.005   4.425  0.4645  0.3785 -0.4908
12464TIP3    H158883   6.747   2.937   4.375 -1.7483  0.0525 -2.1956
12464TIP3    H258884   6.696   3.079   4.364 -0.3285  0.7834  0.0567
12465TIP3   OH258885   4.481   3.767   0.798 -0.4926 -0.1166  0.9102
12465TIP3    H158886   4.546   3.813   0.743  0.6977 -2.3418  0.3070
12465TIP3    H258887   4.529   3.691   0.831 -2.5695 -1.3265  1.2403
12466TIP3   OH258888   1.077   1.580   3.486 -0.1148 -0.3113 -0.2678
12466TIP3    H158889   0.997   1.630   3.471 -0.3987 -0.8495 -0.5993
12466TIP3    H258890   1.050   1.488   3.477  0.3202 -0.5512  0.6596
12467TIP3   OH258891   6.294   2.152   4.697  0.1340 -0.5509 -0.8408
12467TIP3    H158892   6.255   2.168   4.611  0.9705 -0.2062 -1.1640
12467TIP3    H258893   6.379   2.114   4.677  1.2182  1.4425 -0.2299
12468TIP3   OH258894   3.660   4.297   1.094  0.0964  0.0735 -0.1319
12468TIP3    H158895   3.699   4.341   1.018 -0.6852 -0.3752 -0.8134
12468TIP3    H258896   3.731   4.292   1.158  0.5216  1.2625 -0.4818
12469TIP3   OH258897   6.738   3.309  11.465  0.4308  0.5648  0.0248
12469TIP3    H158898   6.667   3.252  11.496 -0.1047  1.5292  0.6334
12469TIP3    H258899   6.806   3.249  11.434 -0.0899 -0.4038  0.7131
12470TIP3   OH258900   4.802   2.505  15.723  0.1417  0.1716 -0.3890
12470TIP3    H158901   4.730   2.460  15.678  0.2128  0.4126 -0.7452
12470TIP3    H258902   4.823   2.579  15.667  0.3643  0.3640 -0.0534
12471TIP3   OH258903   6.386   5.486  11.128 -0.7426  0.0301  0.1996
12471TIP3    H158904   6.356   5.479  11.218 -2.5559 -0.4551 -0.4013
12471TIP3    H258905   6.436   5.568  11.125  0.5337 -0.6294  1.9228
12472TIP3   OH258906   4.748   4.944   3.403 -0.0886 -0.2278 -0.2253
12472TIP3    H158907   4.794   4.861   3.415 -0.3406 -0.3854 -0.3492
12472TIP3    H258908   4.814   5.011   3.422 -0.4977 -0.4358  2.4355
12473TIP3   OH258909   0.337   3.863   5.977 -0.2145 -0.1619  0.4489
12473TIP3    H158910   0.417   3.812   5.989 -0.3330 -0.7521 -1.0005
12473TIP3    H258911   0.361   3.930   5.912 -0.5276  0.5409  1.0448
12474TIP3   OH258912   2.755   3.604   0.323  0.3777 -0.5455  0.1505
12474TIP3    H158913   2.729   3.681   0.373  0.2650 -0.0431 -0.6624
12474TIP3    H258914   2.672   3.568   0.292  0.3619 -1.4775  1.1909
12475TIP3   OH258915   4.653   1.708   2.679 -0.5500  0.3094  0.1569
12475TIP3    H158916   4.728   1.741   2.630  1.0378 -1.4579  1.2587
12475TIP3    H258917   4.613   1.643   2.621 -0.2403  0.0856  0.1925
12476TIP3   OH258918   0.594   6.525   1.250 -0.4860 -0.6982  0.2703
12476TIP3    H158919   0.543   6.503   1.172  0.3574 -1.5577 -0.0535
12476TIP3    H258920   0.631   6.612   1.231 -1.8815 -0.0127  0.5558
12477TIP3   OH258921   5.168   5.999   0.438 -0.1580  0.5284 -0.0581
12477TIP3    H158922   5.134   5.929   0.493  1.0057  0.3868  0.5234
12477TIP3    H258923   5.096   6.022   0.380 -0.8582 -0.5040  0.3767
12478TIP3   OH258924   4.985   6.164   5.469 -0.1555 -0.0550  0.0808
12478TIP3    H158925   5.071   6.193   5.440 -0.0901 -0.5090 -0.2084
12478TIP3    H258926   4.956   6.230   5.531 -0.6527  1.4273 -1.6277
12479TIP3   OH258927   3.832   4.233   3.067  0.2295  0.3487  0.3528
12479TIP3    H158928   3.927   4.223   3.057  0.1509  0.2733 -0.3412
12479TIP3    H258929   3.820   4.322   3.099  0.5463  0.2970  0.6199
12480TIP3   OH258930   5.859   3.896   4.115  0.2187  0.2784 -0.0457
12480TIP3    H158931   5.788   3.957   4.093  0.8138  0.6968 -0.8354
12480TIP3    H258932   5.935   3.930   4.069  0.7917 -0.5304  0.2859
12481TIP3   OH258933   5.141   6.198   5.190 -0.6769 -0.6181 -0.6285
12481TIP3    H158934   5.185   6.243   5.263 -1.5694 -0.8622  0.0787
12481TIP3    H258935   5.090   6.267   5.147  0.8696 -0.1846 -1.8722
12482TIP3   OH258936   1.978   2.913   3.802 -0.7410  0.3103  0.3498
12482TIP3    H158937   1.997   2.855   3.876  0.2938 -1.0095 -0.8892
12482TIP3    H258938   2.004   3.000   3.833 -0.9505 -0.0955  1.7455
12483TIP3   OH258939   2.243   3.519   6.637 -0.2920 -0.1210  0.0094
12483TIP3    H158940   2.299   3.574   6.691  0.0638 -0.9367  0.5001
12483TIP3    H258941   2.198   3.580   6.579  0.7042  0.6053 -0.0337
12484TIP3   OH258942   2.622   5.046   4.669  0.7946 -0.3858  0.4226
12484TIP3    H158943   2.650   4.954   4.664  0.9942 -0.2781 -1.2959
12484TIP3    H258944   2.633   5.078   4.579  0.2451  1.1826  0.8946
12485TIP3   OH258945   4.411   3.462   4.080  0.3042  0.5501  0.2593
12485TIP3    H158946   4.371   3.548   4.089  1.3691  1.0784  0.0472
12485TIP3    H258947   4.357   3.405   4.136  0.5653  1.6685  1.7206
12486TIP3   OH258948   4.715   6.271  17.123  0.3783 -0.4045  0.2995
12486TIP3    H158949   4.742   6.322  17.199  1.2087  0.7565 -0.7489
12486TIP3    H258950   4.675   6.334  17.064  2.3625 -0.7064 -1.4830
12487TIP3   OH258951   2.642   4.642   4.024 -0.2490 -1.0432  0.1327
12487TIP3    H158952   2.668   4.624   4.114 -1.9274 -1.1013  0.6430
12487TIP3    H258953   2.718   4.617   3.972  0.9334 -0.5350  1.5572
12488TIP3   OH258954   2.909   1.589   4.098 -0.4640 -0.4525 -0.3084
12488TIP3    H158955   2.855   1.546   4.165 -1.6324  1.6187  0.1865
12488TIP3    H258956   2.865   1.569   4.016 -0.4403 -0.9869 -0.1933
12489TIP3   OH258957   5.290   5.391   1.129 -0.1706 -0.0160  0.0650
12489TIP3    H158958   5.278   5.335   1.206  2.0465  0.0211  0.5025
12489TIP3    H258959   5.314   5.331   1.059 -0.0699  0.1642 -0.0557
12490TIP3   OH258960   0.844   4.182   4.477  0.1579 -0.5074 -0.2714
12490TIP3    H158961   0.814   4.273   4.478  1.2545 -0.0935 -1.4710
12490TIP3    H258962   0.765   4.130   4.488 -0.5247  0.5865  0.1303
12491TIP3   OH258963   4.202   5.386  12.332  0.1597 -0.1297  0.5426
12491TIP3    H158964   4.135   5.426  12.277  0.3134 -1.5955 -0.7972
12491TIP3    H258965   4.281   5.438  12.316  0.3354 -0.8175 -1.0931
12492TIP3   OH258966   0.614   5.300   6.428 -0.0173 -0.2248  0.3415
12492TIP3    H158967   0.709   5.290   6.416 -0.2374 -1.9874 -0.1381
12492TIP3    H258968   0.579   5.313   6.340 -0.2893 -0.3068  0.4361
12493TIP3   OH258969   2.244   3.000  12.562  0.2463 -0.2693  0.5987
12493TIP3    H158970   2.164   3.052  12.561 -1.2337 -2.4291  0.2785
12493TIP3    H258971   2.311   3.061  12.593 -1.3614  1.7857  0.3041
12494TIP3   OH258972   2.030   6.071   4.067  0.0387 -0.2166 -0.3019
12494TIP3    H158973   2.027   6.166   4.061  0.0888 -0.2077 -0.1945
12494TIP3    H258974   1.982   6.040   3.991 -1.4818 -0.0864  0.5601
12495TIP3   OH258975   6.624   0.465  12.427 -0.7109  0.0855  0.3710
12495TIP3    H158976   6.581   0.400  12.482 -0.0944 -0.8192 -0.1956
12495TIP3    H258977   6.564   0.480  12.354 -0.5863 -0.3023  0.1881
12496TIP3   OH258978   5.094   4.256   3.903 -0.1044  0.0366  0.1467
12496TIP3    H158979   5.115   4.187   3.840  1.0645  1.7915 -1.4896
12496TIP3    H258980   5.017   4.300   3.868  0.2895  0.7533  0.1539
12497TIP3   OH258981   5.329   2.716   0.037 -0.6893 -0.6982  0.5137
12497TIP3    H158982   5.372   2.737   0.120 -1.4469 -0.7166  0.9205
12497TIP3    H258983   5.361   2.783  -0.024  1.1596 -1.6435  0.3530
12498TIP3   OH258984   3.137   5.058  13.363 -0.2099 -0.3717 -0.0405
12498TIP3    H158985   3.044   5.080  13.364 -0.3176 -0.2283  4.1236
12498TIP3    H258986   3.168   5.083  13.450  4.1768  1.2117 -1.7805
12499TIP3   OH258987   2.768   6.264   4.648 -0.5654  0.0579 -0.2378
12499TIP3    H158988   2.744   6.220   4.730  0.9871  1.2834  0.9495
12499TIP3    H258989   2.701   6.331   4.636  0.2366  1.1733  1.1586
12500TIP3   OH258990   1.075   4.019  12.577  0.3523 -0.0913 -0.3914
12500TIP3    H158991   1.109   4.057  12.495 -0.3759 -0.3581 -0.8295
12500TIP3    H258992   1.028   4.091  12.619  1.9104  0.4478  0.5083
12501TIP3   OH258993   2.767   4.044   2.197 -0.2481  0.2294 -0.1636
12501TIP3    H158994   2.705   4.007   2.260 -1.0692  1.1340 -0.4178
12501TIP3    H258995   2.822   4.102   2.249 -0.0873 -0.0142 -0.0610
12502TIP3   OH258996   4.144   6.322   2.024  0.3277  0.1270  0.0811
12502TIP3    H158997   4.227   6.362   1.999 -0.3476  0.5857 -1.5937
12502TIP3    H258998   4.122   6.265   1.950  0.3990 -2.0356  1.6445
12503TIP3   OH258999   0.399   0.965   0.421  0.0491 -0.0084  0.0411
12503TIP3    H159000   0.463   1.019   0.374  0.3357  0.8142  1.3348
12503TIP3    H259001   0.453   0.905   0.473 -0.2348  0.3446  0.7447
12504TIP3   OH259002   0.896   0.355  12.098  0.5309 -0.2013  0.3096
12504TIP3    H159003   0.869   0.276  12.051  1.1020 -0.7875  0.9576
12504TIP3    H259004   0.980   0.333  12.138 -0.6037 -0.2439  2.8820
12505TIP3   OH259005   2.458   3.792  13.864 -0.0835 -0.7830 -0.7396
12505TIP3    H159006   2.475   3.722  13.926 -1.2175  0.6117  1.2735
12505TIP3    H259007   2.370   3.823  13.886  0.0911  0.7749 -2.0439
12506TIP3   OH259008   5.431   5.623   5.394 -0.0557 -0.3313  0.2155
12506TIP3    H159009   5.471   5.550   5.442  1.5896  0.2159 -0.2607
12506TIP3    H259010   5.491   5.696   5.406 -1.5839  0.9203  0.5137
12507TIP3   OH259011   1.222   2.309   1.672 -0.0805  0.3391  0.1852
12507TIP3    H159012   1.269   2.246   1.617 -0.3645 -1.1955  1.6307
12507TIP3    H259013   1.232   2.392   1.627  2.0808 -0.3605 -0.7438
12508TIP3   OH259014   4.344   0.801   5.579 -0.4701 -0.2083  0.3922
12508TIP3    H159015   4.353   0.708   5.558  0.9518 -0.1924  0.8577
12508TIP3    H259016   4.425   0.841   5.547 -0.3917  0.6111  1.5618
12509TIP3   OH259017   1.901   5.109   3.841 -0.2127  0.4098  0.0995
12509TIP3    H159018   1.891   5.098   3.747  1.0669 -0.0581 -0.0058
12509TIP3    H259019   1.835   5.051   3.880 -0.3365  0.1526 -0.4952
12510TIP3   OH259020   5.153   5.957  11.601  0.2909 -0.5721 -0.4272
12510TIP3    H159021   5.187   6.002  11.678 -0.2137 -1.2261  0.1959
12510TIP3    H259022   5.183   6.009  11.527  0.6199  0.1783  0.2217
12511TIP3   OH259023   1.805   3.466  10.855 -0.2603  0.2827 -0.2692
12511TIP3    H159024   1.852   3.494  10.777 -0.6298  1.3527 -0.1307
12511TIP3    H259025   1.801   3.370  10.848 -0.5099  0.3747 -1.6864
12512TIP3   OH259026   3.493   0.261   2.905  0.3582  1.0827 -0.1797
12512TIP3    H159027   3.488   0.281   2.812  0.8280  1.2452 -0.1675
12512TIP3    H259028   3.584   0.275   2.929  0.4533  0.0867  0.0914
12513TIP3   OH259029   0.894   3.700   2.397  0.3506  0.0202 -0.0754
12513TIP3    H159030   0.970   3.642   2.389 -1.6719 -2.6127 -1.6262
12513TIP3    H259031   0.911   3.770   2.333  0.7939 -1.3622 -1.5243
12514TIP3   OH259032   2.079   1.430  14.688 -0.1621  0.0531  0.1648
12514TIP3    H159033   2.001   1.485  14.689 -0.0799  0.1863 -0.3353
12514TIP3    H259034   2.067   1.369  14.761  0.2906  1.4760  1.4704
12515TIP3   OH259035   5.009   1.807   0.997  0.1269  0.5531  0.1566
12515TIP3    H159036   4.934   1.855   0.961  0.9358  1.8015  0.0537
12515TIP3    H259037   5.078   1.873   1.004  1.9720 -0.9934 -1.9324
12516TIP3   OH259038   5.242   1.144   0.192 -0.3022  0.3710 -0.3435
12516TIP3    H159039   5.163   1.157   0.245  0.1050  2.2491 -0.1279
12516TIP3    H259040   5.254   1.049   0.190 -0.7265  0.1821  2.3657
12517TIP3   OH259041   1.843   1.877  10.893 -0.3242 -0.1931  0.3813
12517TIP3    H159042   1.879   1.936  10.826 -1.4974  0.3046  0.1637
12517TIP3    H259043   1.920   1.834  10.930  0.4184  0.0597 -0.7823
12518TIP3   OH259044   0.703   0.462   5.914  0.1076  0.4707 -0.1633
12518TIP3    H159045   0.647   0.450   5.991  0.9232  2.3307  0.7708
12518TIP3    H259046   0.738   0.375   5.896  2.0386  0.3980  3.2684
12519TIP3   OH259047   1.828   5.921  14.260  0.0526  0.1886  0.2776
12519TIP3    H159048   1.757   5.984  14.270 -0.4892 -0.3234 -0.2583
12519TIP3    H259049   1.860   5.934  14.170 -1.2150 -1.4456 -0.4521
12520TIP3   OH259050   5.997   4.881  15.860 -0.5707 -0.1832 -0.3511
12520TIP3    H159051   5.903   4.888  15.840 -0.4254  0.4690 -0.8152
12520TIP3    H259052   6.012   4.949  15.927 -0.2340  0.3861 -0.9955
12521TIP3   OH259053   5.073   5.993  12.266 -0.0510  0.7451  0.3183
12521TIP3    H159054   5.007   5.933  12.299 -0.0916  1.0110  0.7251
12521TIP3    H259055   5.134   6.004  12.338 -0.1874  1.3921  0.3462
12522TIP3   OH259056   3.884   5.288   0.513  0.2328 -0.6254 -0.3805
12522TIP3    H159057   3.950   5.312   0.448  1.4001  1.2125  1.3637
12522TIP3    H259058   3.832   5.367   0.525 -0.4642 -1.1730  0.3625
12523TIP3   OH259059   4.659   5.983  12.875  0.4492 -0.1741  0.0346
12523TIP3    H159060   4.658   6.066  12.828 -2.2032  0.2368  0.6723
12523TIP3    H259061   4.661   6.008  12.968 -0.6302 -0.7650  0.2380
12524TIP3   OH259062   3.756   1.837  12.293 -0.3437 -0.6066 -0.0875
12524TIP3    H159063   3.851   1.827  12.306 -0.2630  1.4085  1.3152
12524TIP3    H259064   3.733   1.914  12.345 -2.8189 -1.2065 -0.1970
12525TIP3   OH259065   3.975   1.105   0.925 -0.2064  0.0954  0.2057
12525TIP3    H159066   4.025   1.035   0.967  0.0547  0.0451 -0.1902
12525TIP3    H259067   4.017   1.118   0.840 -2.2397 -1.5916 -1.1895
12526TIP3   OH259068   4.307   0.411   0.835  0.1626 -0.0209  0.1555
12526TIP3    H159069   4.289   0.400   0.742  1.8434 -0.6841 -0.1178
12526TIP3    H259070   4.232   0.461   0.868 -1.1235 -0.9295 -1.2606
12527TIP3   OH259071   3.608   3.005   5.076 -0.1812  0.5111 -0.0135
12527TIP3    H159072   3.651   3.076   5.125  0.2651  1.6764 -2.0013
12527TIP3    H259073   3.519   3.003   5.110 -0.1466  1.9101  0.2305
12528TIP3   OH259074   3.548   2.803   3.935  0.6046  0.7150 -0.0648
12528TIP3    H159075   3.481   2.812   3.867  1.2553  1.5981 -0.6177
12528TIP3    H259076   3.513   2.736   3.995 -0.5493  0.8262 -0.5830
12529TIP3   OH259077   1.039   1.489   4.224  0.5108  0.4058 -0.0333
12529TIP3    H159078   1.006   1.441   4.300 -0.3650  0.7963 -0.1526
12529TIP3    H259079   1.088   1.424   4.173 -3.0728 -1.2010 -1.7422
12530TIP3   OH259080   5.854   0.360  16.481 -0.1189 -0.0685  0.4195
12530TIP3    H159081   5.760   0.378  16.472 -0.0674 -0.5494 -1.3123
12530TIP3    H259082   5.859   0.309  16.563 -1.1725  1.1195  1.2669
12531TIP3   OH259083   0.796   0.651   5.316  0.4270 -0.0133 -0.0712
12531TIP3    H159084   0.867   0.714   5.330  0.3495  0.2709 -0.8940
12531TIP3    H259085   0.800   0.593   5.392 -1.0517  2.4049  2.0137
12532TIP3   OH259086   1.816   2.889  16.150 -0.3276  0.9151 -0.5894
12532TIP3    H159087   1.807   2.804  16.193  0.7185  0.0729 -1.9308
12532TIP3    H259088   1.910   2.896  16.131 -0.4382  2.2508 -0.7452
12533TIP3   OH259089   4.984   4.529  17.267  0.3196 -0.2938  0.4303
12533TIP3    H159090   4.998   4.446  17.223 -3.5595  0.2773 -2.3867
12533TIP3    H259091   5.009   4.595  17.203  0.0928  0.6705  1.3005
12534TIP3   OH259092   1.924   6.589  11.158 -0.0756  0.2921 -0.0611
12534TIP3    H159093   1.970   6.515  11.119 -0.1015  0.4917 -0.4693
12534TIP3    H259094   1.978   6.665  11.138  0.2020  0.3285  0.7759
12535TIP3   OH259095   4.372   5.649  17.144  0.2264  0.6943 -0.1061
12535TIP3    H159096   4.368   5.586  17.072  1.1015 -0.8242  1.1065
12535TIP3    H259097   4.377   5.595  17.222 -2.7660  2.2520  1.3175
12536TIP3   OH259098   3.975   2.292  12.635  0.5564 -0.5888 -0.6205
12536TIP3    H159099   3.988   2.368  12.692 -0.8205 -1.2555  0.6598
12536TIP3    H259100   4.062   2.254  12.624  1.1514  0.7710 -0.7212
12537TIP3   OH259101   3.962   5.632   5.599 -0.0222  0.3567  0.3338
12537TIP3    H159102   3.897   5.678   5.546  0.7798  0.9246 -0.1878
12537TIP3    H259103   3.993   5.698   5.660 -1.8753 -0.6212  2.4722
12538TIP3   OH259104   4.019   2.816   4.411  0.0675 -0.2956  0.4270
12538TIP3    H159105   4.048   2.884   4.472  0.6903 -0.5187  0.3898
12538TIP3    H259106   3.956   2.765   4.462  0.4723 -0.3932  0.8464
12539TIP3   OH259107   4.061   4.700   2.801 -0.2373  0.0254 -0.1225
12539TIP3    H159108   3.988   4.760   2.787 -1.0879 -0.7942  0.6428
12539TIP3    H259109   4.128   4.753   2.845 -0.4498  0.7282 -0.6311
12540TIP3   OH259110   0.817   4.575  13.561  0.2358  0.8285  0.6777
12540TIP3    H159111   0.853   4.648  13.510 -0.9667 -0.1390 -1.7497
12540TIP3    H259112   0.753   4.535  13.502  2.2915 -3.5051  0.9999
12541TIP3   OH259113   4.640   6.038   2.593  0.5898  0.4337  0.3019
12541TIP3    H159114   4.571   6.092   2.632  0.6247  0.4806  0.2981
12541TIP3    H259115   4.698   6.100   2.551 -1.1675  0.2313 -2.6796
12542TIP3   OH259116   6.115   3.440  15.052 -0.3361 -1.1783 -0.2714
12542TIP3    H159117   6.075   3.356  15.028 -1.4944 -1.0012  0.9163
12542TIP3    H259118   6.057   3.505  15.013 -0.8198 -0.9215  0.8454
12543TIP3   OH259119   2.793   2.195   0.892 -0.5386 -0.1451  0.1228
12543TIP3    H159120   2.869   2.186   0.833 -0.7423 -2.0908  0.1124
12543TIP3    H259121   2.831   2.218   0.976  0.1928 -2.0549  0.3575
12544TIP3   OH259122   0.599   6.350  11.101 -0.1933 -0.3769 -0.7204
12544TIP3    H159123   0.624   6.322  11.012 -0.8298  0.3018 -1.1235
12544TIP3    H259124   0.674   6.326  11.155  0.1757 -0.8737 -1.4267
12545TIP3   OH259125   2.167   0.828  11.440 -0.4661  0.1650  0.2224
12545TIP3    H159126   2.151   0.856  11.349  2.0871  0.9715 -0.0556
12545TIP3    H259127   2.211   0.744  11.432 -0.1609  0.2766  0.7118
12546TIP3   OH259128   0.970   1.273   4.003 -0.5085  0.1067 -0.1655
12546TIP3    H159129   0.895   1.326   4.026  0.4851  0.5509  2.3194
12546TIP3    H259130   0.946   1.184   4.031  0.5736  0.5920  2.6490
12547TIP3   OH259131   6.738   4.202  17.043 -0.1371  0.2640 -0.5036
12547TIP3    H159132   6.822   4.192  16.998 -0.0297 -0.7305 -0.1088
12547TIP3    H259133   6.674   4.166  16.983 -0.4783  2.0766 -1.3121
12548TIP3   OH259134   3.379   2.761   4.193  0.1308 -0.2627 -0.5745
12548TIP3    H159135   3.467   2.790   4.214  0.2526  0.9227 -2.4400
12548TIP3    H259136   3.322   2.833   4.222  0.0959  0.3293 -2.0200
12549TIP3   OH259137   3.155   2.833  12.518  0.3939 -0.0340  0.8613
12549TIP3    H159138   3.219   2.763  12.524  1.5885  0.7715 -1.4094
12549TIP3    H259139   3.207   2.913  12.519 -0.8350  0.7971  2.0561
12550TIP3   OH259140   5.984   0.746   2.070 -0.1150  0.4480 -0.5143
12550TIP3    H159141   6.019   0.825   2.028 -0.0435  0.7254  0.0460
12550TIP3    H259142   6.048   0.678   2.051  0.8577  0.9885  0.6441
12551TIP3   OH259143   3.793   3.019   1.112  0.1856  0.0822  0.1328
12551TIP3    H159144   3.709   3.035   1.156  1.4546  3.5791  1.6779
12551TIP3    H259145   3.834   2.949   1.164 -0.9014 -0.1725  0.6773
12552TIP3   OH259146   6.361   0.440  16.432  0.2373  0.5802  0.4432
12552TIP3    H159147   6.451   0.412  16.446 -0.6839 -2.2446  1.7066
12552TIP3    H259148   6.357   0.466  16.340  2.0171 -0.6671 -0.0399
12553TIP3   OH259149   5.501   3.076   5.835  0.4050  0.2663  0.0872
12553TIP3    H159150   5.470   3.004   5.781 -0.6348  0.0130  1.0043
12553TIP3    H259151   5.552   3.034   5.904 -0.4236  0.3743  0.7753
12554TIP3   OH259152   2.247   3.414  11.724 -0.6103  0.2460 -0.1676
12554TIP3    H159153   2.307   3.475  11.680 -1.0853 -0.7655 -2.2849
12554TIP3    H259154   2.304   3.345  11.757 -0.3682  0.4927 -0.0548
12555TIP3   OH259155   0.273   4.901  15.344 -0.1832 -0.0632  0.4263
12555TIP3    H159156   0.332   4.899  15.269 -2.6138  0.8898 -1.6624
12555TIP3    H259157   0.227   4.818  15.342 -0.6194  0.1682  0.5473
12556TIP3   OH259158   5.285   3.124  13.091 -0.0993 -0.5297  0.2762
12556TIP3    H159159   5.351   3.132  13.022  1.3104  0.7959  1.6947
12556TIP3    H259160   5.285   3.031  13.113  1.4316 -0.5400  0.3326
12557TIP3   OH259161   6.684   1.307   2.269 -0.6541 -0.2286  0.0959
12557TIP3    H159162   6.753   1.342   2.212 -0.0796 -0.9433  0.3153
12557TIP3    H259163   6.603   1.340   2.232 -0.2852 -0.5320 -1.0446
12558TIP3   OH259164   5.738   3.947  12.132 -0.2419 -0.0783  0.5994
12558TIP3    H159165   5.664   3.893  12.105 -1.4548  2.0821 -0.6213
12558TIP3    H259166   5.722   3.964  12.225 -0.9262 -0.1930  0.5081
12559TIP3   OH259167   6.035   2.537   5.914  0.3808 -0.1630  0.2002
12559TIP3    H159168   6.077   2.462   5.955 -0.5048 -0.7138  0.1210
12559TIP3    H259169   6.091   2.558   5.839  1.3331  0.0758  0.9689
12560TIP3   OH259170   1.743   4.723   2.377 -0.3806  0.3439 -0.6845
12560TIP3    H159171   1.767   4.641   2.420  0.2864  1.2674  0.7959
12560TIP3    H259172   1.792   4.790   2.425 -2.2782  1.7953 -0.6818
12561TIP3   OH259173   0.572   3.532  11.130 -0.0558 -0.1229  0.5201
12561TIP3    H159174   0.506   3.530  11.199  1.0263  0.5733  1.6248
12561TIP3    H259175   0.594   3.440  11.115  0.3550 -0.2408  1.7677
12562TIP3   OH259176   1.451   3.948   4.535  0.4952  0.3158 -0.0743
12562TIP3    H159177   1.421   3.860   4.558  2.9382 -0.9947 -1.5680
12562TIP3    H259178   1.506   3.936   4.458  0.9879  3.1563 -0.2738
12563TIP3   OH259179   1.961   4.401  14.496 -0.2828 -0.3462 -0.5950
12563TIP3    H159180   1.991   4.482  14.536 -0.8296 -1.1720  1.6369
12563TIP3    H259181   2.030   4.378  14.433  1.8149 -0.1006  1.4743
12564TIP3   OH259182   1.778   4.376  15.919 -0.7575 -0.4919  0.0781
12564TIP3    H159183   1.829   4.428  15.981 -0.6519  0.8141 -1.0545
12564TIP3    H259184   1.726   4.441  15.871 -2.8771 -1.6928  0.6105
12565TIP3   OH259185   0.222   6.130   1.562  0.0142 -0.0865 -0.0367
12565TIP3    H159186   0.286   6.061   1.548 -1.8647 -1.6722 -1.4755
12565TIP3    H259187   0.197   6.122   1.654 -0.6211 -1.8176 -0.3229
12566TIP3   OH259188   0.413   0.968   4.970 -0.1958 -0.3479 -0.3937
12566TIP3    H159189   0.425   0.907   5.042 -1.7439 -0.5575 -0.2838
12566TIP3    H259190   0.382   1.048   5.011  0.9663  0.2472 -0.6295
12567TIP3   OH259191   2.981   0.869   6.242  0.2551 -0.0094  0.4546
12567TIP3    H159192   2.980   0.942   6.304 -0.0643 -0.7291  1.3221
12567TIP3    H259193   3.015   0.795   6.292  1.8491 -0.1536 -0.7791
12568TIP3   OH259194   4.198   4.854  14.053  0.1207  0.3180  0.2084
12568TIP3    H159195   4.153   4.864  14.138  1.7450 -1.2812  1.3213
12568TIP3    H259196   4.291   4.857  14.075  0.6627 -3.1556 -1.0210
12569TIP3   OH259197   6.404   3.291   3.282  0.2897  0.2846 -0.6536
12569TIP3    H159198   6.413   3.335   3.366  0.7470 -0.7936 -0.1207
12569TIP3    H259199   6.484   3.240   3.272 -1.9503 -4.0195  0.9196
12570TIP3   OH259200   3.899   1.594   3.872 -0.1966 -0.0580  0.1242
12570TIP3    H159201   3.817   1.590   3.824  0.1995 -1.3441 -0.4984
12570TIP3    H259202   3.881   1.549   3.955  0.1944 -1.5243 -0.5525
12571TIP3   OH259203   4.848   1.448   0.486 -0.8900 -0.8534 -0.8527
12571TIP3    H159204   4.898   1.368   0.504 -1.4583 -1.1670 -0.6413
12571TIP3    H259205   4.873   1.507   0.557  0.3675 -0.4322 -1.6155
12572TIP3   OH259206   6.701   4.534  14.924  0.4141 -1.1468 -0.0112
12572TIP3    H159207   6.674   4.480  14.850 -0.2772  0.7607 -1.2160
12572TIP3    H259208   6.751   4.606  14.884 -3.5768  2.4248  0.6811
12573TIP3   OH259209   6.374   6.106  10.550  0.0732  0.7844  0.4604
12573TIP3    H159210   6.310   6.053  10.598  0.6205 -0.1631  0.1873
12573TIP3    H259211   6.323   6.149  10.482 -0.2851  0.0184  0.2270
12574TIP3   OH259212   2.436   3.396  11.139 -0.0533  0.2681  0.0675
12574TIP3    H159213   2.439   3.374  11.046 -2.6815 -1.8718  0.3631
12574TIP3    H259214   2.364   3.459  11.147 -0.7640 -0.6095  0.7863
12575TIP3   OH259215   5.567   6.058  14.127 -0.1848  0.0704 -0.1269
12575TIP3    H159216   5.635   6.046  14.193 -1.0121 -2.0416  0.4152
12575TIP3    H259217   5.487   6.072  14.178 -0.7254 -0.9505 -0.6764
12576TIP3   OH259218   6.490   5.024   0.951 -0.0188 -0.2165 -0.0780
12576TIP3    H159219   6.520   4.936   0.925 -0.7309 -0.0516 -1.5514
12576TIP3    H259220   6.436   5.008   1.028 -0.0663 -1.0670 -0.2737
12577TIP3   OH259221   5.076   1.087   4.566 -0.3093 -0.1978  0.0332
12577TIP3    H159222   5.110   1.095   4.655  2.7925 -0.9124 -0.9575
12577TIP3    H259223   5.076   1.176   4.532 -0.0159 -0.1114  0.2540
12578TIP3   OH259224   6.012   6.019  12.606  0.6550 -0.1157  0.1048
12578TIP3    H159225   6.048   5.968  12.678  1.3891 -1.3577 -1.0719
12578TIP3    H259226   5.936   5.968  12.577  0.5808  0.1812 -0.2323
12579TIP3   OH259227   6.509   4.047   2.182 -1.2041 -0.1004  0.3629
12579TIP3    H159228   6.452   3.982   2.140 -0.1573 -1.3720  0.8402
12579TIP3    H259229   6.579   4.062   2.119 -0.6521 -0.5744  0.8494
12580TIP3   OH259230   0.448   4.892   6.366 -0.5306  0.0888  0.7660
12580TIP3    H159231   0.462   4.922   6.276 -2.1417  0.1357  0.4946
12580TIP3    H259232   0.536   4.871   6.398  0.2828  1.7453 -0.2067
12581TIP3   OH259233   3.032   4.194   1.828 -0.5151  0.2716 -0.4090
12581TIP3    H159234   2.985   4.252   1.888  0.8904  0.7980  0.2508
12581TIP3    H259235   2.985   4.201   1.745 -0.9724  1.5800 -0.0628
12582TIP3   OH259236   4.187   1.608   4.841 -0.1571 -0.4745 -0.1539
12582TIP3    H159237   4.129   1.661   4.787  0.8367 -1.4068 -2.2421
12582TIP3    H259238   4.157   1.518   4.827  2.0505 -1.0553 -1.7952
12583TIP3   OH259239   5.669   1.047  13.268  0.3341 -0.2036 -0.8440
12583TIP3    H159240   5.737   1.007  13.323 -2.3969 -1.5553  1.9435
12583TIP3    H259241   5.714   1.072  13.188  4.1340 -0.6158  0.9233
12584TIP3   OH259242   2.403   4.913   1.535  0.1677 -0.0003  0.1486
12584TIP3    H159243   2.381   4.830   1.577 -1.2622  0.6563  0.7736
12584TIP3    H259244   2.456   4.960   1.599  2.9783 -1.2714 -1.0646
12585TIP3   OH259245   1.717   4.284  16.900 -0.0387  0.3185  0.6570
12585TIP3    H159246   1.698   4.372  16.933  1.5120  0.6989  0.6266
12585TIP3    H259247   1.808   4.269  16.925 -0.2421 -1.2278  0.5246
12586TIP3   OH259248   4.577   1.805   2.930  0.0014  0.1213  0.3329
12586TIP3    H159249   4.613   1.774   2.848 -2.3639 -1.8147 -0.0715
12586TIP3    H259250   4.520   1.878   2.906  0.8129  0.8610  0.5587
12587TIP3   OH259251   3.996   0.152   4.027 -0.2196  0.1944 -0.4047
12587TIP3    H159252   4.076   0.145   3.974 -0.1159 -0.2290 -0.2006
12587TIP3    H259253   3.957   0.235   4.002  0.2900  0.4046 -0.5034
12588TIP3   OH259254   6.767   0.831  11.023  0.3842  0.0376  0.6653
12588TIP3    H159255   6.789   0.899  11.086  0.9868  0.8951 -0.4424
12588TIP3    H259256   6.852   0.801  10.989  0.0428  1.5163 -1.7121
12589TIP3   OH259257   2.877   5.838   0.616  0.5273  0.2595 -0.3299
12589TIP3    H159258   2.794   5.887   0.613 -0.9334 -1.7985  2.0161
12589TIP3    H259259   2.888   5.817   0.709  1.5626 -2.9134 -1.0588
12590TIP3   OH259260   1.371   3.914  15.864  0.7677  0.5006 -0.1651
12590TIP3    H159261   1.306   3.920  15.934  1.7443  1.0416  0.7226
12590TIP3    H259262   1.329   3.957  15.789 -0.4940 -0.5369 -0.1055
12591TIP3   OH259263   6.300   3.372  13.379 -0.2068 -0.0029 -0.3444
12591TIP3    H159264   6.392   3.348  13.386  0.3533  1.9159 -0.5262
12591TIP3    H259265   6.293   3.415  13.293 -0.2105  3.8275  1.3806
12592TIP3   OH259266   5.223   6.348   4.179 -0.1218  0.0724  0.7742
12592TIP3    H159267   5.288   6.398   4.130  0.1066 -0.7634  0.2053
12592TIP3    H259268   5.177   6.297   4.112 -0.3991 -0.4177  1.3305
12593TIP3   OH259269   0.787   3.719  15.658  1.0189 -0.0882 -0.2577
12593TIP3    H159270   0.744   3.790  15.609  1.1600  0.2314  0.0707
12593TIP3    H259271   0.718   3.655  15.673  0.6225  0.4646  0.3492
12594TIP3   OH259272   4.890   5.733  15.079  0.1227  0.0855 -0.6430
12594TIP3    H159273   4.982   5.757  15.092  0.2681 -1.4924  2.0101
12594TIP3    H259274   4.840   5.804  15.119  0.4530 -1.4779  3.0206
12595TIP3   OH259275   3.526   5.761   0.755 -0.3187 -0.2863  0.0922
12595TIP3    H159276   3.509   5.838   0.809  0.2464  0.5955 -0.9632
12595TIP3    H259277   3.453   5.759   0.693 -0.7302 -1.0425  0.5822
12596TIP3   OH259278   0.224   2.246  12.287 -0.0793  0.7544  0.1486
12596TIP3    H159279   0.307   2.228  12.245 -0.1190  2.0872 -0.5578
12596TIP3    H259280   0.179   2.162  12.291  0.7513  0.2664 -0.6799
12597TIP3   OH259281   1.512   6.246  12.423  0.2049  0.1595  0.4980
12597TIP3    H159282   1.574   6.187  12.465 -0.2555 -0.0295  0.9185
12597TIP3    H259283   1.533   6.240  12.330 -0.0567 -0.9341  0.4983
12598TIP3   OH259284   3.747   4.742  10.955  0.4317  0.2898  0.4180
12598TIP3    H159285   3.771   4.689  11.031 -0.7932 -0.5592  0.2277
12598TIP3    H259286   3.652   4.737  10.950  0.4351  0.9183 -0.7610
12599TIP3   OH259287   3.995   0.222  12.117  0.4807 -0.3459 -0.0065
12599TIP3    H159288   3.956   0.258  12.037  1.1296 -0.7838 -0.5305
12599TIP3    H259289   3.949   0.139  12.131  1.1666 -0.8443 -0.6040
12600TIP3   OH259290   3.802   4.259  15.803 -0.0166  0.2841  0.1969
12600TIP3    H159291   3.719   4.285  15.842 -0.0085  0.9150 -0.2066
12600TIP3    H259292   3.854   4.227  15.877  0.0446  1.5810  0.7333
12601TIP3   OH259293   6.517   0.510  10.765  0.0629  0.0706 -0.5462
12601TIP3    H159294   6.485   0.507  10.855 -1.1536 -2.1561 -0.9744
12601TIP3    H259295   6.483   0.430  10.725  0.3335  1.1233 -3.0786
12602TIP3   OH259296   1.544   4.829   0.367 -0.5761  0.0585  0.0775
12602TIP3    H159297   1.507   4.884   0.436  2.0076 -0.1174  1.7613
12602TIP3    H259298   1.544   4.884   0.289 -0.9427  1.3298  0.9397
12603TIP3   OH259299   6.388   3.999   4.279  0.6829  0.0962  0.2637
12603TIP3    H159300   6.353   4.077   4.237  0.2377  0.1417  0.7111
12603TIP3    H259301   6.408   4.026   4.368  1.0514 -0.1606  0.2633
12604TIP3   OH259302   2.501   2.195  11.952 -1.0325  0.0753  0.7397
12604TIP3    H159303   2.442   2.239  12.015 -2.0555 -1.5893  1.0037
12604TIP3    H259304   2.451   2.192  11.871 -0.4943  0.4472  0.3907
12605TIP3   OH259305   4.115   0.517  12.006  0.2543  0.0763  0.7404
12605TIP3    H159306   4.064   0.446  11.968  1.9529 -1.1274  0.5662
12605TIP3    H259307   4.127   0.579  11.934  2.1935 -1.4751 -0.3667
12606TIP3   OH259308   1.944   5.201  16.438 -0.2005 -0.2800 -0.0254
12606TIP3    H159309   1.872   5.243  16.391 -0.2217 -0.3103 -0.0205
12606TIP3    H259310   1.992   5.274  16.477 -0.9472 -0.3169  1.0022
12607TIP3   OH259311   4.134   4.140   3.380  0.2136 -0.3303  0.0224
12607TIP3    H159312   4.192   4.209   3.413  0.6929 -0.7673  0.1083
12607TIP3    H259313   4.113   4.167   3.291  1.8549 -0.9566 -0.6024
12608TIP3   OH259314   0.269   0.105  14.594 -0.1150  0.3353  0.3014
12608TIP3    H159315   0.310   0.034  14.545 -0.1918 -0.9806  2.0521
12608TIP3    H259316   0.277   0.181  14.536  2.1344 -0.5185 -0.6360
12609TIP3   OH259317   2.736   0.141   6.408 -0.3864 -0.2840 -0.4264
12609TIP3    H159318   2.772   0.054   6.391 -2.1620 -1.2795  0.5002
12609TIP3    H259319   2.690   0.165   6.328  1.1814  0.4256 -1.1513
12610TIP3   OH259320   3.295   0.799   6.562 -0.1605 -0.4539  0.5114
12610TIP3    H159321   3.371   0.754   6.527 -0.3032 -1.2007  1.1488
12610TIP3    H259322   3.221   0.761   6.514 -0.0507  1.6100 -1.5280
12611TIP3   OH259323   0.301   6.741   3.466  0.0586 -0.0414  0.4122
12611TIP3    H159324   0.299   6.734   3.370 -0.9309  0.3925  0.3818
12611TIP3    H259325   0.292   6.651   3.497  1.8672 -0.3519  0.1181
12612TIP3   OH259326   6.309   2.449   6.672  0.0786 -0.4441 -0.0738
12612TIP3    H159327   6.226   2.437   6.627 -0.6481  1.4971  0.6532
12612TIP3    H259328   6.324   2.543   6.671  1.6977 -0.6534  0.8313
12613TIP3   OH259329   0.893   2.834   5.435 -0.1500  0.6909 -0.2189
12613TIP3    H159330   0.882   2.929   5.438  0.6906  0.7735  1.1678
12613TIP3    H259331   0.986   2.820   5.453 -0.1537 -0.3891 -0.9253
12614TIP3   OH259332   5.983   5.218   6.371 -0.4940 -0.0273 -0.3674
12614TIP3    H159333   6.044   5.241   6.300  0.9969  0.9334  1.1366
12614TIP3    H259334   5.907   5.274   6.356  0.0171  0.5319 -0.9288
12615TIP3   OH259335   0.135   4.163   5.902 -0.0459 -0.3255 -0.4078
12615TIP3    H159336   0.181   4.162   5.818 -0.7047 -2.5194 -0.7930
12615TIP3    H259337   0.133   4.256   5.926 -0.8457  0.5502 -3.3761
12616TIP3   OH259338   5.828   5.400  14.076 -0.7573 -0.3278 -0.6008
12616TIP3    H159339   5.915   5.432  14.053 -0.1203 -2.5354 -1.4934
12616TIP3    H259340   5.844   5.320  14.127 -2.2713 -0.5116 -0.3544
12617TIP3   OH259341   2.676   0.857  15.615 -0.1067  0.4251  0.4375
12617TIP3    H159342   2.700   0.779  15.565 -1.1775  0.5690 -0.3403
12617TIP3    H259343   2.728   0.851  15.695  0.8243 -0.3880 -0.2014
12618TIP3   OH259344   6.038   6.244   5.681 -0.5843 -0.5697 -0.2096
12618TIP3    H159345   6.043   6.167   5.624  0.5430 -0.9535  0.3595
12618TIP3    H259346   5.980   6.218   5.752  0.5161 -1.2604  0.4677
12619TIP3   OH259347   2.793   2.803  16.069  0.3839 -0.1782  0.0645
12619TIP3    H159348   2.745   2.734  16.116  1.5170 -2.0266 -1.3209
12619TIP3    H259349   2.773   2.883  16.116  0.0066 -1.6465  2.5929
12620TIP3   OH259350   0.805   2.463   4.750 -0.4229  0.0077  0.1709
12620TIP3    H159351   0.822   2.434   4.660 -1.1393  0.4677 -0.1169
12620TIP3    H259352   0.729   2.520   4.743  0.4795  1.3369  0.8483
12621TIP3   OH259353   2.661   0.876  13.526  0.7709 -0.0748  0.3477
12621TIP3    H159354   2.641   0.854  13.616  0.9304  0.0221  0.4075
12621TIP3    H259355   2.603   0.950  13.505  0.4177 -0.3846  0.2290
12622TIP3   OH259356   5.059   5.138   0.361 -0.8177  0.4064  0.6582
12622TIP3    H159357   5.057   5.151   0.455  0.5661  0.2114  0.7286
12622TIP3    H259358   5.110   5.212   0.327 -1.6040  0.6737  0.0121
12623TIP3   OH259359   5.633   3.281   3.989 -0.1635  0.4151  0.1395
12623TIP3    H159360   5.588   3.293   4.073 -2.2374  0.6378 -0.9502
12623TIP3    H259361   5.667   3.368   3.968 -1.6437  0.9174 -0.3059
12624TIP3   OH259362   1.760   4.869   2.827  0.3453 -0.1156 -0.8882
12624TIP3    H159363   1.685   4.839   2.775 -0.6218 -0.3089  0.5398
12624TIP3    H259364   1.728   4.947   2.871 -0.5242 -2.3006  2.8273
12625TIP3   OH259365   6.291   5.067   2.951 -0.2533  0.2817 -0.2334
12625TIP3    H159366   6.216   5.111   2.909 -1.3696 -0.9541  0.4069
12625TIP3    H259367   6.252   5.001   3.008  1.2949  0.5721  1.2465
12626TIP3   OH259368   6.710   2.118  13.556 -0.0236 -0.2082  0.7640
12626TIP3    H159369   6.759   2.153  13.631 -0.0331  0.0922  0.6307
12626TIP3    H259370   6.619   2.131  13.579 -0.2054 -3.2817  2.2783
12627TIP3   OH259371   1.187   4.035   1.911  0.2129  0.3374 -0.1011
12627TIP3    H159372   1.179   3.942   1.890 -0.4957  0.6102 -1.0932
12627TIP3    H259373   1.280   4.053   1.903  0.2858 -0.1600 -0.4323
12628TIP3   OH259374   2.737   1.492  11.118  0.0764  0.1125 -0.0705
12628TIP3    H159375   2.807   1.553  11.098  0.7891 -0.0722  1.6443
12628TIP3    H259376   2.749   1.420  11.057  0.5242  0.7123 -0.7059
12629TIP3   OH259377   0.766   6.000  16.596 -0.0007  0.3397  0.4142
12629TIP3    H159378   0.820   6.005  16.676  0.1591  0.3431  0.3082
12629TIP3    H259379   0.677   5.985  16.628  0.1950 -0.5610  0.5682
12630TIP3   OH259380   0.309   0.397   6.194 -0.6330 -0.6163  0.0887
12630TIP3    H159381   0.391   0.446   6.203 -0.9287 -0.1585  0.3526
12630TIP3    H259382   0.284   0.376   6.284 -0.1492 -1.8682 -0.0562
12631TIP3   OH259383   0.225   1.659   1.737  0.3987  0.0980  0.2006
12631TIP3    H159384   0.174   1.588   1.776 -0.8074  1.3521  1.0304
12631TIP3    H259385   0.283   1.617   1.674 -2.1170 -1.3605 -1.2715
12632TIP3   OH259386   4.345   2.733   5.466  0.5649 -0.0842  0.2906
12632TIP3    H159387   4.258   2.694   5.467  0.5693 -0.1211  1.5535
12632TIP3    H259388   4.355   2.770   5.554  1.1619  1.4162 -0.3785
12633TIP3   OH259389   3.490   0.980  12.764 -0.4987 -0.4340  0.6343
12633TIP3    H159390   3.577   0.993  12.802  0.0891 -1.1701 -0.4252
12633TIP3    H259391   3.443   0.929  12.829  0.6190 -2.0061  0.2555
12634TIP3   OH259392   1.546   4.282  13.259 -0.6443  0.0204 -0.2802
12634TIP3    H159393   1.470   4.236  13.294 -1.3647  2.0514  0.9836
12634TIP3    H259394   1.604   4.293  13.334  1.1407 -1.8175 -1.2895
12635TIP3   OH259395   3.052   0.699   2.129 -0.4292  0.2949  0.3280
12635TIP3    H159396   3.041   0.790   2.102 -1.0444  0.0155 -0.4045
12635TIP3    H259397   2.965   0.660   2.118  0.5148 -1.3100 -3.0719
12636TIP3   OH259398   0.800   3.467  13.252  0.4387  0.6903  0.2657
12636TIP3    H159399   0.854   3.429  13.321 -0.5187 -0.4434  0.4102
12636TIP3    H259400   0.721   3.497  13.297  1.1801  3.0291  0.1826
12637TIP3   OH259401   1.092   4.151   3.038 -0.0456  0.1396 -0.1588
12637TIP3    H159402   1.177   4.185   3.063  0.3004  0.0353 -1.1510
12637TIP3    H259403   1.032   4.226   3.049 -0.2621 -0.3250  2.5375
12638TIP3   OH259404   4.617   0.936  13.795  0.0401  0.1610  0.0770
12638TIP3    H159405   4.657   1.005  13.741 -0.8256  0.7201  0.1356
12638TIP3    H259406   4.604   0.863  13.735  0.3191  0.2910 -0.1474
12639TIP3   OH259407   4.760   4.028   6.574  0.2525 -0.3693  0.2097
12639TIP3    H159408   4.799   3.982   6.500  0.7495  0.8958 -0.3435
12639TIP3    H259409   4.667   4.008   6.568  0.3099 -0.4187 -0.6669
12640TIP3   OH259410   3.775   2.239  15.773 -0.0278  0.3857  0.1879
12640TIP3    H159411   3.782   2.326  15.735  0.3141 -0.0865 -0.8529
12640TIP3    H259412   3.861   2.222  15.811  0.3478 -0.0259 -0.8054
12641TIP3   OH259413   1.075   4.862   6.012  0.3891  0.1544 -0.1146
12641TIP3    H159414   1.104   4.841   6.101 -1.2316  1.7033  0.8464
12641TIP3    H259415   1.152   4.901   5.971  0.6970  0.9907  1.1912
12642TIP3   OH259416   2.879   6.633  15.106 -0.3908 -0.3019 -0.5544
12642TIP3    H159417   2.942   6.581  15.055 -0.8493  0.2668 -1.7191
12642TIP3    H259418   2.796   6.587  15.096 -0.0811 -1.4821  1.6074
12643TIP3   OH259419   3.274   2.585  11.716 -0.3274  0.2217  0.1311
12643TIP3    H159420   3.309   2.652  11.658 -1.8585  1.3131  0.3853
12643TIP3    H259421   3.260   2.509  11.660 -0.2105  0.7005 -0.5576
12644TIP3   OH259422   1.719   2.508   2.646 -0.0934  0.2580 -0.0224
12644TIP3    H159423   1.642   2.480   2.597  0.9348  0.2580 -1.7229
12644TIP3    H259424   1.746   2.589   2.604  1.2443 -0.1189  0.0592
12645TIP3   OH259425   4.612   2.615   3.231 -0.2475 -0.1312 -0.3772
12645TIP3    H159426   4.517   2.607   3.233 -0.5197  2.2045 -1.0983
12645TIP3    H259427   4.638   2.616   3.323 -1.4448  3.4743  0.0602
12646TIP3   OH259428   4.911   1.676  12.193  0.1571 -0.2420  0.4776
12646TIP3    H159429   4.890   1.627  12.113 -1.0776  2.0086 -0.6781
12646TIP3    H259430   4.989   1.726  12.171 -1.1608  1.7185 -0.0360
12647TIP3   OH259431   5.611   4.485  15.495 -0.2381 -0.1925 -0.5372
12647TIP3    H159432   5.584   4.414  15.554 -1.8234  1.3972  0.7437
12647TIP3    H259433   5.627   4.441  15.411  0.2190 -2.2539  0.5589
12648TIP3   OH259434   1.079   1.203  13.002  0.1322  0.2691  0.4010
12648TIP3    H159435   1.054   1.261  12.929 -0.6114  0.9074  1.1466
12648TIP3    H259436   1.174   1.192  12.992 -0.1205 -0.7666 -1.4620
12649TIP3   OH259437   5.298   0.031  12.438 -0.4678 -0.7928 -0.3857
12649TIP3    H159438   5.331   0.057  12.523  0.7783  0.9300 -1.3398
12649TIP3    H259439   5.280  -0.063  12.447 -1.3404 -0.4615  2.0242
12650TIP3   OH259440   2.357   2.675  13.037  0.3994 -0.5147  0.0753
12650TIP3    H159441   2.387   2.656  12.948 -0.5200  1.0145 -0.6000
12650TIP3    H259442   2.311   2.597  13.065 -1.9291  0.0225 -1.9854
12651TIP3   OH259443   4.538   5.411   5.620  0.2660 -0.0943 -0.2775
12651TIP3    H159444   4.631   5.412   5.598  0.9312 -0.8998  2.1130
12651TIP3    H259445   4.511   5.503   5.612  1.6728  0.4146  0.3898
12652TIP3   OH259446   2.030   5.180  12.276 -0.0347 -0.2606  0.1454
12652TIP3    H159447   2.035   5.085  12.290  0.3025 -0.3145 -0.3209
12652TIP3    H259448   1.964   5.210  12.338 -0.3344 -0.8393  0.1112
12653TIP3   OH259449   1.577   1.678  13.038 -0.6062  0.0999 -0.2590
12653TIP3    H159450   1.580   1.583  13.053  0.3517  0.2104  0.3816
12653TIP3    H259451   1.667   1.701  13.012 -0.8666  0.8096 -0.5578
12654TIP3   OH259452   4.294   6.182   4.290 -0.2083 -0.1260 -0.0875
12654TIP3    H159453   4.217   6.239   4.293  0.9283  1.4865  0.1841
12654TIP3    H259454   4.355   6.228   4.231  1.0191 -0.7139  0.6751
12655TIP3   OH259455   0.380   4.568  15.605  0.2146 -0.4386 -0.1364
12655TIP3    H159456   0.392   4.620  15.684  1.4148 -1.1609  0.1824
12655TIP3    H259457   0.329   4.624  15.547 -0.3442  0.2540  0.9900
12656TIP3   OH259458   1.143   2.005  16.204  0.0607  0.0410 -0.4266
12656TIP3    H159459   1.075   1.969  16.147  0.0977  0.3059 -0.6426
12656TIP3    H259460   1.208   2.041  16.144 -0.3717  1.2054 -0.2264
12657TIP3   OH259461   3.259   5.098   2.047  0.2480  0.3402  0.4804
12657TIP3    H159462   3.350   5.086   2.074  0.2896  2.7540  1.6973
12657TIP3    H259463   3.217   5.137   2.124 -0.9615  2.4309 -1.1250
12658TIP3   OH259464   4.735   0.615  16.180  0.2116 -0.2190  0.5727
12658TIP3    H159465   4.806   0.567  16.138  0.7679  0.3028  0.9055
12658TIP3    H259466   4.706   0.678  16.113  0.1791 -0.3104  0.4999
12659TIP3   OH259467   2.689   1.479  14.437  0.5021  0.2960 -0.4110
12659TIP3    H159468   2.756   1.542  14.409 -0.1346  1.7246  1.1263
12659TIP3    H259469   2.726   1.393  14.415  2.9164  1.0262  0.4815
12660TIP3   OH259470   3.971   2.051   4.365 -0.1040 -0.0422  0.2515
12660TIP3    H159471   3.984   1.974   4.422 -2.1261  0.6370  1.7498
12660TIP3    H259472   3.910   2.022   4.298  0.6194 -0.2469 -0.3303
12661TIP3   OH259473   3.978   2.921   3.488  0.0003  0.1561 -1.0078
12661TIP3    H159474   3.884   2.922   3.505  0.1350 -0.5584 -0.0999
12661TIP3    H259475   3.986   2.896   3.396 -0.6641 -2.4330 -0.4291
12662TIP3   OH259476   1.427   1.792   3.024  0.0110  0.6864  0.2486
12662TIP3    H159477   1.341   1.825   3.050  1.2451  1.5862  3.7659
12662TIP3    H259478   1.469   1.867   2.981  0.0258  1.2436  1.1920
12663TIP3   OH259479   6.657   0.765  14.881  0.1878  0.0570  0.2406
12663TIP3    H159480   6.661   0.670  14.873  1.1036  0.1225 -0.2225
12663TIP3    H259481   6.566   0.783  14.903 -0.0185 -0.9193  0.2494
12664TIP3   OH259482   0.143   4.563   5.579 -1.0601  0.2773 -0.6353
12664TIP3    H159483   0.084   4.487   5.584  0.4320 -0.8660  0.5168
12664TIP3    H259484   0.121   4.614   5.657  0.8787 -1.2953  1.0428
12665TIP3   OH259485   3.664   5.269  11.456 -0.3071  0.7675 -0.0219
12665TIP3    H159486   3.674   5.310  11.370 -1.1399  0.0489 -0.4849
12665TIP3    H259487   3.686   5.338  11.518  0.5287  1.2348 -0.8118
12666TIP3   OH259488   2.061   1.809  16.873  0.1627  0.3268 -0.2642
12666TIP3    H159489   2.067   1.714  16.870  0.9149  0.3839 -1.2958
12666TIP3    H259490   2.152   1.838  16.879 -0.0767  0.9787  0.3842
12667TIP3   OH259491   6.754   6.612  13.062  0.0367  0.3498  0.0901
12667TIP3    H159492   6.780   6.700  13.035 -1.0693  1.1364  1.4552
12667TIP3    H259493   6.820   6.586  13.126  0.3868  0.1623 -0.3437
12668TIP3   OH259494   0.585   1.565  12.343  0.4243  0.4521  0.2102
12668TIP3    H159495   0.555   1.475  12.353  0.9843  0.2323 -0.0371
12668TIP3    H259496   0.678   1.557  12.322  1.4562  1.1928  3.8190
12669TIP3   OH259497   3.626   6.583  11.544 -0.0619 -0.0366  0.1932
12669TIP3    H159498   3.694   6.516  11.535 -0.4480 -0.4250  0.1370
12669TIP3    H259499   3.664   6.648  11.604  0.3713 -0.2310  0.1329
12670TIP3   OH259500   6.199   2.192  16.382 -0.3792  0.1881 -0.5327
12670TIP3    H159501   6.225   2.145  16.303  0.4581  0.2876 -0.3229
12670TIP3    H259502   6.176   2.123  16.445  0.5700  0.0412 -0.3203
12671TIP3   OH259503   5.552   4.445   0.269 -0.5390 -0.1420 -1.2288
12671TIP3    H159504   5.577   4.359   0.237 -1.0024 -0.8858  0.2912
12671TIP3    H259505   5.469   4.431   0.315 -0.5943  1.0945 -0.8933
12672TIP3   OH259506   5.714   5.819  14.475 -0.1822 -0.7265 -0.1091
12672TIP3    H159507   5.704   5.744  14.416  0.0116 -0.9434  0.1316
12672TIP3    H259508   5.719   5.781  14.562  0.3668 -0.4698 -0.0214
12673TIP3   OH259509   3.344   4.786   1.453 -0.2078  0.7632 -0.3769
12673TIP3    H159510   3.311   4.735   1.379 -0.8169 -0.6839  0.8263
12673TIP3    H259511   3.361   4.873   1.417  0.7892 -0.2414 -2.5108
12674TIP3   OH259512   6.488   0.782  16.782 -0.1929 -0.0417 -0.0160
12674TIP3    H159513   6.555   0.819  16.840  0.5124  0.7409 -1.2882
12674TIP3    H259514   6.472   0.695  16.818  0.8308  0.1038  0.8729
12675TIP3   OH259515   1.059   2.202  11.050 -0.2447 -0.7985  0.5125
12675TIP3    H159516   1.120   2.189  10.977  0.1545  0.1901  0.6553
12675TIP3    H259517   0.980   2.155  11.023 -1.8362  3.1633 -2.7018
12676TIP3   OH259518   2.510   3.389   2.096  0.3832  0.2137  0.1265
12676TIP3    H159519   2.468   3.472   2.074  0.4315  0.2355  0.1161
12676TIP3    H259520   2.586   3.384   2.037 -0.1392 -0.2783 -0.5159
12677TIP3   OH259521   1.559   6.185  17.062 -0.1570  0.5337  0.1637
12677TIP3    H159522   1.479   6.235  17.044 -1.4010 -0.9854  1.1703
12677TIP3    H259523   1.534   6.127  17.134  1.4164 -1.0642 -0.5262
12678TIP3   OH259524   6.410   3.906  15.163 -0.8835  0.4313 -0.7218
12678TIP3    H159525   6.343   3.955  15.211  0.2689  0.2393  1.2227
12678TIP3    H259526   6.449   3.971  15.104 -0.4187  1.5210  0.6978
12679TIP3   OH259527   3.258   2.536   1.558 -0.0260  0.1200 -0.1354
12679TIP3    H159528   3.167   2.539   1.587  0.1514  4.3793  0.6113
12679TIP3    H259529   3.266   2.452   1.512 -4.4182 -0.2286 -0.6487
12680TIP3   OH259530   2.131   0.803   4.658  0.7167 -0.2532 -0.4657
12680TIP3    H159531   2.217   0.779   4.694  0.2134 -0.2735  0.7627
12680TIP3    H259532   2.147   0.815   4.564  2.2585  0.6329 -0.1278
12681TIP3   OH259533   0.524   3.181   2.725 -0.1595 -0.4801 -0.1302
12681TIP3    H159534   0.498   3.165   2.816  0.5467  0.0083  0.1669
12681TIP3    H259535   0.477   3.261   2.701 -1.0760 -1.1165 -0.5144
12682TIP3   OH259536   6.752   0.665  15.800  0.0005  0.2665 -0.1711
12682TIP3    H159537   6.760   0.735  15.735 -0.1325 -1.4189 -2.0747
12682TIP3    H259538   6.658   0.652  15.810  0.0313 -0.5983 -0.9217
12683TIP3   OH259539   1.688   1.284  14.570  0.4136  0.0283 -0.1249
12683TIP3    H159540   1.600   1.322  14.565 -0.8140 -2.4478  0.7910
12683TIP3    H259541   1.682   1.219  14.640  2.5884 -1.1511 -0.9198
12684TIP3   OH259542   2.745   4.290  14.501 -1.0338  0.0955 -0.1251
12684TIP3    H159543   2.729   4.384  14.498  1.4398  0.5751 -2.4999
12684TIP3    H259544   2.744   4.263  14.409 -0.6925 -2.0257  0.4432
12685TIP3   OH259545   0.543   3.742   4.093 -0.0894 -0.0741 -0.4582
12685TIP3    H159546   0.492   3.711   4.167  2.2094  2.1445  2.3246
12685TIP3    H259547   0.633   3.717   4.114  0.8046  1.7809 -1.7754
12686TIP3   OH259548   6.192   6.368   5.407  0.8866 -0.4927  0.3871
12686TIP3    H159549   6.219   6.315   5.332  1.1586 -2.3463  1.7161
12686TIP3    H259550   6.136   6.311   5.459 -1.3986  1.5746  0.3704
12687TIP3   OH259551   2.976   4.358   4.957  0.4872  0.8884 -0.3495
12687TIP3    H159552   2.963   4.308   5.038  0.0134  1.5951  0.0245
12687TIP3    H259553   2.888   4.367   4.920  0.3182  2.6988  0.3682
12688TIP3   OH259554   0.289   2.463  12.889  0.4074 -0.2391  0.1643
12688TIP3    H159555   0.372   2.451  12.935 -0.2230  0.2177  1.4944
12688TIP3    H259556   0.228   2.490  12.958 -0.3873  1.4019 -1.1029
12689TIP3   OH259557   6.810   0.394  15.356  0.4436  0.0512 -0.3908
12689TIP3    H159558   6.818   0.490  15.353  1.9754 -0.0664 -2.8162
12689TIP3    H259559   6.784   0.370  15.267  0.9301 -1.8483 -0.0496
12690TIP3   OH259560   1.611   3.152  10.618  0.7373  0.5147  0.2421
12690TIP3    H159561   1.693   3.134  10.666  0.2258  1.1091  1.3856
12690TIP3    H259562   1.545   3.160  10.687 -0.5978 -1.4074 -0.7383
12691TIP3   OH259563   2.710   2.003  15.246  0.2679  0.2544  0.0301
12691TIP3    H159564   2.782   2.066  15.235 -1.3594  2.4594  1.0334
12691TIP3    H259565   2.663   2.006  15.163 -1.4790  2.7952  0.9498
12692TIP3   OH259566   4.767   6.192   1.372  0.2238 -0.0586 -0.2923
12692TIP3    H159567   4.825   6.200   1.447 -1.2546  2.6622  0.6816
12692TIP3    H259568   4.813   6.133   1.312  2.8649  0.1385  1.4000
12693TIP3   OH259569   2.572   3.261   0.158 -0.7932 -0.7763  0.3442
12693TIP3    H159570   2.529   3.230   0.237 -1.5662  0.0667  0.2693
12693TIP3    H259571   2.550   3.354   0.153  0.5910 -0.4525 -0.0019
12694TIP3   OH259572   6.006   3.740  15.559  0.7989 -0.8692  0.3654
12694TIP3    H159573   6.027   3.667  15.502  1.4555  0.0171 -0.5732
12694TIP3    H259574   6.083   3.750  15.615  1.9110  0.7682 -1.3449
12695TIP3   OH259575   4.288   0.176  13.708  0.1079  0.0934  0.4104
12695TIP3    H159576   4.198   0.184  13.739 -0.3612 -1.5359 -0.4054
12695TIP3    H259577   4.334   0.129  13.778  0.2709  0.6937  0.7124
12696TIP3   OH259578   2.433   4.178  15.901 -0.0476 -0.1539  0.7753
12696TIP3    H159579   2.507   4.223  15.941  0.1492  0.8087 -0.6133
12696TIP3    H259580   2.356   4.215  15.945  0.2008  0.2361  0.8849
12697TIP3   OH259581   6.100   5.525   6.358 -0.2939  0.2256  0.3827
12697TIP3    H159582   6.138   5.459   6.300 -0.3372  1.1739 -0.7550
12697TIP3    H259583   6.006   5.522   6.338 -0.4194  0.0202  0.9793
12698TIP3   OH259584   6.755   1.433  12.935  0.4760  1.0069 -0.0835
12698TIP3    H159585   6.685   1.417  12.998  0.7558 -1.0315 -0.2218
12698TIP3    H259586   6.778   1.346  12.901 -0.2522  2.0403 -3.6500
12699TIP3   OH259587   3.661   5.704   4.368  0.0895  0.0926 -0.0165
12699TIP3    H159588   3.728   5.702   4.436 -0.1570 -2.3911  0.2127
12699TIP3    H259589   3.710   5.707   4.286  0.4930 -0.8642  0.1767
12700TIP3   OH259590   2.218   3.595  11.141 -0.7265 -0.1952  0.1890
12700TIP3    H159591   2.167   3.538  11.084 -0.2987  0.3182 -0.7346
12700TIP3    H259592   2.153   3.635  11.199 -1.0706 -1.3213  0.6022
12701TIP3   OH259593   5.476   4.985  17.189  0.3919 -0.2722 -0.0221
12701TIP3    H159594   5.510   4.919  17.250  0.5552 -0.1984 -0.0355
12701TIP3    H259595   5.382   4.965  17.183  0.4690 -0.5942 -0.1402
12702TIP3   OH259596   5.220   5.850  14.052  0.4349 -0.9350  0.4649
12702TIP3    H159597   5.271   5.803  14.118  1.1778  0.7464  1.1359
12702TIP3    H259598   5.178   5.921  14.100  0.9429  0.2947 -0.8437
12703TIP3   OH259599   5.944   4.910  12.902 -0.2542 -0.1656 -0.0763
12703TIP3    H159600   5.862   4.954  12.878 -0.9413 -1.0152  0.6266
12703TIP3    H259601   5.961   4.850  12.829  1.7912  2.5798 -2.0645
12704TIP3   OH259602   4.408   4.021  13.436  0.6302 -0.4689 -0.3294
12704TIP3    H159603   4.437   3.972  13.513  2.1881  1.8003  0.6429
12704TIP3    H259604   4.314   4.002  13.429  0.6051 -1.3348  1.6647
12705TIP3   OH259605   1.943   2.351   2.707 -0.4445  0.5401 -0.3657
12705TIP3    H159606   1.890   2.427   2.684 -2.0738 -0.7927 -1.1501
12705TIP3    H259607   1.880   2.285   2.734  0.9890 -0.3340  1.0039
12706TIP3   OH259608   1.553   4.767   4.306  0.0005  0.0596 -0.3796
12706TIP3    H159609   1.466   4.728   4.297  0.6013 -1.0556 -1.6448
12706TIP3    H259610   1.541   4.839   4.368 -1.8003 -0.1312 -0.4706
12707TIP3   OH259611   0.894   3.528  12.314  0.1561 -0.0438  0.5313
12707TIP3    H159612   0.811   3.481  12.323  0.3742 -0.2327  1.6504
12707TIP3    H259613   0.899   3.549  12.221 -0.9944 -0.3101  0.3941
12708TIP3   OH259614   4.069   3.815   0.149 -0.0191  0.9597 -0.7281
12708TIP3    H159615   3.996   3.752   0.149  0.3620  0.5162 -1.3217
12708TIP3    H259616   4.050   3.873   0.076  0.4352  0.5954 -1.1371
12709TIP3   OH259617   0.447   4.057  14.361 -0.2951  0.2325 -0.7314
12709TIP3    H159618   0.425   4.124  14.425  2.0476  0.5315 -0.1778
12709TIP3    H259619   0.392   3.982  14.385  0.0395  0.5649  1.1981
12710TIP3   OH259620   2.216   3.431  10.833  0.3556 -0.0615 -0.0469
12710TIP3    H159621   2.195   3.520  10.807 -1.7152 -0.1430  1.0957
12710TIP3    H259622   2.135   3.398  10.873  1.1056 -2.3920 -0.2836
12711TIP3   OH259623   6.603   1.565   0.329  0.1651  0.1137  0.8924
12711TIP3    H159624   6.561   1.643   0.294  0.1548  0.1770  1.0475
12711TIP3    H259625   6.584   1.567   0.423 -0.1723 -0.2821  0.8366
12712TIP3   OH259626   2.024   1.959   0.190  0.0903  0.0001 -0.3934
12712TIP3    H159627   2.098   1.919   0.144 -1.4329  0.1037 -3.1585
12712TIP3    H259628   1.962   1.887   0.203 -0.4847  0.4408 -0.6481
12713TIP3   OH259629   0.223   0.688  12.845 -0.5446 -0.0986 -0.3898
12713TIP3    H159630   0.151   0.706  12.906  0.7419 -0.3518  1.2868
12713TIP3    H259631   0.222   0.593  12.836  1.0239 -0.3941  1.6358
12714TIP3   OH259632   3.981   4.873   1.136 -0.5748 -0.2212  0.7119
12714TIP3    H159633   3.972   4.959   1.095 -1.9644  0.0778  1.6038
12714TIP3    H259634   3.933   4.814   1.078  0.0350 -0.3459  0.3185
12715TIP3   OH259635   4.227   2.640   4.673 -0.0914 -0.2246 -0.2155
12715TIP3    H159636   4.321   2.634   4.694 -0.3237  1.2376  1.5068
12715TIP3    H259637   4.220   2.602   4.586  1.9754 -1.1351 -0.0588
12716TIP3   OH259638   6.457   1.437   2.178  0.1730 -0.1511 -0.1042
12716TIP3    H159639   6.365   1.443   2.153  0.0322  1.0710  0.6237
12716TIP3    H259640   6.495   1.520   2.149 -0.1501  1.7207  4.1643
12717TIP3   OH259641   4.144   3.408  16.897  0.5926  0.6366 -0.0337
12717TIP3    H159642   4.196   3.418  16.817  1.9216  1.8435  0.9430
12717TIP3    H259643   4.056   3.385  16.865  1.9390 -2.8471 -1.6934
12718TIP3   OH259644   2.865   6.055   5.172  0.3833 -0.6080  0.0508
12718TIP3    H159645   2.871   6.146   5.200 -0.7174 -0.1048 -1.2238
12718TIP3    H259646   2.901   6.005   5.245  0.3706  0.8050  1.0702
12719TIP3   OH259647   5.286   2.787  13.644 -0.4475  0.9773  0.4079
12719TIP3    H159648   5.353   2.829  13.698  0.7128  1.3925 -1.2812
12719TIP3    H259649   5.309   2.694  13.646  0.6498  1.2117 -0.7716
12720TIP3   OH259650   1.300   0.320  16.736  0.9129 -0.5170 -0.4090
12720TIP3    H159651   1.257   0.248  16.782  0.4008 -1.6335 -2.4956
12720TIP3    H259652   1.385   0.330  16.780  0.4551 -1.5121  0.7453
12721TIP3   OH259653   2.021   2.294   6.355  0.3330 -0.7595 -0.6068
12721TIP3    H159654   2.036   2.199   6.361  0.5952 -0.7644 -1.2730
12721TIP3    H259655   1.933   2.306   6.391  1.4353 -0.8562  2.4923
12722TIP3   OH259656   2.364   2.060  14.778  0.1999 -0.6198 -0.1615
12722TIP3    H159657   2.450   2.060  14.820  0.5683  0.9495 -0.8325
12722TIP3    H259658   2.383   2.038  14.686 -0.0392  0.2249 -0.4196
12723TIP3   OH259659   3.483   2.770  16.166 -0.1121 -0.7044 -0.3034
12723TIP3    H159660   3.451   2.684  16.139  0.6772 -1.4436  0.9880
12723TIP3    H259661   3.526   2.806  16.088  2.0300 -2.7204 -0.1602
12724TIP3   OH259662   6.688   6.294  11.960  0.0718 -0.2916  0.3313
12724TIP3    H159663   6.783   6.289  11.952  0.3252  1.9740  1.4202
12724TIP3    H259664   6.663   6.211  12.000  1.6503 -0.6487  0.6280
12725TIP3   OH259665   0.055   2.452  15.557  0.7285  0.5846  0.1942
12725TIP3    H159666   0.026   2.405  15.479  1.2949  0.3011  0.1424
12725TIP3    H259667   0.023   2.541  15.545 -0.5673  0.1613  0.4037
12726TIP3   OH259668   0.630   1.721  12.925 -0.2664 -0.7819 -0.1020
12726TIP3    H159669   0.715   1.739  12.884 -0.9732  0.3447 -1.1444
12726TIP3    H259670   0.566   1.749  12.859 -1.4834  1.4847  1.9017
12727TIP3   OH259671   0.825   5.446  14.130 -0.2466 -0.2176 -0.1300
12727TIP3    H159672   0.804   5.524  14.182  1.5968  0.2186  0.0318
12727TIP3    H259673   0.869   5.388  14.192  3.9390  1.1561 -1.4818
12728TIP3   OH259674   6.642   4.121  11.500 -0.2028 -0.5512  0.5206
12728TIP3    H159675   6.597   4.125  11.416 -1.1413  1.5306  1.0559
12728TIP3    H259676   6.636   4.030  11.527  0.0884 -1.2619 -1.6205
12729TIP3   OH259677   1.390   1.913   5.932 -0.5127  0.2079 -0.2396
12729TIP3    H159678   1.318   1.892   5.992  0.4757  0.1743  0.9988
12729TIP3    H259679   1.448   1.837   5.936  0.0746  0.6319 -0.4492
12730TIP3   OH259680   5.735   1.620  15.366 -0.3537  0.2760 -0.0280
12730TIP3    H159681   5.747   1.714  15.354 -0.4064  0.1657 -1.0021
12730TIP3    H259682   5.798   1.597  15.435  0.6954  0.7773 -0.7837
12731TIP3   OH259683   1.440   3.011   2.302 -0.7193  0.4681  0.3538
12731TIP3    H159684   1.480   2.947   2.244 -3.1404 -2.0836  1.2907
12731TIP3    H259685   1.416   3.084   2.244  1.6100  0.3733 -0.8412
12732TIP3   OH259686   4.338   4.039  14.319  0.1241 -0.5216 -0.2762
12732TIP3    H159687   4.353   4.088  14.239  0.2639 -0.9806 -0.5361
12732TIP3    H259688   4.277   4.092  14.369  0.5461  0.0837 -0.3963
12733TIP3   OH259689   3.635   3.325  11.307  0.0930 -0.1556  0.0183
12733TIP3    H159690   3.718   3.279  11.296  0.5268  0.3969  0.8791
12733TIP3    H259691   3.626   3.336  11.401 -1.2562 -0.7243 -0.0193
12734TIP3   OH259692   4.527   5.023  16.991 -0.1350 -0.3519 -0.3676
12734TIP3    H159693   4.588   5.057  16.926  0.6527 -0.9663  0.0284
12734TIP3    H259694   4.449   5.078  16.983 -0.0662 -0.4471 -1.8411
12735TIP3   OH259695   1.014   1.608  15.326  0.2054 -0.6460  0.7270
12735TIP3    H159696   1.074   1.541  15.358 -0.9379 -1.7804  0.5645
12735TIP3    H259697   0.941   1.606  15.388  0.4812  0.9892  1.1516
12736TIP3   OH259698   3.853   5.447  13.815  0.0367 -0.0015  0.0726
12736TIP3    H159699   3.835   5.522  13.759 -0.1499 -0.2493 -0.1973
12736TIP3    H259700   3.773   5.434  13.866  0.3811  0.5480  0.7824
12737TIP3   OH259701   6.198   5.728   3.744  0.5328 -0.2152  0.2161
12737TIP3    H159702   6.293   5.727   3.736  0.6103  0.8269  0.8174
12737TIP3    H259703   6.173   5.636   3.754  1.6490 -0.3804  1.8310
12738TIP3   OH259704   5.802   1.820   4.222 -0.6027 -0.1147 -0.0042
12738TIP3    H159705   5.858   1.873   4.164 -1.2812 -0.9183 -1.4359
12738TIP3    H259706   5.863   1.762   4.268 -0.3257 -3.3343 -3.9391
12739TIP3   OH259707   4.741   0.495   2.290  0.4272 -0.4892 -0.0918
12739TIP3    H159708   4.759   0.518   2.381  1.0199  0.8843 -0.5221
12739TIP3    H259709   4.755   0.401   2.285  2.1511 -0.3192  0.8684
12740TIP3   OH259710   2.997   1.850  11.686 -0.1636  0.2588  0.1762
12740TIP3    H159711   2.958   1.938  11.683  0.8209  0.7187  0.2635
12740TIP3    H259712   2.929   1.792  11.654 -0.3882  1.2354 -1.2270
12741TIP3   OH259713   4.291   0.908  12.066  0.0623 -0.0888  0.3142
12741TIP3    H159714   4.354   0.883  11.998  0.4925  0.9318  0.3266
12741TIP3    H259715   4.301   0.840  12.133  1.5631  0.3458  0.5697
12742TIP3   OH259716   4.432   4.117   2.935 -0.1075  0.3360  0.2172
12742TIP3    H159717   4.463   4.060   3.006  1.2081  0.5597 -0.1615
12742TIP3    H259718   4.506   4.174   2.915 -0.6481  0.6599 -0.9619
12743TIP3   OH259719   6.706   0.891  15.609  0.2312 -0.2058 -0.0560
12743TIP3    H159720   6.664   0.937  15.682 -0.5617 -1.7991  0.5320
12743TIP3    H259721   6.638   0.835  15.573  1.4853 -1.9254  0.1134
12744TIP3   OH259722   5.547   4.975   1.575 -0.3138  0.3856 -0.2815
12744TIP3    H159723   5.565   5.067   1.558 -2.2250  1.0045  0.7799
12744TIP3    H259724   5.553   4.966   1.670 -0.1529 -0.5833 -0.3703
12745TIP3   OH259725   5.064   2.200  11.464  0.5877  0.6345 -0.3587
12745TIP3    H159726   4.973   2.223  11.445  1.1602  2.1162 -1.5150
12745TIP3    H259727   5.116   2.264  11.414  2.2801 -1.0439 -0.8640
12746TIP3   OH259728   0.413   6.363   1.868 -0.2035 -0.5272 -0.2475
12746TIP3    H159729   0.473   6.312   1.815  2.6218  3.2703 -1.1475
12746TIP3    H259730   0.358   6.409   1.805  0.2004  0.6900  0.2551
12747TIP3   OH259731   1.341   0.791  11.200  0.0909 -0.2696  0.3604
12747TIP3    H159732   1.428   0.753  11.189 -0.3526 -1.4711  0.8978
12747TIP3    H259733   1.290   0.724  11.246 -1.2175  0.2909 -0.2146
12748TIP3   OH259734   1.655   6.087   0.263  0.0269  0.1343  0.0089
12748TIP3    H159735   1.732   6.031   0.250 -0.8119 -0.7457 -1.3705
12748TIP3    H259736   1.674   6.134   0.345  2.0462 -0.0091 -0.3108
12749TIP3   OH259737   2.704   5.410   4.722 -0.2520  0.7781  0.0646
12749TIP3    H159738   2.697   5.444   4.633 -1.1349  0.4899  0.0145
12749TIP3    H259739   2.614   5.393   4.749  0.1086 -1.1612  0.2193
12750TIP3   OH259740   4.714   4.699   4.609  0.2021  0.4463  0.1256
12750TIP3    H159741   4.642   4.757   4.633 -1.0678 -0.3619 -1.5536
12750TIP3    H259742   4.698   4.619   4.661  0.8721  0.8578  0.9998
12751TIP3   OH259743   5.843   1.042  11.821  0.0803  0.4728 -0.3275
12751TIP3    H159744   5.797   1.064  11.902 -0.0062  0.1090 -0.2737
12751TIP3    H259745   5.930   1.015  11.850 -0.4360 -1.1708 -0.1976
12752TIP3   OH259746   1.696   2.898   0.399 -0.0532 -0.3231  0.5261
12752TIP3    H159747   1.700   2.934   0.310 -0.6386 -1.2092  0.1201
12752TIP3    H259748   1.769   2.940   0.445  0.3031  0.1050 -0.3890
12753TIP3   OH259749   4.354   2.524  14.320 -0.2191 -0.1369 -0.2699
12753TIP3    H159750   4.287   2.592  14.311  1.5827  1.7673 -0.0409
12753TIP3    H259751   4.403   2.548  14.398  0.5080 -1.7280 -0.1892
12754TIP3   OH259752   6.541   5.221   6.344 -0.5184  0.4658 -0.1544
12754TIP3    H159753   6.463   5.189   6.389 -0.4438  0.6131  0.0824
12754TIP3    H259754   6.563   5.302   6.389 -0.7719  0.9137 -0.8147
12755TIP3   OH259755   0.972   5.835   5.380  0.4036  0.3565 -0.1580
12755TIP3    H159756   0.909   5.842   5.308 -0.0936 -1.2571  0.0804
12755TIP3    H259757   1.046   5.888   5.352  0.6428 -1.0034 -2.3425
12756TIP3   OH259758   1.224   0.807   0.354  0.1227 -0.3012 -0.3027
12756TIP3    H159759   1.229   0.821   0.260  0.4768  1.0007 -0.1037
12756TIP3    H259760   1.280   0.731   0.371  0.2665 -0.3750 -1.1021
12757TIP3   OH259761   0.191   4.467  13.414 -0.3162  0.5220  0.2756
12757TIP3    H159762   0.108   4.420  13.424  0.8009 -2.2307 -2.1113
12757TIP3    H259763   0.166   4.559  13.410 -2.8614  0.0850  2.9764
12758TIP3   OH259764   4.509   4.609   2.275  0.0204 -0.0922  0.3139
12758TIP3    H159765   4.453   4.663   2.330  0.9070 -0.6804  1.8563
12758TIP3    H259766   4.521   4.661   2.195 -2.3228  0.2125  0.1016
12759TIP3   OH259767   2.191   0.175   2.042 -0.4107  0.6164 -0.2657
12759TIP3    H159768   2.227   0.256   2.077 -0.8244  1.1881 -1.1050
12759TIP3    H259769   2.250   0.152   1.969  0.4641 -0.5717  0.7785
12760TIP3   OH259770   3.461   5.917  11.126 -0.0892  0.1965 -0.7605
12760TIP3    H159771   3.494   5.892  11.040  2.3591  0.1685  0.0954
12760TIP3    H259772   3.521   5.986  11.155 -1.0843  0.4711  0.7656
12761TIP3   OH259773   5.791   1.921   4.994 -0.4167 -0.6175  0.0285
12761TIP3    H159774   5.702   1.901   4.966 -0.0392 -1.0995 -0.8775
12761TIP3    H259775   5.827   1.973   4.922 -0.2632  0.3954  0.8113
12762TIP3   OH259776   4.119   5.618   4.055  0.8615 -0.0648 -0.5170
12762TIP3    H159777   4.081   5.550   3.998 -0.5619  0.0310  0.2649
12762TIP3    H259778   4.079   5.699   4.025 -1.4693 -0.2282  1.7516
12763TIP3   OH259779   0.855   0.043  13.803 -0.6266  1.0227 -0.0979
12763TIP3    H159780   0.920   0.004  13.862 -0.6767  1.2991  0.1413
12763TIP3    H259781   0.772   0.002  13.827 -0.3380 -0.3725 -1.3332
12764TIP3   OH259782   4.083   5.457  11.957  0.7265 -0.1839 -0.9776
12764TIP3    H159783   4.025   5.407  11.900  0.2531 -0.6502 -0.1054
12764TIP3    H259784   4.171   5.425  11.935  0.4001 -1.9639  0.0331
12765TIP3   OH259785   5.592   5.475  13.190 -0.1607  0.4675 -0.0475
12765TIP3    H159786   5.616   5.422  13.113  2.5751  0.9212  0.3997
12765TIP3    H259787   5.655   5.450  13.257 -0.8217  2.0096  1.2136
12766TIP3   OH259788   1.065   2.320   3.734 -0.4800 -0.5954 -0.1342
12766TIP3    H159789   0.971   2.333   3.735 -0.5266  0.2905  4.4220
12766TIP3    H259790   1.078   2.234   3.775  0.6239  0.2141  1.3379
12767TIP3   OH259791   6.554   2.348   3.575  0.0204  0.4516  0.1905
12767TIP3    H159792   6.597   2.410   3.516 -1.0585  0.4927 -0.5789
12767TIP3    H259793   6.533   2.399   3.653 -2.2413  1.5060 -1.0409
12768TIP3   OH259794   1.844   4.066   5.247 -0.3980  0.3218 -0.4469
12768TIP3    H159795   1.923   4.103   5.207  0.6648 -1.9803 -0.6636
12768TIP3    H259796   1.803   4.140   5.292  0.5611  2.1124 -2.3549
12769TIP3   OH259797   4.525   6.327  11.047  0.5314  0.4855  0.4137
12769TIP3    H159798   4.546   6.244  11.004  0.3279  0.5745  0.1357
12769TIP3    H259799   4.449   6.308  11.101 -0.9234  0.9910 -1.3592
12770TIP3   OH259800   2.833   2.495   2.682 -0.9377  0.4306 -0.0311
12770TIP3    H159801   2.830   2.470   2.774 -0.0007 -2.6077 -0.6952
12770TIP3    H259802   2.743   2.483   2.651 -0.9460 -0.0518  0.1709
12771TIP3   OH259803   6.619   2.633  11.885 -0.3801 -0.0768 -0.3556
12771TIP3    H159804   6.566   2.690  11.941  0.6727 -0.9085  1.6043
12771TIP3    H259805   6.620   2.677  11.800 -1.5001  1.6192  0.4470
12772TIP3   OH259806   5.438   1.985  16.106 -0.0998 -0.5824  0.0612
12772TIP3    H159807   5.508   1.922  16.125  1.2640  1.6440  3.3969
12772TIP3    H259808   5.451   2.009  16.014  3.2024 -0.7558  0.3672
12773TIP3   OH259809   5.300   6.054   2.893  0.1934  0.5985 -0.1156
12773TIP3    H159810   5.313   6.067   2.799 -0.1405  0.5209 -0.1723
12773TIP3    H259811   5.389   6.040   2.927  0.3166  0.6244 -0.4176
12774TIP3   OH259812   2.700   4.062  13.040  0.0810  0.1927  0.3740
12774TIP3    H159813   2.721   3.969  13.030  2.1974  0.6178  0.3300
12774TIP3    H259814   2.781   4.107  13.017 -1.3029  2.1431 -0.9209
12775TIP3   OH259815   5.952   0.263   1.183 -0.6804 -0.3211 -0.9848
12775TIP3    H159816   5.946   0.207   1.260 -0.5486  0.3277 -0.4951
12775TIP3    H259817   5.971   0.350   1.218 -3.5359  0.6112 -1.5236
12776TIP3   OH259818   2.216   2.027  11.553 -0.0721  0.1337 -0.3860
12776TIP3    H159819   2.133   2.074  11.555  0.2119  0.6324  1.9666
12776TIP3    H259820   2.283   2.095  11.551  0.3245 -0.2568 -1.1474
12777TIP3   OH259821   4.347   0.488   4.305 -0.1526  0.3092  0.1605
12777TIP3    H159822   4.393   0.452   4.381 -1.7011  0.5546  1.2445
12777TIP3    H259823   4.417   0.529   4.253  0.8816  0.6229  1.7225
12778TIP3   OH259824   5.290   1.530   6.619 -0.4044 -0.3680  0.6313
12778TIP3    H159825   5.380   1.560   6.624 -0.2425 -0.1390 -1.9975
12778TIP3    H259826   5.296   1.447   6.571 -1.5594 -0.3808  0.4808
12779TIP3   OH259827   0.305   3.314   5.020  0.4256  0.1198 -0.4820
12779TIP3    H159828   0.397   3.292   5.003  0.4083  1.3336 -2.4891
12779TIP3    H259829   0.264   3.315   4.933 -1.6489 -0.9478  0.4122
12780TIP3   OH259830   1.288   2.702  16.177  0.0206 -0.0822  0.9939
12780TIP3    H159831   1.240   2.619  16.170  1.3366 -0.7548 -0.7411
12780TIP3    H259832   1.225   2.769  16.150  0.1081 -1.0002 -1.8019
12781TIP3   OH259833   3.799   1.332   0.084  0.1382  0.4666 -0.2766
12781TIP3    H159834   3.888   1.349   0.116 -0.3857 -1.2501  2.3371
12781TIP3    H259835   3.803   1.355  -0.009  2.9126  1.7756  0.0609
12782TIP3   OH259836   4.710   6.786  14.249 -0.3678  0.3573  0.2227
12782TIP3    H159837   4.717   6.692  14.267 -0.1564  0.5766  1.3859
12782TIP3    H259838   4.621   6.798  14.216  0.0649 -0.4493 -1.3188
12783TIP3   OH259839   3.752   0.393  16.853 -0.2296 -0.0821 -0.3299
12783TIP3    H159840   3.693   0.446  16.906 -1.4625 -0.4688 -1.2644
12783TIP3    H259841   3.726   0.302  16.871 -0.0880 -0.2466 -0.9335
12784TIP3   OH259842   0.905   3.187   4.521  0.2647  0.0160  0.4580
12784TIP3    H159843   0.936   3.180   4.611  2.4799  0.1525 -0.2474
12784TIP3    H259844   0.863   3.102   4.504 -2.1085  0.7184  2.2157
12785TIP3   OH259845   0.561   0.470   4.651 -0.5047  0.9770 -0.5888
12785TIP3    H159846   0.524   0.545   4.605 -1.7114  0.0847 -1.1354
12785TIP3    H259847   0.501   0.398   4.631  0.9082 -0.2583 -0.5128
12786TIP3   OH259848   6.407   5.987  14.866  0.6383  0.0785  0.6548
12786TIP3    H159849   6.483   5.934  14.841  0.7368 -0.1770  1.4641
12786TIP3    H259850   6.369   6.016  14.782  1.5131  0.0549  0.2413
12787TIP3   OH259851   1.357   5.889  13.462 -0.4168  0.4539 -0.1454
12787TIP3    H159852   1.365   5.797  13.488 -1.9149 -0.3012 -2.0596
12787TIP3    H259853   1.408   5.937  13.527  2.7414 -1.9216 -0.6356
12788TIP3   OH259854   5.602   0.434  12.364  1.1296 -0.2480  0.0159
12788TIP3    H159855   5.653   0.448  12.444 -0.3097 -0.7294  1.0576
12788TIP3    H259856   5.643   0.358  12.323  2.6300  0.7308 -0.3692
12789TIP3   OH259857   1.722   4.367  14.066  0.4039 -0.1757  1.0999
12789TIP3    H159858   1.805   4.330  14.037  0.1087  0.1807 -0.2677
12789TIP3    H259859   1.731   4.375  14.161  1.1638 -1.9968  1.2057
12790TIP3   OH259860   4.969   5.186  11.988  0.0513  0.2579  0.0940
12790TIP3    H159861   4.994   5.276  11.968 -1.0494  0.2842 -1.2847
12790TIP3    H259862   4.979   5.139  11.906 -3.4796  0.1120 -0.4208
12791TIP3   OH259863   2.453   0.584   1.325 -0.0248  0.5486 -0.0834
12791TIP3    H159864   2.406   0.668   1.318 -0.0794  0.4990 -0.3092
12791TIP3    H259865   2.542   0.604   1.296  0.4582  0.9373  1.5084
12792TIP3   OH259866   1.611   5.377  15.051  0.5276  0.2049  0.2182
12792TIP3    H159867   1.688   5.339  15.092 -0.4246 -1.5096  0.5322
12792TIP3    H259868   1.609   5.338  14.963  0.3180  0.6609  0.0150
12793TIP3   OH259869   4.540   0.658   2.815 -0.5237 -0.1224 -0.3395
12793TIP3    H159870   4.594   0.721   2.862  0.4994 -0.2505 -1.3002
12793TIP3    H259871   4.455   0.702   2.806 -0.0501  0.8278 -0.3580
12794TIP3   OH259872   5.746   1.249  17.228 -0.2268  0.0377 -0.4618
12794TIP3    H159873   5.824   1.297  17.202 -0.0407 -1.4241 -2.8934
12794TIP3    H259874   5.696   1.311  17.281  2.8659  0.7880  1.8978
12795TIP3   OH259875   4.658   1.401  14.259  0.0940  0.0621  1.2469
12795TIP3    H159876   4.736   1.436  14.216  0.1197  0.8114  1.8796
12795TIP3    H259877   4.665   1.306  14.249  1.9114  0.0015  2.6587
12796TIP3   OH259878   2.506   5.270   4.259  0.2557  0.3413  0.1169
12796TIP3    H159879   2.431   5.289   4.315  0.4033  0.1880  0.3675
12796TIP3    H259880   2.470   5.269   4.170 -0.3165 -1.1157  0.3386
12797TIP3   OH259881   0.007   3.412  14.431  0.2462  0.6440 -0.3401
12797TIP3    H159882   0.086   3.464  14.443  0.9090 -0.3345 -0.3950
12797TIP3    H259883  -0.011   3.375  14.517 -0.8563  1.8103 -0.0348
12798TIP3   OH259884   4.098   1.341   4.818 -1.0800  0.9872  0.1883
12798TIP3    H159885   4.097   1.257   4.865 -0.0768  1.6441  1.4411
12798TIP3    H259886   4.124   1.318   4.729  0.0707  0.0547  0.7315
12799TIP3   OH259887   0.319   4.375  16.390  0.0395  0.5945 -0.3335
12799TIP3    H159888   0.309   4.465  16.359  0.6571  1.7771  2.5953
12799TIP3    H259889   0.408   4.371  16.424 -0.8848 -0.1822  2.2053
12800TIP3   OH259890   4.476   6.646   4.091 -0.5402 -0.2644 -0.6807
12800TIP3    H159891   4.479   6.664   4.185 -1.0714 -2.1699 -0.2656
12800TIP3    H259892   4.463   6.732   4.051 -2.3741  0.3721  1.1089
12801TIP3   OH259893   5.889   1.644   5.861 -0.0788 -0.4126 -0.2059
12801TIP3    H159894   5.920   1.553   5.862 -3.1676 -1.5920  0.6153
12801TIP3    H259895   5.829   1.648   5.787 -0.7436  0.6696  0.3645
12802TIP3   OH259896   2.090   1.060   5.035  0.1343  0.1871  0.0212
12802TIP3    H159897   2.012   1.081   4.985  0.1777  1.0660  0.3080
12802TIP3    H259898   2.062   0.992   5.097 -0.6125  1.0759  0.6759
12803TIP3   OH259899   0.121   3.125   3.532  0.3849  0.4009  0.3874
12803TIP3    H159900   0.092   3.035   3.521 -1.7297  1.0829 -0.0522
12803TIP3    H259901   0.107   3.166   3.447 -1.7517  1.9046  1.3642
12804TIP3   OH259902   3.717   6.621   0.633  0.1216  0.2658 -0.3251
12804TIP3    H159903   3.748   6.701   0.676 -0.5159  1.0601 -1.3039
12804TIP3    H259904   3.673   6.652   0.554  0.6401 -1.1121 -1.1868
12805TIP3   OH259905   0.789   4.025  10.972  0.4662 -0.4910 -0.2201
12805TIP3    H159906   0.880   4.002  10.954  0.9357  0.5246  0.7208
12805TIP3    H259907   0.773   4.104  10.920 -0.3844 -1.4987 -1.5731
12806TIP3   OH259908   1.669   3.562  13.700 -0.2960  0.2605  0.5965
12806TIP3    H159909   1.754   3.598  13.726 -1.1105  1.0221  2.3184
12806TIP3    H259910   1.629   3.532  13.782 -1.8442  0.2405 -0.1316
12807TIP3   OH259911   6.460   5.140   1.598  0.0207 -0.4388  0.4231
12807TIP3    H159912   6.417   5.165   1.516  1.1268 -1.9273 -0.6654
12807TIP3    H259913   6.512   5.217   1.622  1.9690 -0.9009 -1.9039
12808TIP3   OH259914   2.127   1.394   3.257 -0.5517 -0.5500 -1.0351
12808TIP3    H159915   2.157   1.483   3.275  0.4165 -1.0735  0.0309
12808TIP3    H259916   2.047   1.406   3.205  0.2378  0.9188 -1.9893
12809TIP3   OH259917   5.071   3.091  16.018 -0.4088 -0.0056 -0.3903
12809TIP3    H159918   5.069   3.105  16.112  1.2982 -1.3818 -0.1154
12809TIP3    H259919   5.005   3.023  16.003 -0.1453 -0.3290 -0.0881
12810TIP3   OH259920   3.158   6.047   4.904  0.8330  0.2461  0.0186
12810TIP3    H159921   3.216   6.072   4.831  0.9989 -1.0046 -0.3082
12810TIP3    H259922   3.152   6.126   4.958  1.3413  0.9640 -0.9313
12811TIP3   OH259923   1.222   5.148  14.403 -0.2835  0.2796 -0.2663
12811TIP3    H159924   1.267   5.127  14.322  2.1282  0.1659  1.0064
12811TIP3    H259925   1.172   5.069  14.424  1.6736 -0.9550 -0.0308
12812TIP3   OH259926   3.081   5.351   1.033 -0.0524 -0.1049  0.1688
12812TIP3    H159927   3.114   5.282   1.089 -1.1286 -0.1792  0.7283
12812TIP3    H259928   3.156   5.409   1.019  0.6508 -0.9688  0.3208
12813TIP3   OH259929   3.712   1.781  16.394  0.0342  0.5788 -0.0730
12813TIP3    H159930   3.638   1.720  16.385  0.7156 -0.1047 -1.3338
12813TIP3    H259931   3.673   1.868  16.385 -0.5207  0.2016 -1.6336
12814TIP3   OH259932   5.821   0.467  15.645  0.3283 -0.2072 -0.0187
12814TIP3    H159933   5.773   0.547  15.667 -3.0887 -1.9623 -0.3043
12814TIP3    H259934   5.792   0.403  15.710  2.5813 -1.3855 -0.0787
12815TIP3   OH259935   1.785   5.575   3.373 -1.1050 -0.1260 -0.2721
12815TIP3    H159936   1.751   5.609   3.290  1.5710 -0.3165 -1.5335
12815TIP3    H259937   1.879   5.590   3.368 -0.6559 -1.7798  1.9910
12816TIP3   OH259938   4.760   0.479  16.625 -0.0335  0.2413  0.0830
12816TIP3    H159939   4.743   0.386  16.610 -0.5146  0.2587  0.4994
12816TIP3    H259940   4.846   0.481  16.666  0.1825  0.0152 -0.3525
12817TIP3   OH259941   6.230   5.017   1.691 -0.4043  0.4351 -0.8685
12817TIP3    H159942   6.204   4.991   1.602 -0.9120  0.5447 -0.7520
12817TIP3    H259943   6.287   5.093   1.678 -2.1754  1.7908 -0.9989
12818TIP3   OH259944   1.261   0.906  13.691  0.4479  0.2924  0.8031
12818TIP3    H159945   1.336   0.857  13.657 -0.0541 -0.4927  0.8075
12818TIP3    H259946   1.264   0.892  13.786 -0.4002 -0.7954  0.7022
12819TIP3   OH259947   2.659   5.841  13.138 -0.7241  0.2506  0.0694
12819TIP3    H159948   2.724   5.896  13.095  2.7105 -2.5847  1.1434
12819TIP3    H259949   2.645   5.882  13.223  1.3761 -0.0942  0.6444
12820TIP3   OH259950   4.860   2.564   2.094 -0.8034  0.4548 -0.0314
12820TIP3    H159951   4.786   2.620   2.116  0.1750  0.9680  2.2116
12820TIP3    H259952   4.823   2.476   2.090 -1.6770  0.7969  0.2578
12821TIP3   OH259953   2.315   6.013  16.998  0.2674 -0.4715 -0.7436
12821TIP3    H159954   2.340   6.082  17.060  1.7620 -0.6043 -1.1423
12821TIP3    H259955   2.268   6.059  16.928  1.4132  0.2102 -1.0968
12822TIP3   OH259956   0.806   5.743  10.975 -0.1097 -0.0385  0.0272
12822TIP3    H159957   0.875   5.803  10.947  0.5419  0.3747  2.3514
12822TIP3    H259958   0.757   5.791  11.042 -1.6087 -0.9619 -0.3414
12823TIP3   OH259959   1.590   4.526  15.771 -0.2352 -0.3596  0.2768
12823TIP3    H159960   1.544   4.480  15.701  1.9845 -0.6640 -1.0864
12823TIP3    H259961   1.534   4.600  15.793 -2.0690 -1.5452 -0.1687
12824TIP3   OH259962   5.514   5.963  11.398  0.8963 -0.5838 -0.3340
12824TIP3    H159963   5.462   5.883  11.395  0.7805 -0.6039  1.3631
12824TIP3    H259964   5.452   6.032  11.421  1.5799 -0.6415  1.9211
12825TIP3   OH259965   5.573   3.325   5.004 -0.4018 -0.0447  0.4794
12825TIP3    H159966   5.531   3.258   5.057  0.5810  0.2143  1.6244
12825TIP3    H259967   5.598   3.394   5.066  0.7861  0.2647 -0.2919
12826TIP3   OH259968   3.318   5.817  13.690  0.0715 -0.1231  0.0698
12826TIP3    H159969   3.306   5.801  13.783  0.4586  1.4959  0.4287
12826TIP3    H259970   3.231   5.843  13.659 -0.4481 -2.2341 -0.4144
12827TIP3   OH259971   2.036   1.131  15.788  0.7923 -0.0062  0.3478
12827TIP3    H159972   2.012   1.211  15.836  0.6658  0.7751 -0.9707
12827TIP3    H259973   2.127   1.144  15.764  0.8561 -0.3939  0.3814
12828TIP3   OH259974   5.194   2.540  14.798 -0.0718  0.3874 -0.2316
12828TIP3    H159975   5.256   2.567  14.865  1.3388 -0.2673 -1.2276
12828TIP3    H259976   5.198   2.609  14.732 -2.2507  1.5840  0.7741
12829TIP3   OH259977   0.283   1.358   0.411 -0.2056 -0.1565  0.6157
12829TIP3    H159978   0.225   1.434   0.402  0.3569  0.1486 -0.8878
12829TIP3    H259979   0.225   1.284   0.426 -1.1664 -0.0627 -2.0091
12830TIP3   OH259980   0.473   0.271  16.121 -0.2580 -0.2114 -0.0331
12830TIP3    H159981   0.514   0.293  16.037  1.1054  2.2291  1.1423
12830TIP3    H259982   0.429   0.351  16.148  0.8328 -0.3140  2.3545
12831TIP3   OH259983   2.001   0.661  16.120  0.2142 -0.1641 -0.1639
12831TIP3    H159984   1.950   0.598  16.070  2.3082 -1.1562 -1.1836
12831TIP3    H259985   2.039   0.610  16.192 -1.0119  0.7853  1.2350
12832TIP3   OH259986   1.131   6.741  15.456  0.1758 -0.0905 -0.5410
12832TIP3    H159987   1.178   6.678  15.510 -2.5486 -0.2372  1.9290
12832TIP3    H259988   1.143   6.825  15.500 -0.9565  0.0444 -0.4498
12833TIP3   OH259989   4.339   5.683  10.759 -0.1010 -0.0050 -0.2602
12833TIP3    H159990   4.291   5.622  10.704  1.5193 -1.9269  0.3422
12833TIP3    H259991   4.297   5.677  10.845 -0.3567  0.2573 -0.3647
12834TIP3   OH259992   2.105   1.810   5.568  0.1022 -0.1093  0.1585
12834TIP3    H159993   2.094   1.770   5.482 -0.4851  0.0333  0.1618
12834TIP3    H259994   2.162   1.750   5.615 -1.0551 -1.1552  0.2926
12835TIP3   OH259995   5.649   2.375   0.762  0.3650  0.1992  0.4415
12835TIP3    H159996   5.721   2.387   0.701  0.7023  0.0964  0.8136
12835TIP3    H259997   5.598   2.455   0.756 -0.1748 -0.2164 -0.7155
12836TIP3   OH259998   2.958   3.715   3.129  0.0185  0.1117 -0.5813
12836TIP3    H159999   2.867   3.692   3.148  0.2013 -0.2782 -0.1479
12836TIP3    H260000   2.966   3.703   3.034 -0.1926 -0.5441 -0.5223
12837TIP3   OH260001   3.585   0.375   1.309  0.0082 -0.0344 -0.8301
12837TIP3    H160002   3.498   0.374   1.269 -0.7934  2.5717  0.6008
12837TIP3    H260003   3.634   0.439   1.257 -0.0337  1.0089  0.3897
12838TIP3   OH260004   1.678   0.005  14.944  0.3277  0.4098 -0.0960
12838TIP3    H160005   1.712   0.047  14.865 -4.9483  3.2118 -1.2766
12838TIP3    H260006   1.609  -0.053  14.913 -0.6559  0.1281  2.3880
12839TIP3   OH260007   5.118   1.752   1.354  0.5697 -0.4205 -0.5755
12839TIP3    H160008   5.111   1.745   1.449  0.1629  2.5103 -0.2934
12839TIP3    H260009   5.028   1.745   1.322  0.4705  0.5256 -0.5299
12840TIP3   OH260010   2.662   3.559   4.646 -0.0513  0.4659 -0.0188
12840TIP3    H160011   2.589   3.499   4.641 -0.4579  0.5094  3.1093
12840TIP3    H260012   2.622   3.644   4.664  0.6556  1.0492 -1.1229
12841TIP3   OH260013   1.310   1.192   5.159  0.2788 -0.2299  0.2165
12841TIP3    H160014   1.220   1.197   5.128  0.8739  0.1335 -1.5232
12841TIP3    H260015   1.308   1.236   5.244 -1.0337  0.3943 -0.1147
12842TIP3   OH260016   3.635   2.405  12.076  0.3377 -0.0064 -0.1307
12842TIP3    H160017   3.583   2.374  12.150  0.9920  1.7885  1.1652
12842TIP3    H260018   3.590   2.485  12.047  1.6183  0.8405  0.1610
12843TIP3   OH260019   0.672   1.708   5.965 -0.0194  0.5389 -0.3325
12843TIP3    H160020   0.713   1.637   5.917 -0.5449  2.2964 -3.6454
12843TIP3    H260021   0.687   1.687   6.057  1.0273 -3.0734 -1.1985
12844TIP3   OH260022   3.631   6.625  14.278 -0.5465 -0.0556  0.0254
12844TIP3    H160023   3.570   6.645  14.349 -1.1091  2.7126 -1.1333
12844TIP3    H260024   3.593   6.664  14.200  1.2590 -0.8647 -1.3590
12845TIP3   OH260025   6.702   2.458   2.764 -0.2891  0.0695 -0.4845
12845TIP3    H160026   6.741   2.422   2.684 -2.7896 -2.5211 -0.6948
12845TIP3    H260027   6.697   2.383   2.824 -0.6582  1.3996  1.2308
12846TIP3   OH260028   3.244   4.167   0.643 -0.2424  0.6021  0.3635
12846TIP3    H160029   3.265   4.135   0.555 -1.2774  3.0731 -0.9027
12846TIP3    H260030   3.329   4.189   0.681  0.2393 -0.7451  0.1283
12847TIP3   OH260031   5.004   6.602  15.427 -0.4309 -0.4134  0.1389
12847TIP3    H160032   5.039   6.546  15.497 -1.0527 -0.3032  0.5438
12847TIP3    H260033   5.021   6.691  15.457 -0.8118 -0.3644  0.2046
12848TIP3   OH260034   2.358   4.378   1.637  0.3696  0.1476 -0.8133
12848TIP3    H160035   2.335   4.390   1.729 -4.4817  1.2690 -1.9035
12848TIP3    H260036   2.370   4.284   1.627 -0.3239 -0.1277  0.7259
12849TIP3   OH260037   1.910   5.933  17.254 -0.2722 -0.6249  0.3397
12849TIP3    H160038   1.955   5.966  17.331  2.2218  2.0102 -2.0223
12849TIP3    H260039   1.945   5.845  17.241  0.8683 -0.2879  1.0618
12850TIP3   OH260040   4.993   4.976  17.103 -0.4247  0.3794  0.5544
12850TIP3    H160041   4.951   4.995  17.019  0.4220 -1.9730 -0.4643
12850TIP3    H260042   4.924   4.992  17.168 -2.6737 -2.2812 -0.9598
12851TIP3   OH260043   1.511   5.363  15.995 -0.1622  0.5210 -0.1451
12851TIP3    H160044   1.603   5.375  16.020  0.3233 -0.5251 -1.3037
12851TIP3    H260045   1.489   5.441  15.945  0.7126 -0.0851 -1.5179
12852TIP3   OH260046   0.216   1.601   0.684  0.1145 -0.1083  0.5741
12852TIP3    H160047   0.131   1.644   0.691 -0.3193 -1.0997  1.5377
12852TIP3    H260048   0.220   1.541   0.757  0.6908 -1.7518 -0.7372
12853TIP3   OH260049   4.679   2.675   0.986  0.2454 -0.0333  0.6655
12853TIP3    H160050   4.774   2.689   0.985  0.3200 -0.4802  0.9820
12853TIP3    H260051   4.669   2.580   0.974 -0.1951  0.1374 -0.4213
12854TIP3   OH260052   3.415   3.708  16.377 -0.0034  0.1368 -0.3267
12854TIP3    H160053   3.421   3.770  16.449 -0.8989 -0.6804  0.4916
12854TIP3    H260054   3.348   3.645  16.405 -0.3792 -0.2023 -1.8745
12855TIP3   OH260055   6.133   5.460   3.409  0.2669  0.3639 -0.3245
12855TIP3    H160056   6.156   5.488   3.498  1.6356  1.0692 -0.8709
12855TIP3    H260057   6.217   5.432   3.371 -0.2686  0.2622 -1.4541
12856TIP3   OH260058   1.678   2.038  13.624  0.0933  0.3098  0.2478
12856TIP3    H160059   1.600   2.032  13.679 -0.1537  0.0441 -0.1264
12856TIP3    H260060   1.722   2.118  13.653 -0.1681  0.3076  0.6553
12857TIP3   OH260061   1.263   5.917  17.263 -0.1579  0.6520  0.1771
12857TIP3    H160062   1.210   5.984  17.221 -0.2939 -1.0323 -2.6256
12857TIP3    H260063   1.353   5.949  17.256 -0.3064  0.9653 -0.3756
12858TIP3   OH260064   5.586   0.053  15.853 -0.3066 -0.1686  0.3255
12858TIP3    H160065   5.597  -0.011  15.924 -0.2512 -0.2973  0.2008
12858TIP3    H260066   5.635   0.016  15.780 -0.3803 -0.0440  0.2134
12859TIP3   OH260067   0.858   6.347  12.963 -0.7743  0.0731  0.7488
12859TIP3    H160068   0.866   6.284  13.034  0.8405  0.6603  1.1388
12859TIP3    H260069   0.945   6.350  12.923 -0.9201  1.7094  0.4609
12860TIP3   OH260070   1.785   6.460  11.958  0.0477  0.1971 -0.2083
12860TIP3    H160071   1.768   6.416  12.041  1.0016 -0.7252 -0.4828
12860TIP3    H260072   1.800   6.389  11.896 -1.4446  0.8564 -1.3668
12861TIP3   OH260073   5.242   2.800  11.695  0.3841  0.3064 -0.3009
12861TIP3    H160074   5.285   2.858  11.633  2.1730 -1.3520 -0.6823
12861TIP3    H260075   5.242   2.714  11.653 -0.5081 -0.3792  1.0188
12862TIP3   OH260076   0.323   3.298   2.355  0.1489  0.0174  0.0913
12862TIP3    H160077   0.367   3.242   2.290  1.7692  0.2646  0.9339
12862TIP3    H260078   0.394   3.334   2.408 -0.9562  1.8481  0.4140
12863TIP3   OH260079   6.273   0.771   5.084  0.3988 -0.2789  0.0794
12863TIP3    H160080   6.232   0.726   5.010 -0.1161 -2.1121  1.3802
12863TIP3    H260081   6.367   0.752   5.075  0.2584 -1.1393  0.2511
12864TIP3   OH260082   3.353   3.198   0.435  0.1179  0.0178  0.0609
12864TIP3    H160083   3.308   3.145   0.369 -0.9845  1.5539 -0.4542
12864TIP3    H260084   3.307   3.179   0.517  0.9123 -1.1946  0.2590
12865TIP3   OH260085   2.801   4.380   4.183 -0.2194 -0.7651  0.3221
12865TIP3    H160086   2.817   4.471   4.211 -0.4902 -0.5669 -0.1475
12865TIP3    H260087   2.886   4.350   4.150 -0.4808 -0.1347 -1.0023
12866TIP3   OH260088   1.750   6.085  13.997  0.3408 -0.4346 -0.2818
12866TIP3    H160089   1.661   6.052  14.011  0.7454 -1.4519 -0.0058
12866TIP3    H260090   1.746   6.176  14.025 -0.1627 -0.9851  1.5868
12867TIP3   OH260091   6.744   2.643   4.508  0.4555  0.0382 -0.0746
12867TIP3    H160092   6.782   2.579   4.569  0.7090 -0.4551 -0.7310
12867TIP3    H260093   6.650   2.630   4.516  0.5146 -0.9192 -0.6974
12868TIP3   OH260094   0.299   2.889  13.358 -0.7695 -0.0634  0.0248
12868TIP3    H160095   0.313   2.803  13.319 -0.3722  0.3525 -0.7659
12868TIP3    H260096   0.245   2.871  13.436 -1.5194 -0.9143 -0.6610
12869TIP3   OH260097   3.616   3.233  13.042  0.7253  0.1692  0.2325
12869TIP3    H160098   3.702   3.233  13.000  0.3636 -0.4491 -0.5263
12869TIP3    H260099   3.631   3.187  13.125  1.1893  0.3513  0.2570
12870TIP3   OH260100   3.705   5.439  13.267  0.4933  0.5638 -0.3446
12870TIP3    H160101   3.796   5.452  13.243  0.8251 -0.9863 -0.0589
12870TIP3    H260102   3.706   5.436  13.363  0.4912 -1.3898 -0.3601
12871TIP3   OH260103   6.809   0.613  14.157 -0.2033  0.0393  0.1381
12871TIP3    H160104   6.716   0.628  14.140 -0.0822  1.0340  0.2561
12871TIP3    H260105   6.845   0.590  14.071 -0.1985  1.7504 -0.3662
12872TIP3   OH260106   5.740   2.019   2.678 -0.5448  0.0823 -0.3085
12872TIP3    H160107   5.689   1.941   2.654  0.6517 -0.5477 -0.8699
12872TIP3    H260108   5.708   2.042   2.765 -1.0499 -0.9230 -0.2104
12873TIP3   OH260109   5.466   5.222  15.543  0.6590 -0.2022  0.3316
12873TIP3    H160110   5.393   5.274  15.577  0.7410  1.4379 -1.8064
12873TIP3    H260111   5.534   5.232  15.609  1.1775  3.7075 -0.5269
12874TIP3   OH260112   6.435   1.071  14.106  0.1561  0.6642 -0.0226
12874TIP3    H160113   6.515   1.032  14.072 -0.4573  0.5828 -1.4628
12874TIP3    H260114   6.416   1.143  14.045  0.4364  2.2798  1.6831
12875TIP3   OH260115   0.849   1.765  14.632 -0.2705 -0.4792 -0.6575
12875TIP3    H160116   0.788   1.826  14.675 -0.4450 -0.7827 -0.4678
12875TIP3    H260117   0.822   1.679  14.663  1.4582 -0.4987  0.9269
12876TIP3   OH260118   6.068   2.084  16.618  0.0079 -0.0812 -0.0141
12876TIP3    H160119   6.059   2.176  16.643 -0.5415  0.0141 -0.5508
12876TIP3    H260120   5.979   2.049  16.622  0.2159 -0.6016  0.2227
12877TIP3   OH260121   3.177   5.605  10.984 -0.4491  0.3109 -0.1898
12877TIP3    H160122   3.083   5.613  10.973 -0.7977  1.3342  2.7072
12877TIP3    H260123   3.188   5.525  11.037  0.4733 -0.6815 -1.8154
12878TIP3   OH260124   0.047   4.893  12.152 -1.0836 -0.5205 -0.0626
12878TIP3    H160125   0.029   4.944  12.073 -0.6278 -0.8084 -0.3578
12878TIP3    H260126  -0.033   4.843  12.167 -2.6818  2.2917  1.8452
12879TIP3   OH260127   1.058   2.915  15.420 -0.4010  0.1292  0.8962
12879TIP3    H160128   1.062   2.965  15.502  0.5894  0.4662  0.6612
12879TIP3    H260129   0.976   2.942  15.379 -0.6096  0.4157  1.4955
12880TIP3   OH260130   0.381   6.233   3.359  0.1555 -0.1808 -0.1836
12880TIP3    H160131   0.467   6.275   3.369 -1.0693  2.7148 -0.8110
12880TIP3    H260132   0.340   6.242   3.445 -0.6357  1.3254 -0.6717
12881TIP3   OH260133   0.218   6.305   5.939 -0.1393  0.2388 -0.0426
12881TIP3    H160134   0.131   6.269   5.956 -0.7870  1.3469 -0.8972
12881TIP3    H260135   0.210   6.350   5.855  1.3945 -0.0341 -0.3726
12882TIP3   OH260136   6.025   3.692   1.318 -0.0569  0.0922 -0.8924
12882TIP3    H160137   6.099   3.642   1.354  0.3802  1.3689  0.0847
12882TIP3    H260138   5.975   3.628   1.267  0.4487 -1.3457  0.3207
12883TIP3   OH260139   6.042   1.059   5.734 -0.4340  0.3473  0.3492
12883TIP3    H160140   6.127   1.021   5.752 -1.0987 -0.4390  1.9679
12883TIP3    H260141   6.062   1.143   5.693  1.1144  0.2440  0.8333
12884TIP3   OH260142   6.077   6.229  12.263  0.4709  0.6211 -0.2184
12884TIP3    H160143   6.129   6.276  12.198 -0.3631  0.9860 -0.6325
12884TIP3    H260144   6.120   6.144  12.271  1.3639  1.0577 -0.2512
12885TIP3   OH260145   3.993   5.694   3.533 -0.0411 -0.1944 -0.1770
12885TIP3    H160146   4.044   5.754   3.479  2.4699 -0.9649  1.1916
12885TIP3    H260147   4.042   5.688   3.615 -2.9920 -0.0871  1.7421
12886TIP3   OH260148   1.068   1.257  15.919 -0.7004 -0.5648 -0.0515
12886TIP3    H160149   1.095   1.205  15.843 -0.0087 -1.9159  1.0841
12886TIP3    H260150   0.975   1.239  15.929 -0.6774 -0.7981 -0.2434
12887TIP3   OH260151   6.264   2.242  15.026 -0.5371 -0.4122 -0.4923
12887TIP3    H160152   6.230   2.189  15.098 -0.6806  0.3297  0.0032
12887TIP3    H260153   6.245   2.191  14.948 -3.3879  0.1954 -0.3190
12888TIP3   OH260154   2.346   0.057  17.142  0.2867 -0.4064  0.1730
12888TIP3    H160155   2.430   0.064  17.097  0.6513 -0.3885  0.8382
12888TIP3    H260156   2.340  -0.034  17.169  0.7543 -0.0990  1.3599
12889TIP3   OH260157   1.548   3.008  16.669  0.0782  0.7117  0.0075
12889TIP3    H160158   1.501   3.084  16.704 -2.0264  0.3958 -1.9081
12889TIP3    H260159   1.543   3.018  16.574 -2.6183 -3.0635 -0.4689
12890TIP3   OH260160   6.316   5.413   0.037 -0.2553 -0.9637 -0.0301
12890TIP3    H160161   6.285   5.325   0.059  0.1605 -0.8811  0.9340
12890TIP3    H260162   6.386   5.399  -0.026 -0.9390 -1.2514 -0.7487
12891TIP3   OH260163   1.245   0.903   4.880 -0.2535  0.7461 -0.1090
12891TIP3    H160164   1.167   0.848   4.882 -0.4523  1.0258  1.2558
12891TIP3    H260165   1.311   0.853   4.929 -0.0635  1.1867  0.0896
12892TIP3   OH260166   2.762   3.491   3.647 -0.2232 -0.6733  0.4294
12892TIP3    H160167   2.805   3.483   3.732 -1.3897 -1.2108  0.9912
12892TIP3    H260168   2.793   3.574   3.612 -1.7281  0.9060  2.5765
12893TIP3   OH260169   4.581   1.307  11.415 -0.0088 -0.4265 -0.5079
12893TIP3    H160170   4.620   1.239  11.360 -1.9320 -1.2413 -0.9706
12893TIP3    H260171   4.535   1.364  11.353  0.4791  0.5382 -0.0041
12894TIP3   OH260172   0.112   0.306  13.121 -0.3334 -0.2954 -0.1205
12894TIP3    H160173   0.097   0.387  13.169  0.4642  0.2807 -0.8039
12894TIP3    H260174   0.135   0.241  13.188 -1.5130 -0.1019  0.4785
12895TIP3   OH260175   0.327   1.070   1.777 -0.1645 -0.2807 -0.2902
12895TIP3    H160176   0.352   1.101   1.689 -1.8588 -0.0233 -0.7095
12895TIP3    H260177   0.369   0.985   1.784 -0.1045 -0.3658 -1.4146
12896TIP3   OH260178   2.177   5.313   6.737  0.2980  0.0540  0.0868
12896TIP3    H160179   2.235   5.245   6.705 -0.9459 -0.3402 -1.4846
12896TIP3    H260180   2.094   5.297   6.692 -0.4200  1.8172  0.6721
12897TIP3   OH260181   6.300   5.286  10.718 -0.3760  0.0520 -0.0986
12897TIP3    H160182   6.221   5.241  10.749 -1.4464  1.5703 -0.5230
12897TIP3    H260183   6.287   5.377  10.745  0.1287  0.7957 -2.2148
12898TIP3   OH260184   6.055   5.178  10.565  0.6421  0.0551 -0.2201
12898TIP3    H160185   6.040   5.272  10.572  0.7828  0.3497 -2.9170
12898TIP3    H260186   6.083   5.151  10.653  0.4503  2.4726  0.6435
12899TIP3   OH260187   2.336   3.261   1.240  0.2252 -0.3504  0.3249
12899TIP3    H160188   2.387   3.180   1.242 -0.7580 -0.9802  0.5393
12899TIP3    H260189   2.247   3.233   1.218  0.3810  0.9660 -2.3178
12900TIP3   OH260190   5.736   1.095  13.696 -0.0415 -0.1234 -0.0249
12900TIP3    H160191   5.678   1.168  13.717 -0.1062 -0.2117  0.1075
12900TIP3    H260192   5.823   1.134  13.687 -0.2492  0.1381 -1.0374
12901TIP3   OH260193   2.593   1.287  10.928 -0.1019  0.4369  0.7134
12901TIP3    H160194   2.531   1.224  10.891 -0.3911  1.2488 -0.2324
12901TIP3    H260195   2.677   1.241  10.929 -0.4081 -0.1356  0.5256
12902TIP3   OH260196   1.906   0.286  16.593 -0.2915  0.7199 -0.5989
12902TIP3    H160197   1.898   0.381  16.583  0.2254  0.9962  1.2347
12902TIP3    H260198   1.992   0.265  16.557  0.3957  1.2568  0.6720
12903TIP3   OH260199   5.624   4.683   5.268  0.3464  0.5725 -0.1085
12903TIP3    H160200   5.643   4.612   5.206 -0.9813 -0.2117  0.3411
12903TIP3    H260201   5.617   4.639   5.352 -1.1529  1.1334  0.0810
12904TIP3   OH260202   0.373   4.048   2.061 -0.5927  0.2414 -0.1314
12904TIP3    H160203   0.409   3.960   2.071  0.3752  0.4640 -1.4268
12904TIP3    H260204   0.326   4.064   2.142  0.8422 -0.7172  0.9283
12905TIP3   OH260205   6.387   5.824  15.096 -0.0840 -0.1880 -0.7344
12905TIP3    H160206   6.464   5.775  15.066  0.9637  0.7634  0.2650
12905TIP3    H260207   6.367   5.884  15.024  0.5408  0.0146 -0.7512
12906TIP3   OH260208   0.449   5.495  16.957  0.0111 -0.0954  0.2866
12906TIP3    H160209   0.422   5.456  17.040  2.5370  0.2577  1.3821
12906TIP3    H260210   0.407   5.581  16.955 -0.5494 -0.3464  0.8946
12907TIP3   OH260211   5.098   6.113   3.354  0.0591  0.6662  0.3106
12907TIP3    H160212   5.064   6.033   3.315  0.3639  1.7645 -2.4750
12907TIP3    H260213   5.024   6.150   3.402 -0.5580 -0.4768  0.2637
12908TIP3   OH260214   5.238   3.688   2.292  0.0190  0.2876 -0.3204
12908TIP3    H160215   5.234   3.597   2.322  0.0144  0.1548 -0.7127
12908TIP3    H260216   5.329   3.713   2.306 -0.1751  0.5149  0.6141
12909TIP3   OH260217   6.261   6.026  11.320 -0.1131 -0.0755 -0.1197
12909TIP3    H160218   6.284   5.944  11.364  0.6030  0.3577  0.3333
12909TIP3    H260219   6.327   6.089  11.350  0.2984  0.2846 -1.7061
12910TIP3   OH260220   1.848   4.662   2.980  0.1167 -0.3557  0.1036
12910TIP3    H160221   1.860   4.585   2.924  4.0499  0.8741 -1.0626
12910TIP3    H260222   1.780   4.713   2.936 -2.1640 -2.7321  0.5890
12911TIP3   OH260223   0.642   5.633   3.137  0.1667 -0.3226 -0.9002
12911TIP3    H160224   0.594   5.715   3.124  0.1226 -0.1236  0.4051
12911TIP3    H260225   0.687   5.644   3.221  1.2953 -1.0977 -1.3818
12912TIP3   OH260226   4.007   6.548  16.907 -0.1651 -0.1368  0.3435
12912TIP3    H160227   4.063   6.478  16.873  1.2395  0.1664  1.8888
12912TIP3    H260228   3.965   6.585  16.829  2.3587  0.0915 -1.0177
12913TIP3   OH260229   0.553   0.775   1.151 -0.8054  0.2692 -0.7161
12913TIP3    H160230   0.600   0.714   1.095 -0.6331  0.3601 -0.6709
12913TIP3    H260231   0.495   0.822   1.092 -1.0531 -0.0492 -0.7255
12914TIP3   OH260232   0.899   6.811   4.305  0.1716  0.4752 -0.4078
12914TIP3    H160233   0.966   6.837   4.369  0.6640  0.2869 -0.8384
12914TIP3    H260234   0.841   6.752   4.353  0.2358  0.7424  0.0072
12915TIP3   OH260235   5.457   3.240  14.583  0.6407  0.2351 -0.2642
12915TIP3    H160236   5.398   3.166  14.589 -0.4090  1.1606  1.9271
12915TIP3    H260237   5.544   3.201  14.578  0.0219 -1.1238 -1.0356
12916TIP3   OH260238   5.921   5.138  11.013 -0.7433 -0.6104  0.1572
12916TIP3    H160239   5.967   5.196  11.074 -1.6653 -2.3513  2.7260
12916TIP3    H260240   5.828   5.158  11.028 -0.9778 -0.5169 -1.3389
12917TIP3   OH260241   3.361   3.107   0.743 -0.0564  0.2193  0.4825
12917TIP3    H160242   3.318   3.145   0.820 -0.2106 -0.7357  0.8879
12917TIP3    H260243   3.291   3.062   0.696  0.3252 -0.6073  0.6836
12918TIP3   OH260244   3.287   3.369   6.286 -0.4088 -0.3952  0.8331
12918TIP3    H160245   3.251   3.429   6.221 -1.0805 -0.2015  1.3754
12918TIP3    H260246   3.323   3.426   6.354 -2.1725 -0.5678  1.9717
12919TIP3   OH260247   5.519   3.839  14.558 -0.6480 -0.9524  0.3181
12919TIP3    H160248   5.462   3.874  14.489  0.9846  0.8372 -0.2070
12919TIP3    H260249   5.521   3.908  14.625 -0.6984 -1.8603  1.2729
12920TIP3   OH260250   2.183   6.383   5.654  0.1755 -0.6154  0.4883
12920TIP3    H160251   2.201   6.289   5.650 -1.8068 -1.0162 -0.7701
12920TIP3    H260252   2.095   6.389   5.693  0.4030  0.7443  0.8406
12921TIP3   OH260253   1.045   3.589   5.383  0.1530  0.2325 -0.3284
12921TIP3    H160254   1.023   3.642   5.307 -2.5753  0.2093  0.3166
12921TIP3    H260255   0.973   3.526   5.389  1.7096 -1.5419  0.7192
12922TIP3   OH260256   0.639   2.755  14.597  0.4546  0.2198 -0.0307
12922TIP3    H160257   0.588   2.816  14.545  0.4367  1.8381  1.7580
12922TIP3    H260258   0.589   2.745  14.678  0.5971 -2.0141 -0.1691
12923TIP3   OH260259   5.530   2.287   2.851  0.3083 -0.5444 -0.8145
12923TIP3    H160260   5.560   2.210   2.900 -0.3819 -0.0784  0.4048
12923TIP3    H260261   5.602   2.350   2.860  0.7698 -0.9503 -1.6023
12924TIP3   OH260262   4.699   0.266  11.445  0.1655 -0.4156 -0.5607
12924TIP3    H160263   4.681   0.231  11.532  1.1231 -0.2094 -0.2617
12924TIP3    H260264   4.613   0.281  11.406 -0.3293  1.0090  0.9634
12925TIP3   OH260265   4.638   1.192  15.661 -0.0312 -0.8412  0.0747
12925TIP3    H160266   4.705   1.203  15.593 -0.6516  2.1328 -0.2133
12925TIP3    H260267   4.573   1.135  15.621  0.6499 -0.9102 -0.9828
12926TIP3   OH260268   2.875   3.129  13.140  0.6617  0.0732 -0.2165
12926TIP3    H160269   2.889   3.129  13.235  0.5605 -0.2988 -0.2010
12926TIP3    H260270   2.963   3.128  13.102  0.7025  0.2500 -0.1272
12927TIP3   OH260271   6.215   5.824  13.788 -0.2400  0.3680 -0.0261
12927TIP3    H160272   6.238   5.806  13.879  1.6452  0.6961 -0.3887
12927TIP3    H260273   6.173   5.744  13.757 -0.0789 -0.0773  0.8787
12928TIP3   OH260274   0.003   0.579   0.208  0.4530 -0.9550  0.6809
12928TIP3    H160275   0.093   0.546   0.212  1.0675  0.2482 -1.5475
12928TIP3    H260276  -0.050   0.502   0.188  1.4603 -1.1898 -1.3492
12929TIP3   OH260277   6.763   5.829   5.127 -0.4081 -0.3894 -0.3787
12929TIP3    H160278   6.778   5.911   5.175 -1.3332  0.0641 -0.8327
12929TIP3    H260279   6.692   5.786   5.175 -0.1168 -0.7983 -0.3076
12930TIP3   OH260280   1.449   4.292   6.900 -0.0986  0.5076  0.0287
12930TIP3    H160281   1.468   4.366   6.958  0.9013  0.2385  0.0545
12930TIP3    H260282   1.530   4.277   6.852 -0.3224 -0.4989 -0.0641
12931TIP3   OH260283   0.885   4.789  16.773 -0.2644  0.2719  0.5548
12931TIP3    H160284   0.933   4.706  16.767  0.6269  0.8350 -0.1958
12931TIP3    H260285   0.818   4.772  16.840  0.6334 -0.6856  1.2462
12932TIP3   OH260286   0.578   4.961   3.974 -0.3776  0.3149 -0.1803
12932TIP3    H160287   0.637   4.935   4.045  0.8929  0.6074 -1.0868
12932TIP3    H260288   0.622   4.931   3.894  0.6224  4.0160 -1.2401
12933TIP3   OH260289   3.428   5.383  11.602  0.3402  0.3642  0.0342
12933TIP3    H160290   3.502   5.420  11.651 -0.6554  1.1090  1.0140
12933TIP3    H260291   3.352   5.400  11.657 -0.8335  1.2241 -1.7693
12934TIP3   OH260292   3.187   4.897   3.479 -0.1209  0.3794 -0.0860
12934TIP3    H160293   3.238   4.844   3.541  0.5938  1.2905  0.1197
12934TIP3    H260294   3.221   4.873   3.393  0.8739  1.1884  0.0671
12935TIP3   OH260295   0.704   6.369  14.317 -0.0173  0.3182 -0.0303
12935TIP3    H160296   0.777   6.336  14.370  0.0511  0.2848 -0.1443
12935TIP3    H260297   0.664   6.436  14.371 -2.0506 -1.9779  1.5199
12936TIP3   OH260298   4.851   4.592  15.714  0.5625 -0.3466 -0.7401
12936TIP3    H160299   4.770   4.613  15.761 -0.0872  0.2950 -2.1052
12936TIP3    H260300   4.852   4.652  15.640  1.2177 -1.7642 -1.9172
12937TIP3   OH260301   5.620   5.217   2.849  0.4905  0.3727  0.1670
12937TIP3    H160302   5.664   5.184   2.771  0.2304  0.8414 -0.1804
12937TIP3    H260303   5.530   5.184   2.842  0.5485  0.1503  0.4334
12938TIP3   OH260304   6.716   4.298  11.970  0.2836  0.1988  0.1627
12938TIP3    H160305   6.637   4.339  12.006 -0.3515 -1.3207  0.5894
12938TIP3    H260306   6.772   4.372  11.945 -2.1463  1.4061 -2.1868
12939TIP3   OH260307   6.317   3.013   5.636  0.0957 -0.2564 -0.1079
12939TIP3    H160308   6.388   2.970   5.684 -0.2972  1.2030  1.9397
12939TIP3    H260309   6.238   2.990   5.686 -0.6009 -0.2295 -1.1810
12940TIP3   OH260310   4.253   3.524   3.643 -0.0956  0.2570 -0.0274
12940TIP3    H160311   4.206   3.484   3.716 -1.0808 -1.7931 -1.6587
12940TIP3    H260312   4.292   3.450   3.596  2.2876  1.6685 -0.4472
12941TIP3   OH260313   3.376   4.301  11.229 -0.3262 -0.3895 -0.3453
12941TIP3    H160314   3.343   4.211  11.228 -1.2668 -0.0951  1.0108
12941TIP3    H260315   3.332   4.344  11.156 -0.4904 -0.8268 -0.5043
12942TIP3   OH260316   0.585   4.107  16.401  0.1046  0.0391 -0.0592
12942TIP3    H160317   0.642   4.138  16.472 -1.6127  1.5141  0.7509
12942TIP3    H260318   0.531   4.040  16.442  0.6188 -0.7108 -0.5894
12943TIP3   OH260319   1.435   6.715  16.376 -0.3230  0.3426  0.2833
12943TIP3    H160320   1.511   6.740  16.428  0.8366  0.7776 -1.5337
12943TIP3    H260321   1.470   6.699  16.289 -2.4052  1.1486 -0.7675
12944TIP3   OH260322   1.040   2.684  17.096 -0.4399  0.1917  0.2241
12944TIP3    H160323   1.105   2.707  17.030 -1.0731 -1.1413 -0.9083
12944TIP3    H260324   0.993   2.766  17.113 -0.2924  0.5515 -1.0243
12945TIP3   OH260325   5.592   0.594   6.294  0.3103  0.4353 -0.3993
12945TIP3    H160326   5.666   0.625   6.346 -0.1830  0.8571  0.0617
12945TIP3    H260327   5.521   0.583   6.358 -0.2062  0.6397 -0.9334
12946TIP3   OH260328   0.461   3.705  12.810  0.0280  0.1541 -0.3190
12946TIP3    H160329   0.465   3.694  12.905 -0.6888 -0.9662 -0.4040
12946TIP3    H260330   0.459   3.616  12.776  1.6946  0.5138 -1.4703
12947TIP3   OH260331   5.162   0.493   4.430  0.2550  0.4335 -0.0709
12947TIP3    H160332   5.091   0.531   4.481  0.5162  1.9324 -0.7612
12947TIP3    H260333   5.224   0.460   4.496  0.0294  1.2661  0.5768
12948TIP3   OH260334   1.120   1.973   5.350 -0.1524  0.6476  0.7664
12948TIP3    H160335   1.139   2.051   5.401  0.4332  0.1030  1.3963
12948TIP3    H260336   1.170   1.985   5.269  0.8101  0.4331  1.3196
12949TIP3   OH260337   2.516   2.274  13.402 -0.3939 -0.2515 -0.1986
12949TIP3    H160338   2.455   2.237  13.465  0.3981 -0.5389  0.4129
12949TIP3    H260339   2.563   2.342  13.450  0.1428 -0.4004 -0.4953
12950TIP3   OH260340   2.221   3.978   2.895  0.2703  0.2436 -0.3416
12950TIP3    H160341   2.196   4.063   2.858  1.5776  0.5850 -0.4951
12950TIP3    H260342   2.311   3.990   2.924  0.5701 -1.1759 -0.6035
12951TIP3   OH260343   6.817   0.941   4.336 -0.0293  0.2222  0.0202
12951TIP3    H160344   6.901   0.929   4.292 -0.7273 -1.8175 -0.8419
12951TIP3    H260345   6.758   0.971   4.267 -0.0882  1.5590  0.6062
12952TIP3   OH260346   1.690   2.762  16.860 -0.2131 -0.2623 -0.2884
12952TIP3    H160347   1.777   2.797  16.842  0.5246 -1.2207  1.1634
12952TIP3    H260348   1.630   2.834  16.842  1.0492  1.0107  0.4615
12953TIP3   OH260349   3.961   1.873   6.029 -0.0257  0.4689 -0.8364
12953TIP3    H160350   3.912   1.839   6.104  0.5870  3.6753  1.1848
12953TIP3    H260351   4.044   1.825   6.031 -0.2992 -0.0022  0.0754
12954TIP3   OH260352   2.191   1.108  11.758 -0.6007  0.3720  0.2632
12954TIP3    H160353   2.224   1.048  11.825 -0.4441  0.7523  0.5260
12954TIP3    H260354   2.127   1.055  11.708 -0.1357 -0.1461  0.2077
12955TIP3   OH260355   5.994   1.183   3.615  0.6568 -0.4888 -0.4347
12955TIP3    H160356   5.978   1.198   3.708  0.6286  1.0859 -0.6687
12955TIP3    H260357   6.087   1.158   3.611  0.7668 -0.1619 -0.0178
12956TIP3   OH260358   0.662   4.660   0.927  0.3916 -0.4442 -0.5326
12956TIP3    H160359   0.645   4.668   0.833 -2.1364 -0.3995 -0.1396
12956TIP3    H260360   0.715   4.737   0.949  0.5985 -0.1987 -1.8237
12957TIP3   OH260361   4.136   4.056  15.437 -0.1933  0.1993 -0.2813
12957TIP3    H160362   4.051   4.083  15.402 -0.0519  0.9383 -0.0771
12957TIP3    H260363   4.199   4.112  15.391  0.1379 -0.0131 -0.0881
12958TIP3   OH260364   0.545   3.256   6.549  0.5011 -0.0327  0.5178
12958TIP3    H160365   0.544   3.286   6.458  3.0773 -0.6717  0.1922
12958TIP3    H260366   0.556   3.161   6.542 -0.0505 -0.1824  1.5259
12959TIP3   OH260367   0.663   6.436  16.131 -0.3500 -0.7056 -0.2148
12959TIP3    H160368   0.596   6.426  16.063 -0.2782 -0.7982 -0.2725
12959TIP3    H260369   0.682   6.529  16.132  0.1714 -0.7938 -0.8308
12960TIP3   OH260370   3.270   6.188   2.389 -0.4289 -0.2245 -0.2834
12960TIP3    H160371   3.194   6.238   2.418  0.6231  0.4628  1.4409
12960TIP3    H260372   3.339   6.253   2.377  0.4471 -1.0482  0.1562
12961TIP3   OH260373   5.808   2.698  12.953 -0.0371  0.2583 -0.7665
12961TIP3    H160374   5.887   2.751  12.943 -0.2716  0.4323 -1.8863
12961TIP3    H260375   5.807   2.642  12.876 -1.5534  1.0303 -1.3556
12962TIP3   OH260376   6.802   5.605   5.960  0.6362  0.4470 -0.2636
12962TIP3    H160377   6.720   5.598   6.009  0.9630  2.2423  0.6239
12962TIP3    H260378   6.849   5.524   5.980  0.4167  0.7739  1.7940
12963TIP3   OH260379   5.239   4.046   4.802  0.3744 -0.1899  0.1527
12963TIP3    H160380   5.273   4.081   4.884  1.1649  0.2314 -0.3431
12963TIP3    H260381   5.160   4.096   4.785  1.7101  1.7189 -0.7607
12964TIP3   OH260382   3.682   1.556   2.330 -0.3860  0.2651  0.0529
12964TIP3    H160383   3.680   1.646   2.362 -0.1256  0.2996 -0.0335
12964TIP3    H260384   3.751   1.514   2.381 -1.0011 -0.0807  0.6210
12965TIP3   OH260385   1.337   4.947   4.055  0.4490 -0.0538 -0.7733
12965TIP3    H160386   1.290   4.870   4.085 -0.5159  0.3660 -1.1750
12965TIP3    H260387   1.403   4.963   4.122 -0.9095  0.1853  0.5446
12966TIP3   OH260388   2.569   3.365  11.382  0.5134  0.4214  0.0878
12966TIP3    H160389   2.534   3.372  11.293 -0.0481 -0.8830  0.1835
12966TIP3    H260390   2.506   3.309  11.427  1.7455 -0.4012  0.8136
12967TIP3   OH260391   1.430   1.521  16.042 -0.9682 -0.0504  0.0411
12967TIP3    H160392   1.445   1.449  16.104  0.4373 -0.1488 -0.3805
12967TIP3    H260393   1.335   1.530  16.039 -1.1139 -0.8662  1.2738
12968TIP3   OH260394   4.332   3.792   5.199 -0.0680 -0.3184 -0.3429
12968TIP3    H160395   4.290   3.707   5.214 -0.0776 -0.6616 -2.0786
12968TIP3    H260396   4.270   3.839   5.143  0.8035  0.0684 -1.0065
12969TIP3   OH260397   0.887   5.885  14.857  0.2870  0.4500 -0.0276
12969TIP3    H160398   0.859   5.894  14.948  0.5218 -1.5017  0.2904
12969TIP3    H260399   0.978   5.855  14.863  1.8483  4.3122 -1.0122
12970TIP3   OH260400   5.338   4.567   2.508  0.5218 -0.2047 -0.2668
12970TIP3    H160401   5.272   4.539   2.571  1.1164 -0.4505  0.2619
12970TIP3    H260402   5.413   4.510   2.525  0.1975 -1.2968 -2.1926
12971TIP3   OH260403   5.348   5.254   2.021 -0.0452 -0.0824  0.3389
12971TIP3    H160404   5.276   5.207   1.977  1.8206 -0.5761 -2.4530
12971TIP3    H260405   5.376   5.195   2.091 -1.9676 -0.1048  1.1400
12972TIP3   OH260406   3.310   0.845  13.816  0.0068  0.0096  0.2148
12972TIP3    H160407   3.302   0.887  13.730  2.4144  1.3047  0.5100
12972TIP3    H260408   3.390   0.793  13.809  1.9559  2.4421  2.4341
12973TIP3   OH260409   6.699   1.302  15.476 -0.2109 -0.7418  0.5289
12973TIP3    H160410   6.752   1.226  15.454 -0.1870 -1.0231  1.5297
12973TIP3    H260411   6.725   1.368  15.411 -0.3896 -1.6325 -0.4748
12974TIP3   OH260412   5.169   1.621   4.405  0.1573 -0.0871 -0.5869
12974TIP3    H160413   5.253   1.586   4.435  0.6592  0.9756 -0.7159
12974TIP3    H260414   5.172   1.612   4.310 -0.1691 -0.6565 -0.5523
12975TIP3   OH260415   3.660   2.948  10.911  0.5844  0.0710 -1.0686
12975TIP3    H160416   3.670   2.925  10.819 -0.4230  0.1148 -1.2041
12975TIP3    H260417   3.689   3.040  10.916  0.0980  0.2535 -1.4650
12976TIP3   OH260418   5.980   1.619   3.473 -0.3507 -0.4814  0.3423
12976TIP3    H160419   5.985   1.614   3.568 -0.7591 -0.9837  0.3417
12976TIP3    H260420   5.889   1.645   3.455 -0.5863 -1.4500  0.0661
12977TIP3   OH260421   1.708   1.537  17.181 -0.0511 -0.2694  0.2442
12977TIP3    H160422   1.626   1.496  17.154  0.8115 -1.0147 -1.3833
12977TIP3    H260423   1.717   1.613  17.124  0.1981  0.0407  0.6917
12978TIP3   OH260424   6.342   2.004  11.162  0.2208 -0.4300 -0.3657
12978TIP3    H160425   6.346   1.916  11.199  1.0137  0.4462  1.8792
12978TIP3    H260426   6.282   2.052  11.220  1.6744  1.0828 -0.0120
12979TIP3   OH260427   4.869   6.280   4.193  0.2268 -0.5104 -0.8980
12979TIP3    H160428   4.799   6.248   4.137  1.6694 -1.2928 -2.3535
12979TIP3    H260429   4.949   6.249   4.151  1.4267 -0.3473  1.1309
12980TIP3   OH260430   1.004   2.055   5.680 -0.5090 -0.0041 -0.5961
12980TIP3    H160431   1.048   2.077   5.598  1.0383  1.3838  0.5423
12980TIP3    H260432   0.975   2.140   5.715 -0.7539 -0.5267  0.5008
12981TIP3   OH260433   2.230   0.228   4.265  0.0040 -0.3086  0.3434
12981TIP3    H160434   2.156   0.210   4.324 -0.9323  0.0901 -0.6625
12981TIP3    H260435   2.261   0.315   4.292  0.2626 -0.5743  0.9183
12982TIP3   OH260436   1.851   1.207  12.536 -0.2188 -0.1955 -0.0268
12982TIP3    H160437   1.928   1.264  12.534 -0.1170 -0.3416 -0.9141
12982TIP3    H260438   1.871   1.140  12.601  0.7334 -0.6658 -0.7781
12983TIP3   OH260439   2.835   4.149  12.535  0.2004 -0.0200  0.5269
12983TIP3    H160440   2.745   4.178  12.551  0.1101  0.6113 -0.9352
12983TIP3    H260441   2.887   4.229  12.538  0.4719 -0.1641 -0.1243
12984TIP3   OH260442   2.888   3.537   6.368 -0.5889  0.6741  0.0652
12984TIP3    H160443   2.948   3.524   6.295  2.0145 -0.5189  2.2546
12984TIP3    H260444   2.805   3.502   6.337  0.9006 -1.5802 -1.6990
12985TIP3   OH260445   6.753   5.227  14.044 -0.4137  0.9217 -0.1194
12985TIP3    H160446   6.695   5.274  13.983  0.2258  1.7016 -0.1383
12985TIP3    H260447   6.779   5.293  14.108  0.5283  0.6057 -0.1615
12986TIP3   OH260448   0.756   1.336   5.354  0.0516 -0.2824  0.0857
12986TIP3    H160449   0.797   1.349   5.269  0.6509 -1.3863  0.1929
12986TIP3    H260450   0.662   1.334   5.336  0.1743 -0.4486 -0.5459
12987TIP3   OH260451   2.474   1.368  15.960  0.3589  0.1049 -0.1109
12987TIP3    H160452   2.407   1.302  15.976 -0.2175  0.9993  1.4082
12987TIP3    H260453   2.545   1.320  15.917  0.9673 -2.1027  2.9495
12988TIP3   OH260454   4.007   6.761  11.064 -0.4699 -0.4184  0.5205
12988TIP3    H160455   3.927   6.813  11.053  1.1381  2.2569  0.4731
12988TIP3    H260456   4.033   6.738  10.974 -0.9433 -0.9500  0.5129
12989TIP3   OH260457   3.081   5.558  13.785  0.2864  0.1164 -0.3033
12989TIP3    H160458   3.036   5.642  13.786  0.4152  0.1816  0.3294
12989TIP3    H260459   3.042   5.511  13.712 -1.8630 -0.4028  1.0962
12990TIP3   OH260460   0.857   5.019  17.123 -0.1288  0.0471 -0.4190
12990TIP3    H160461   0.925   5.079  17.092  1.1976 -0.9651  0.3969
12990TIP3    H260462   0.775   5.065  17.105  0.8158  2.2865  0.4913
12991TIP3   OH260463   0.982   2.648  15.181 -0.3233 -0.7865 -0.5837
12991TIP3    H160464   1.021   2.579  15.127  0.0463 -1.1062  0.0809
12991TIP3    H260465   0.924   2.602  15.241 -1.2806 -0.3644 -1.1687
12992TIP3   OH260466   0.836   1.301  12.246  0.2449 -0.3343  0.4905
12992TIP3    H160467   0.907   1.239  12.231 -0.3452 -1.0478  0.5965
12992TIP3    H260468   0.800   1.277  12.331  0.7081  0.8604  1.0459
12993TIP3   OH260469   1.265   3.747   0.468  0.0949 -0.5214 -0.0317
12993TIP3    H160470   1.226   3.823   0.511  0.8525 -0.7367  1.0718
12993TIP3    H260471   1.209   3.674   0.494  2.4500 -1.2791  3.6541
12994TIP3   OH260472   4.218   5.184   2.448  0.0688 -0.5950  0.7559
12994TIP3    H160473   4.284   5.252   2.435 -0.3668 -0.1429  0.8994
12994TIP3    H260474   4.151   5.202   2.381 -0.3449 -0.5138  1.1880
12995TIP3   OH260475   5.612   1.666   4.570 -0.1569  0.1343  0.3894
12995TIP3    H160476   5.539   1.607   4.589  0.7627 -0.2047  3.3781
12995TIP3    H260477   5.610   1.677   4.474 -2.7372 -1.5791  0.1492
12996TIP3   OH260478   6.006   1.527   4.006 -0.1564  0.8747  0.3250
12996TIP3    H160479   6.102   1.532   4.005 -0.0998  0.1895 -1.1360
12996TIP3    H260480   5.980   1.579   4.081  1.3887  0.6782  1.0434
12997TIP3   OH260481   4.667   3.902  15.835  0.5529  0.2794  0.3371
12997TIP3    H160482   4.737   3.853  15.877 -0.1642  0.1307  1.4074
12997TIP3    H260483   4.646   3.972  15.897 -2.1729 -1.3639  1.4775
12998TIP3   OH260484   2.469   0.124  14.678  0.3214 -0.3736 -0.3987
12998TIP3    H160485   2.418   0.057  14.633 -0.7710  0.6177 -0.7160
12998TIP3    H260486   2.480   0.091  14.767 -2.9000  0.3162  0.3861
12999TIP3   OH260487   2.026   5.933  14.793  0.0291  0.0943 -0.0569
12999TIP3    H160488   2.035   6.006  14.731 -1.8726  0.1716 -0.2876
12999TIP3    H260489   1.941   5.947  14.835  1.0978 -0.1519  2.3522
13000TIP3   OH260490   1.550   0.221   3.797  0.2762  0.1327 -0.2365
13000TIP3    H160491   1.483   0.286   3.819  0.0917  0.0855 -0.6528
13000TIP3    H260492   1.525   0.189   3.711  1.4229  0.8940 -0.8855
13001TIP3   OH260493   5.386   0.559   6.459  0.3740 -0.2583 -0.2160
13001TIP3    H160494   5.306   0.532   6.415  0.8546  0.0132 -1.2981
13001TIP3    H260495   5.362   0.565   6.552 -1.0619  0.5751 -0.6097
13002TIP3   OH260496   5.053   2.830  14.053 -0.1278 -0.1535  0.6767
13002TIP3    H160497   5.088   2.741  14.060  1.7827  0.5442  0.4175
13002TIP3    H260498   5.127   2.883  14.026 -1.6518  1.2386 -1.0075
13003TIP3   OH260499   0.755   2.795   4.827  0.0806 -0.4620 -0.1821
13003TIP3    H160500   0.752   2.836   4.741  1.6082  1.9029  0.8117
13003TIP3    H260501   0.845   2.806   4.856 -0.2435 -1.7949  1.4811
13004TIP3   OH260502   3.242   4.032   5.241 -0.0055 -0.2725  0.1218
13004TIP3    H160503   3.243   4.073   5.327 -0.8255  0.3495 -0.1440
13004TIP3    H260504   3.237   3.938   5.259 -1.1555 -0.1058  0.7708
13005TIP3   OH260505   1.823   2.364  14.305  0.1841 -0.3197  0.2174
13005TIP3    H160506   1.750   2.417  14.273  0.7107 -0.3197 -1.0441
13005TIP3    H260507   1.885   2.428  14.339 -1.2177 -0.3949  3.2700
13006TIP3   OH260508   3.784   0.832  12.358  0.5405  0.2458  0.1656
13006TIP3    H160509   3.828   0.893  12.299 -0.6906 -0.9138 -2.0655
13006TIP3    H260510   3.810   0.861  12.446  2.7771  1.7915 -0.9163
13007TIP3   OH260511   1.535   1.155  13.527 -0.2314 -0.1591 -0.2233
13007TIP3    H160512   1.583   1.119  13.602 -0.8685 -0.5149  0.0175
13007TIP3    H260513   1.574   1.241  13.513  0.0960 -0.2126  0.3292
13008TIP3   OH260514   2.634   1.232   1.836 -0.0578  0.2067 -0.2989
13008TIP3    H160515   2.705   1.175   1.806  0.5666  1.0332 -0.4464
13008TIP3    H260516   2.638   1.227   1.931  0.3632  0.4255 -0.2995
13009TIP3   OH260517   2.536   4.930  13.193  1.3261  0.0179  0.5270
13009TIP3    H160518   2.626   4.951  13.167  0.5554  2.2547 -0.6195
13009TIP3    H260519   2.509   5.003  13.248  0.0846 -0.4009  0.5119
13010TIP3   OH260520   6.397   5.136   5.046  0.0605 -0.2175  0.2615
13010TIP3    H160521   6.422   5.046   5.025 -0.5429  0.0012 -1.5991
13010TIP3    H260522   6.362   5.171   4.964 -0.9273  1.3124  1.2767
13011TIP3   OH260523   2.071   5.410   0.523  0.0023  0.1658  0.5551
13011TIP3    H160524   2.094   5.462   0.446 -0.9663  1.0186  0.8165
13011TIP3    H260525   1.975   5.409   0.524 -0.0002 -0.3864  1.3908
13012TIP3   OH260526   5.222   1.009   2.941 -0.2254 -0.2615  0.2456
13012TIP3    H160527   5.304   1.018   2.988  0.1513 -0.7757 -0.2998
13012TIP3    H260528   5.211   1.093   2.896  0.3401 -0.4228 -0.2049
13013TIP3   OH260529   2.354   5.983   5.339  0.0941  0.5717 -0.0448
13013TIP3    H160530   2.386   6.015   5.255  1.4262  2.7412  1.1871
13013TIP3    H260531   2.261   5.968   5.326 -0.3948  3.7743 -1.1810
13014TIP3   OH260532   2.259   5.761  14.453 -0.7432  0.1793  0.4278
13014TIP3    H160533   2.275   5.783  14.361  0.3270  2.8318  1.1519
13014TIP3    H260534   2.346   5.741  14.488 -1.2031 -1.2614  0.7913
13015TIP3   OH260535   0.936   4.837   1.357 -0.0243 -0.2723  0.6142
13015TIP3    H160536   0.982   4.803   1.280  0.0637 -0.4298  0.7362
13015TIP3    H260537   0.844   4.822   1.338 -0.1721  1.5839 -0.3903
13016TIP3   OH260538   2.335   2.905   3.742  0.3608 -0.5237 -0.1051
13016TIP3    H160539   2.427   2.884   3.758 -0.1088 -2.1196  0.7491
13016TIP3    H260540   2.304   2.946   3.822  0.4963  0.7497 -0.6773
13017TIP3   OH260541   2.311   5.325  14.595  0.1600 -0.9810 -0.3689
13017TIP3    H160542   2.240   5.310  14.658  1.1989  0.4932  1.2400
13017TIP3    H260543   2.268   5.371  14.522 -0.6868 -0.8148  0.2161
13018TIP3   OH260544   2.266   2.669   0.208 -0.3435  0.1411  0.1523
13018TIP3    H160545   2.236   2.706   0.291  1.5674  3.8293 -0.6130
13018TIP3    H260546   2.194   2.682   0.147 -1.1050 -1.0183  0.7687
13019TIP3   OH260547   0.888   5.531  10.868  0.2735 -0.0769  1.3523
13019TIP3    H160548   0.847   5.600  10.920  1.2177  2.3084 -0.8402
13019TIP3    H260549   0.981   5.534  10.892  0.8414  1.4925 -0.7672
13020TIP3   OH260550   3.937   3.295   1.919 -0.2324 -0.0193 -0.6411
13020TIP3    H160551   4.009   3.304   1.857 -0.7634 -0.4449 -1.3266
13020TIP3    H260552   3.862   3.337   1.877 -0.6331 -0.4258 -0.3548
13021TIP3   OH260553   3.577   3.017  15.885  0.1018  0.2067 -0.1054
13021TIP3    H160554   3.615   3.104  15.900 -0.2303  0.3307  0.0202
13021TIP3    H260555   3.632   2.958  15.937  0.1438  0.3808  0.0509
13022TIP3   OH260556   0.053   5.976   2.219  0.0757  0.3685 -0.0735
13022TIP3    H160557   0.079   6.054   2.267 -0.7908  0.0856  0.9106
13022TIP3    H260558   0.123   5.962   2.156  2.2176 -0.2379  2.2615
13023TIP3   OH260559   3.925   0.303   0.949 -0.8189 -0.0492  0.0259
13023TIP3    H160560   3.947   0.284   0.858  1.9528 -0.9512  0.8025
13023TIP3    H260561   3.869   0.381   0.944 -0.4676  0.1317 -2.4205
13024TIP3   OH260562   3.850   0.680   4.255 -0.2014 -0.6216 -0.1109
13024TIP3    H160563   3.924   0.624   4.232  0.0667 -1.3098  2.1772
13024TIP3    H260564   3.828   0.654   4.344 -2.2590  0.6182 -0.2066
13025TIP3   OH260565   4.827   2.939   1.671 -1.1293 -0.2045 -0.0054
13025TIP3    H160566   4.898   2.937   1.736 -0.0101 -0.3679 -1.2052
13025TIP3    H260567   4.748   2.948   1.724 -0.2822 -0.6476  1.4102
13026TIP3   OH260568   4.408   0.388  16.088  0.0043 -0.2638  0.1353
13026TIP3    H160569   4.349   0.334  16.141 -0.1469 -0.5396 -0.3096
13026TIP3    H260570   4.492   0.341  16.090  0.4156  0.4719  1.3297
13027TIP3   OH260571   0.144   4.273  11.725 -0.0641 -0.1192 -0.0250
13027TIP3    H160572   0.197   4.308  11.654  1.2748 -0.1987  0.8982
13027TIP3    H260573   0.054   4.296  11.701  0.3602 -0.0242 -1.6541
13028TIP3   OH260574   5.277   2.955   3.538 -0.1818  0.0736 -0.1831
13028TIP3    H160575   5.318   2.982   3.620  0.3983 -1.8551  0.2208
13028TIP3    H260576   5.340   2.895   3.499 -1.5957 -1.1080 -0.7290
13029TIP3   OH260577   0.118   1.654  12.955 -0.3394  0.1977 -0.0573
13029TIP3    H160578   0.094   1.736  12.912 -3.1284  0.1848  1.2685
13029TIP3    H260579   0.047   1.594  12.934 -0.2994 -0.6828  2.0792
13030TIP3   OH260580   3.615   0.524   4.821 -0.4839  0.1838  0.3706
13030TIP3    H160581   3.698   0.504   4.778 -0.6619  1.6252 -0.7088
13030TIP3    H260582   3.556   0.454   4.792  0.0094 -0.1521  0.1493
13031TIP3   OH260583   1.939   5.515  13.861 -0.1723 -0.3210  0.4366
13031TIP3    H160584   1.859   5.567  13.876  0.1753 -0.1422  1.6973
13031TIP3    H260585   1.961   5.478  13.946  1.0875 -0.3890  0.1035
13032TIP3   OH260586   6.039   5.546  15.938  0.3671  0.0889  0.1981
13032TIP3    H160587   6.016   5.636  15.916 -0.7384 -0.6133 -1.7180
13032TIP3    H260588   6.095   5.554  16.016 -0.1897  2.3630  0.4301
13033TIP3   OH260589   5.845   2.791  11.668  0.2249  0.1116 -0.1700
13033TIP3    H160590   5.855   2.815  11.761  0.6968  0.2926 -0.2633
13033TIP3    H260591   5.914   2.726  11.654  2.7175  2.7630 -1.3271
13034TIP3   OH260592   5.597   1.292   5.817 -0.0346 -0.4496  0.3072
13034TIP3    H160593   5.502   1.304   5.804 -0.2686 -1.9519  0.4614
13034TIP3    H260594   5.603   1.222   5.882  1.1935  0.6344  1.4091
13035TIP3   OH260595   5.457   4.829   1.185  0.1091 -0.4475 -0.5937
13035TIP3    H160596   5.522   4.859   1.248 -1.6741  0.6207  0.8458
13035TIP3    H260597   5.421   4.749   1.224 -1.6421  0.7081  0.2918
13036TIP3   OH260598   5.458   5.967  14.483 -0.5699 -0.3933 -0.2467
13036TIP3    H160599   5.541   5.947  14.527  0.4478  2.8975 -0.3795
13036TIP3    H260600   5.397   5.984  14.555 -0.1937  0.3847 -0.0987
13037TIP3   OH260601   3.730   5.822   5.778  0.6134 -0.6096  0.5775
13037TIP3    H160602   3.724   5.867   5.862 -2.4977  0.8330 -0.2520
13037TIP3    H260603   3.718   5.729   5.798 -2.3599 -0.0910  1.6442
13038TIP3   OH260604   5.401   4.903   2.124 -0.0526 -0.2985  0.0278
13038TIP3    H160605   5.468   4.911   2.192  1.1017 -0.2461 -1.0949
13038TIP3    H260606   5.337   4.842   2.161 -1.1139  2.0244  2.4635
13039TIP3   OH260607   5.271   1.317  14.054  0.0817 -0.2007  0.3459
13039TIP3    H160608   5.269   1.344  13.962  1.6732  0.1598  0.3844
13039TIP3    H260609   5.246   1.396  14.102  2.5708  0.6869  0.3436
13040TIP3   OH260610   0.232   5.183  12.158 -0.3042  1.0844  0.3899
13040TIP3    H160611   0.177   5.160  12.232 -1.2753  1.5455 -0.1666
13040TIP3    H260612   0.190   5.142  12.082 -0.6470  2.5225 -0.2338
13041TIP3   OH260613   5.398   6.444   4.660  0.6346 -0.7445  0.2658
13041TIP3    H160614   5.366   6.358   4.633  0.4704 -1.1209  1.6223
13041TIP3    H260615   5.488   6.428   4.688  0.6206 -0.4569  0.4718
13042TIP3   OH260616   5.294   0.212  15.218  0.3838  0.1717 -0.1258
13042TIP3    H160617   5.295   0.304  15.192  1.9498  0.6363  1.3724
13042TIP3    H260618   5.251   0.211  15.304 -1.8859 -0.8979 -1.1779
13043TIP3   OH260619   5.929   4.714  14.325 -0.4793  0.3465 -0.1122
13043TIP3    H160620   5.929   4.792  14.381 -0.8612  0.4020 -0.1857
13043TIP3    H260621   5.893   4.744  14.242 -0.5185  0.1188 -0.1775
13044TIP3   OH260622   1.768   5.965  14.865 -0.0846  0.0379 -0.4887
13044TIP3    H160623   1.701   5.902  14.840 -1.7559  2.0073 -1.3390
13044TIP3    H260624   1.753   5.981  14.958  0.5607 -1.0182 -0.1905
13045TIP3   OH260625   5.239   3.795  12.648  0.5874  0.3555  0.1250
13045TIP3    H160626   5.275   3.862  12.590  0.4069  0.4174  0.0855
13045TIP3    H260627   5.289   3.804  12.729  0.3242  0.7685  0.2413
13046TIP3   OH260628   3.893   2.928  16.416 -0.3580  0.8765  0.2954
13046TIP3    H160629   3.924   2.847  16.456 -1.7601  0.8921  1.5148
13046TIP3    H260630   3.904   2.914  16.322  0.4900 -0.2602  0.5406
13047TIP3   OH260631   2.599   6.654   2.820  0.0568  0.4003  0.5179
13047TIP3    H160632   2.670   6.601   2.857  1.0986  1.3025 -0.1236
13047TIP3    H260633   2.596   6.732   2.875  0.3162  0.8645 -0.1148
13048TIP3   OH260634   3.194   5.993  14.501 -0.3630 -0.1463 -0.0300
13048TIP3    H160635   3.280   5.958  14.480 -0.3506  0.5613 -1.2710
13048TIP3    H260636   3.207   6.043  14.582  0.3686 -0.1255 -0.1557
13049TIP3   OH260637   0.453   5.548  11.402 -0.1016  0.3832  0.0717
13049TIP3    H160638   0.406   5.533  11.320  1.4511  1.8077 -1.1421
13049TIP3    H260639   0.458   5.462  11.443 -1.2677 -0.2852 -1.1136
13050TIP3   OH260640   5.676   1.387   6.820  0.3112  0.1739  0.3914
13050TIP3    H160641   5.670   1.412   6.728 -0.7216  1.9546  0.8898
13050TIP3    H260642   5.724   1.305   6.819  0.6242  0.3156 -1.7060
13051TIP3   OH260643   6.720   3.667   4.386  0.6670 -0.2493 -0.3486
13051TIP3    H160644   6.784   3.687   4.454 -0.0297 -0.6475  0.4563
13051TIP3    H260645   6.695   3.752   4.350  1.0213 -0.0333 -0.0815
13052TIP3   OH260646   1.606   4.254   5.073  0.2117  0.5127  0.1753
13052TIP3    H160647   1.691   4.222   5.040 -1.3673 -2.0117 -1.8350
13052TIP3    H260648   1.571   4.306   5.002 -0.4882  0.4431  0.4667
13053TIP3   OH260649   1.429   6.524  15.105 -0.2286 -0.5442  0.0266
13053TIP3    H160650   1.347   6.476  15.118 -0.9758  0.3292 -1.2198
13053TIP3    H260651   1.433   6.540  15.011  0.9462  0.1806  0.1784
13054TIP3   OH260652   1.695   6.578   0.139 -0.1994  0.2230 -0.1202
13054TIP3    H160653   1.694   6.525   0.059 -0.4050 -0.0290  0.0481
13054TIP3    H260654   1.673   6.516   0.209 -0.3535  0.5125  0.0879
13055TIP3   OH260655   6.188   2.640   5.721  0.3264  0.0790 -0.5331
13055TIP3    H160656   6.277   2.618   5.693  0.4025  2.0096 -2.0680
13055TIP3    H260657   6.198   2.717   5.777 -0.1446 -1.8141  2.3518
13056TIP3   OH260658   2.880   1.959   5.577 -0.3385 -0.1873 -0.2509
13056TIP3    H160659   2.837   1.930   5.657 -0.3458  1.3240  0.3306
13056TIP3    H260660   2.810   1.967   5.512 -0.7261  0.7763  0.2586
13057TIP3   OH260661   1.910   3.227  13.019  0.4818 -0.0332 -0.7608
13057TIP3    H160662   1.819   3.203  13.036  0.7217 -0.2123  0.3652
13057TIP3    H260663   1.943   3.259  13.103  1.6739 -0.6870 -0.9529
13058TIP3   OH260664   4.872   6.695   3.332  0.5565  0.1938  0.0067
13058TIP3    H160665   4.961   6.717   3.360  0.5775 -0.6380  0.6037
13058TIP3    H260666   4.866   6.600   3.340 -1.2709  0.4263  2.6855
13059TIP3   OH260667   3.673   4.535  13.874  0.3647 -0.2533 -0.0812
13059TIP3    H160668   3.586   4.497  13.866 -0.2945  1.1498  0.1606
13059TIP3    H260669   3.696   4.521  13.966 -0.0413  0.2647  0.1036
13060TIP3   OH260670   6.269   2.246  12.303 -0.1594 -0.0561 -0.3098
13060TIP3    H160671   6.287   2.279  12.391  2.4180  1.3101 -1.2396
13060TIP3    H260672   6.285   2.152  12.309  0.3541  0.0746  0.6151
13061TIP3   OH260673   1.539   3.814   2.336  0.7793  0.0020  1.0269
13061TIP3    H160674   1.518   3.908   2.335  1.4388  0.2137 -2.1415
13061TIP3    H260675   1.459   3.772   2.306  0.8135 -0.3788  1.4625
13062TIP3   OH260676   5.192   4.655   1.962  0.3146  0.2554 -0.1711
13062TIP3    H160677   5.257   4.613   2.018  0.3191 -0.2762 -0.5632
13062TIP3    H260678   5.109   4.641   2.007  0.3818  0.2837 -0.0386
13063TIP3   OH260679   2.193   3.224  15.659  0.1865  0.0004  0.2254
13063TIP3    H160680   2.108   3.217  15.704  0.9533  0.1675  1.7388
13063TIP3    H260681   2.197   3.144  15.606 -0.6483 -0.3318  0.6303
13064TIP3   OH260682   2.010   0.485  14.696 -0.0291 -0.8302  0.0490
13064TIP3    H160683   1.960   0.513  14.772  0.7862 -0.9086  0.6295
13064TIP3    H260684   2.048   0.566  14.661  1.2219 -1.0239  0.9220
13065TIP3   OH260685   6.586   0.778  13.905 -0.1028 -0.4416  0.2595
13065TIP3    H160686   6.545   0.711  13.959  1.4100  0.0958  2.1988
13065TIP3    H260687   6.658   0.812  13.959  1.0077  0.7044 -1.8025
13066TIP3   OH260688   2.165   2.984   0.009  0.6402  0.0069  0.5128
13066TIP3    H160689   2.096   2.958  -0.051  1.8508 -1.8229 -0.1963
13066TIP3    H260690   2.153   2.926   0.085  0.9252  0.1995  0.7069
13067TIP3   OH260691   3.664   1.432   1.223  0.0253 -0.3878  0.3890
13067TIP3    H160692   3.666   1.519   1.183  0.9345 -0.3754  0.4524
13067TIP3    H260693   3.730   1.382   1.175 -1.9889 -1.7412 -1.1783
13068TIP3   OH260694   0.509   3.073   5.535  0.5555  0.5516 -0.1199
13068TIP3    H160695   0.566   3.150   5.532 -0.6638  1.5362  0.7634
13068TIP3    H260696   0.473   3.073   5.624 -0.1897 -0.5058 -0.3940
13069TIP3   OH260697   2.373   4.422   3.885  0.5128  0.3163 -0.2455
13069TIP3    H160698   2.447   4.435   3.825  1.0276  1.4512  0.6050
13069TIP3    H260699   2.335   4.509   3.895 -0.7113 -0.1840 -0.3548
13070TIP3   OH260700   0.472   1.151  12.232 -0.7058 -0.3080  0.1592
13070TIP3    H160701   0.517   1.122  12.311 -2.3039 -1.4520  0.7075
13070TIP3    H260702   0.527   1.221  12.197  1.0343 -1.1011  1.2012
13071TIP3   OH260703   1.934   5.763  11.460  0.4280 -0.2385  0.1287
13071TIP3    H160704   1.849   5.793  11.427  0.6914  1.5116  0.9689
13071TIP3    H260705   1.912   5.697  11.526 -0.2636  0.1696  0.3110
13072TIP3   OH260706   2.854   5.550  14.955 -0.4135  0.4163  0.3782
13072TIP3    H160707   2.887   5.558  14.865 -0.6883  0.9164  0.3221
13072TIP3    H260708   2.876   5.460  14.980 -1.6259 -0.2095 -0.7044
13073TIP3   OH260709   5.741   5.263  11.512  0.0128 -0.0199 -0.3408
13073TIP3    H160710   5.805   5.203  11.473 -0.3202 -0.8702  0.3788
13073TIP3    H260711   5.791   5.342  11.532  0.2676  0.3369 -2.1607
13074TIP3   OH260712   3.169   0.297  15.405  0.3763 -0.2055 -0.4451
13074TIP3    H160713   3.124   0.282  15.322 -1.2965  0.3995  0.3010
13074TIP3    H260714   3.212   0.382  15.395 -1.7890  1.0224  0.0517
13075TIP3   OH260715   4.745   0.581  13.430  0.3198 -0.1630  0.3835
13075TIP3    H160716   4.779   0.630  13.354  2.8026  0.5384  1.8282
13075TIP3    H260717   4.679   0.638  13.467  0.1543  0.1617 -0.3821
13076TIP3   OH260718   4.895   6.288   3.482  0.8961  0.4285  0.1806
13076TIP3    H160719   4.934   6.354   3.539  0.6159  0.0625  0.8003
13076TIP3    H260720   4.897   6.327   3.395  1.0398  1.1157  0.4918
13077TIP3   OH260721   0.777   1.420   5.926  0.4014  0.1918 -0.2785
13077TIP3    H160722   0.754   1.410   5.833  0.6578  0.2807 -0.3510
13077TIP3    H260723   0.796   1.331   5.955 -1.0915 -0.0473  0.0630
13078TIP3   OH260724   4.816   4.835   1.335 -0.2064  0.0663  0.1456
13078TIP3    H160725   4.814   4.815   1.241 -0.5925 -0.7507  0.3196
13078TIP3    H260726   4.806   4.750   1.378 -1.1875  0.5558  0.9172
13079TIP3   OH260727   0.794   1.035   1.296  0.1680 -0.2604 -0.3958
13079TIP3    H160728   0.868   0.982   1.324  1.6115  1.7489 -0.2335
13079TIP3    H260729   0.782   1.013   1.204  1.1662 -0.3995 -0.5048
13080TIP3   OH260730   3.170   5.519  17.256 -0.1054  0.8240 -0.6043
13080TIP3    H160731   3.128   5.583  17.199  0.7970  1.4137 -0.6155
13080TIP3    H260732   3.263   5.540  17.253  0.0206  0.5635  0.6983
13081TIP3   OH260733   0.967   2.235  13.660  0.5971  0.0499 -0.4018
13081TIP3    H160734   0.937   2.220  13.750  2.4078  1.0176  0.4131
13081TIP3    H260735   0.992   2.149  13.628 -0.9294 -0.4471 -0.3466
13082TIP3   OH260736   2.098   1.883   4.221  0.1419  0.3405  0.4364
13082TIP3    H160737   2.114   1.846   4.308  0.0329 -0.9561 -0.0708
13082TIP3    H260738   2.049   1.963   4.237  1.7701  1.1351  1.6688
13083TIP3   OH260739   0.517   2.502  12.061  0.1895  0.3497  0.3618
13083TIP3    H160740   0.574   2.571  12.094  0.6366  0.3966 -0.4778
13083TIP3    H260741   0.429   2.529  12.087  0.3061  1.4950 -0.3618
13084TIP3   OH260742   4.886   6.224  11.566  1.0655  0.1670 -0.0247
13084TIP3    H160743   4.951   6.255  11.503  0.0340  0.8034 -0.8188
13084TIP3    H260744   4.828   6.168  11.514  0.4458  0.3515  0.4578
13085TIP3   OH260745   4.374   3.009   5.921 -0.0838 -0.1419 -0.1539
13085TIP3    H160746   4.368   2.984   6.013 -0.5093  0.1865 -0.0895
13085TIP3    H260747   4.331   3.094   5.916 -0.4507 -0.3557 -0.7275
13086TIP3   OH260748   6.279   4.735  16.605 -1.2184 -0.1139  0.1139
13086TIP3    H160749   6.261   4.803  16.541 -2.3549  1.0157  1.5526
13086TIP3    H260750   6.285   4.782  16.689  0.5407 -1.4783  0.8240
13087TIP3   OH260751   0.927   4.004  13.244 -0.0230  0.2830 -0.1461
13087TIP3    H160752   0.900   4.029  13.332  0.1892 -2.5407  0.8271
13087TIP3    H260753   0.862   3.939  13.216  0.4593  0.4206 -1.6813
13088TIP3   OH260754   3.066   6.792   4.259  0.0412 -0.2021 -0.4755
13088TIP3    H160755   3.042   6.700   4.249 -1.2087  0.1993 -1.3580
13088TIP3    H260756   2.984   6.836   4.280  0.8210  0.5629  1.1708
13089TIP3   OH260757   3.738   6.797   2.564  0.3121  0.0856 -0.4769
13089TIP3    H160758   3.755   6.814   2.471  1.0244  0.0404 -0.3603
13089TIP3    H260759   3.684   6.871   2.592  1.1383  0.7721 -0.6329
13090TIP3   OH260760   5.242   6.588   6.324 -0.0778 -0.6033 -0.0064
13090TIP3    H160761   5.287   6.517   6.278  0.8164  0.3867 -0.7132
13090TIP3    H260762   5.311   6.652   6.343 -0.5378 -0.6426  2.1081
13091TIP3   OH260763   5.494   4.625  13.261  0.1049  0.7093  0.9957
13091TIP3    H160764   5.562   4.669  13.210  0.4041  2.1967  2.5927
13091TIP3    H260765   5.527   4.627  13.352 -1.8383  1.0070  1.7300
13092TIP3   OH260766   0.472   5.704   5.491  0.4183  0.2572  0.0632
13092TIP3    H160767   0.465   5.798   5.471 -1.7251  0.1484  0.0625
13092TIP3    H260768   0.530   5.670   5.423 -0.0672  1.3274 -0.9349
13093TIP3   OH260769   6.573   5.456   1.365 -0.0341  0.0776  0.3531
13093TIP3    H160770   6.517   5.468   1.442 -0.0666  0.2970  0.2968
13093TIP3    H260771   6.659   5.485   1.394  0.6397 -2.4473  1.1836
13094TIP3   OH260772   0.732   4.989  13.831 -0.2861  0.6239 -0.3015
13094TIP3    H160773   0.818   4.968  13.793  0.1520 -1.0087  1.4334
13094TIP3    H260774   0.753   5.032  13.915 -1.1970  1.5895 -0.5500
13095TIP3   OH260775   4.759   6.188   0.780 -0.4679  0.0589  0.2251
13095TIP3    H160776   4.817   6.113   0.783  1.2025  1.2654 -0.4937
13095TIP3    H260777   4.757   6.213   0.688 -3.1382 -0.6593  0.0053
13096TIP3   OH260778   2.182   3.996  11.356 -0.1873  0.4000 -0.4675
13096TIP3    H160779   2.244   4.002  11.283 -0.1041  1.7117 -0.3111
13096TIP3    H260780   2.099   3.971  11.315  0.3199 -0.9811 -0.7251
13097TIP3   OH260781   0.788   1.038  16.447 -0.3409  0.0411 -0.6397
13097TIP3    H160782   0.831   1.072  16.368 -1.0102  2.1013 -0.1898
13097TIP3    H260783   0.716   0.984  16.414  0.8303 -1.1341 -1.3932
13098TIP3   OH260784   5.659   3.869  12.713  0.0655  0.2076 -0.2304
13098TIP3    H160785   5.754   3.868  12.701 -0.0472  0.6373 -1.2401
13098TIP3    H260786   5.641   3.956  12.748  0.0219  0.1801 -0.1845
13099TIP3   OH260787   4.570   6.421   0.051 -0.5142 -0.4913  0.2616
13099TIP3    H160788   4.663   6.443   0.055 -0.6097  0.1388 -0.6081
13099TIP3    H260789   4.526   6.493   0.096 -0.5788 -0.8649  0.8068
13100TIP3   OH260790   3.297   0.556  15.425 -0.0385  0.3176  0.5540
13100TIP3    H160791   3.291   0.608  15.505 -0.1321  1.0478  0.0855
13100TIP3    H260792   3.314   0.621  15.356  1.3311 -0.4301  0.1646
13101TIP3   OH260793   0.524   6.430  15.830  0.0315 -0.3005 -0.0610
13101TIP3    H160794   0.620   6.427  15.833  0.0368 -2.8801 -1.1314
13101TIP3    H260795   0.504   6.463  15.743 -0.1637  3.0996  1.1126
13102TIP3   OH260796   1.057   4.991  16.359 -0.3481  0.1371  0.4951
13102TIP3    H160797   0.993   4.950  16.417 -0.4885 -1.2972 -0.6200
13102TIP3    H260798   1.127   4.926  16.352  1.3752  1.7449  1.8408
13103TIP3   OH260799   3.791   0.531  16.196 -0.2658 -0.3543 -0.0829
13103TIP3    H160800   3.822   0.610  16.152 -0.0451  0.5073  1.5516
13103TIP3    H260801   3.843   0.460  16.158  0.4097  0.4482 -0.6905
13104TIP3   OH260802   5.061   0.154   1.595  0.0138  0.3775  0.3085
13104TIP3    H160803   5.147   0.117   1.615 -0.7039 -0.4972  1.9832
13104TIP3    H260804   5.078   0.221   1.529  1.8475 -0.4161 -0.0738
13105TIP3   OH260805   4.321   4.430   5.060  0.2894  0.5410  0.0842
13105TIP3    H160806   4.367   4.504   5.100 -0.0209  0.8948 -0.2163
13105TIP3    H260807   4.340   4.356   5.119  1.8240  0.5107 -0.3973
13106TIP3   OH260808   4.284   4.800   0.321 -0.0654 -0.7083  0.6091
13106TIP3    H160809   4.225   4.804   0.397 -0.6853 -2.3989  0.2806
13106TIP3    H260810   4.371   4.815   0.357 -0.4961 -0.0442  1.4162
13107TIP3   OH260811   6.262   1.608  16.920 -0.2327 -0.4369  0.3766
13107TIP3    H160812   6.218   1.657  16.990 -0.7843  0.5830 -0.6441
13107TIP3    H260813   6.249   1.662  16.842  0.0156 -1.7393 -0.5996
13108TIP3   OH260814   5.574   1.214   4.925  0.2477 -0.5860  0.0760
13108TIP3    H160815   5.509   1.280   4.950  1.2259  0.0533  1.0950
13108TIP3    H260816   5.649   1.265   4.894  1.0441 -1.2036  0.9263
13109TIP3   OH260817   4.979   1.032  14.794  0.4685  0.7732 -0.1794
13109TIP3    H160818   5.018   1.089  14.728 -2.5566  3.3736  0.0535
13109TIP3    H260819   5.043   1.030  14.865  1.8826  1.5140 -1.3803
13110TIP3   OH260820   2.195   5.396  12.048 -0.0228 -0.2523 -0.5696
13110TIP3    H160821   2.254   5.366  12.117  0.1305 -0.6861 -0.8851
13110TIP3    H260822   2.175   5.486  12.071  0.8028 -0.0848 -0.4849
13111TIP3   OH260823   6.315   6.394   2.458  0.5573 -0.1104  0.1535
13111TIP3    H160824   6.256   6.322   2.437 -0.1905  0.5734 -0.1678
13111TIP3    H260825   6.403   6.356   2.455  0.1878 -0.9524 -0.1992
13112TIP3   OH260826   0.477   4.432   2.813 -0.0940  0.1476  0.0119
13112TIP3    H160827   0.411   4.379   2.769 -1.2092  0.7852  0.8635
13112TIP3    H260828   0.432   4.513   2.835  0.8403  0.4150  1.0480
13113TIP3   OH260829   3.680   4.472   1.637 -0.1099  0.2472 -0.3554
13113TIP3    H160830   3.634   4.554   1.659  0.6390  0.5180  0.2399
13113TIP3    H260831   3.698   4.480   1.543  0.7539  1.1943 -0.1358
13114TIP3   OH260832   2.137   3.859   3.350  0.1291  0.0548 -0.4871
13114TIP3    H160833   2.108   3.774   3.383  0.5621 -0.2932 -0.9879
13114TIP3    H260834   2.099   3.864   3.262  2.6982 -1.0602 -1.7680
13115TIP3   OH260835   0.617   6.254   0.673 -0.0032  0.3324  0.4705
13115TIP3    H160836   0.551   6.294   0.731 -3.2779 -1.7560 -1.4677
13115TIP3    H260837   0.655   6.328   0.626 -0.6583  1.6650  1.9121
13116TIP3   OH260838   1.127   4.497  14.406  0.0691 -0.1691 -0.1711
13116TIP3    H160839   1.216   4.463  14.413  0.0157 -0.0047  1.6034
13116TIP3    H260840   1.139   4.590  14.388  0.2477 -0.1427  0.0836
13117TIP3   OH260841   4.447   5.925  13.583  0.4256 -0.2156  0.1381
13117TIP3    H160842   4.480   5.872  13.510 -0.8305 -1.5228  0.4753
13117TIP3    H260843   4.485   5.885  13.661  1.0967  0.6735  0.2917
13118TIP3   OH260844   2.043   3.843   3.090  0.1696 -0.1523  0.6163
13118TIP3    H160845   2.103   3.900   3.043  1.1727 -1.3584  0.3705
13118TIP3    H260846   1.957   3.865   3.057  0.8133 -0.7822 -1.6270
13119TIP3   OH260847   5.849   4.440  12.177  0.4890  0.2193  0.3331
13119TIP3    H160848   5.867   4.350  12.150  0.7727 -0.0305  1.3002
13119TIP3    H260849   5.930   4.468  12.220  0.8655  1.3892 -1.0451
13120TIP3   OH260850   5.653   6.383   5.828  0.1760 -0.4179 -0.1752
13120TIP3    H160851   5.594   6.435   5.883 -1.2383 -1.3533 -0.7542
13120TIP3    H260852   5.741   6.408   5.857 -0.4892 -0.7878  2.4267
13121TIP3   OH260853   1.656   3.840  11.130  0.1716  0.2473  0.1108
13121TIP3    H160854   1.632   3.932  11.134 -0.4599  0.1082 -0.3598
13121TIP3    H260855   1.680   3.826  11.038 -1.9687 -0.5845 -0.3842
13122TIP3   OH260856   2.840   0.846   4.604  0.1420  0.2900 -0.1592
13122TIP3    H160857   2.762   0.791   4.611  1.2282 -1.4226 -0.9184
13122TIP3    H260858   2.885   0.814   4.526  2.4258  0.1484  1.1501
13123TIP3   OH260859   4.600   4.193  11.693  0.1556  0.7142  0.3855
13123TIP3    H160860   4.606   4.156  11.781 -1.2956 -0.2200  0.1198
13123TIP3    H260861   4.661   4.141  11.640  1.0543  1.2977  0.8083
13124TIP3   OH260862   6.291   1.342  10.806 -0.3282 -0.6216 -0.1734
13124TIP3    H160863   6.199   1.315  10.806  0.0740 -2.0866  0.3942
13124TIP3    H260864   6.336   1.275  10.756  0.7102 -1.0520  1.2786
13125TIP3   OH260865   6.591   4.201   0.289  0.1057  0.0047  0.8138
13125TIP3    H160866   6.614   4.214   0.381  2.2144  0.7202  0.2317
13125TIP3    H260867   6.554   4.113   0.286 -0.6230  0.2260  2.4361
13126TIP3   OH260868   5.011   2.442   0.849  0.0663  0.1657 -0.0950
13126TIP3    H160869   4.983   2.412   0.936  1.5464 -1.7376 -0.2053
13126TIP3    H260870   4.960   2.391   0.788  0.2231  0.2874 -0.3318
13127TIP3   OH260871   0.746   2.541  13.160 -0.4408  0.3954 -0.4987
13127TIP3    H160872   0.759   2.624  13.207 -1.6927 -0.2134  1.0116
13127TIP3    H260873   0.833   2.519  13.127  0.5642  0.8411  1.6402
13128TIP3   OH260874   4.050   5.821   4.704  0.5643  0.0708  0.4145
13128TIP3    H160875   3.970   5.871   4.687  0.0927 -1.0327 -0.7399
13128TIP3    H260876   4.118   5.887   4.714 -0.2690  0.9842  0.1795
13129TIP3   OH260877   2.947   3.602   1.052  0.0091  0.1503 -0.7681
13129TIP3    H160878   3.008   3.641   0.990 -0.4607  0.3810 -1.0958
13129TIP3    H260879   2.868   3.656   1.045  0.0857  0.4313  0.3287
13130TIP3   OH260880   2.084   4.538   5.993 -0.2279 -0.5194 -0.4552
13130TIP3    H160881   2.114   4.453   6.025  0.9204  0.0501  0.0527
13130TIP3    H260882   2.124   4.547   5.906  3.2872  1.2452  1.1310
13131TIP3   OH260883   3.764   0.803   1.203 -0.0081 -0.3228 -0.7608
13131TIP3    H160884   3.734   0.853   1.127 -1.2826  0.8889  0.4728
13131TIP3    H260885   3.753   0.863   1.277  1.8113 -1.2324  0.3175
13132TIP3   OH260886   6.183   0.957  12.583 -0.3046  0.3376 -0.0072
13132TIP3    H160887   6.104   0.955  12.637 -0.1346 -2.3440  0.2769
13132TIP3    H260888   6.161   0.904  12.506  0.6178  1.1347 -0.8476
13133TIP3   OH260889   3.904   4.920   4.002 -0.7766  0.3294  0.1634
13133TIP3    H160890   3.920   4.830   3.973  0.1850  0.4282  0.3593
13133TIP3    H260891   3.919   4.918   4.096 -1.6846  0.5006  0.3233
13134TIP3   OH260892   0.393   3.762   0.484  0.0625 -0.0541  0.0495
13134TIP3    H160893   0.404   3.838   0.427 -1.5713 -0.5636 -1.0233
13134TIP3    H260894   0.300   3.761   0.506  0.2481 -1.1479  0.8969
13135TIP3   OH260895   4.191   3.346  12.007  0.4522 -0.2765 -0.4862
13135TIP3    H160896   4.266   3.290  11.989  1.5618  1.6580 -2.3533
13135TIP3    H260897   4.180   3.398  11.927 -0.5655  2.0297  1.0386
13136TIP3   OH260898   1.095   1.845   0.753 -0.0607 -0.2654  0.3058
13136TIP3    H160899   1.178   1.803   0.777  0.3650  0.6228  0.4250
13136TIP3    H260900   1.030   1.775   0.761  0.1166 -0.2355  3.4926
13137TIP3   OH260901   1.911   1.410  17.044 -0.4487  0.2009 -0.1209
13137TIP3    H160902   1.834   1.450  17.084 -1.3075 -1.0660 -0.4883
13137TIP3    H260903   1.938   1.342  17.105 -0.0136  0.1822 -0.3250
13138TIP3   OH260904   2.337   3.936   4.944  0.1002 -0.3760  0.1918
13138TIP3    H160905   2.337   3.865   5.008 -0.5032  1.0245  1.8332
13138TIP3    H260906   2.423   3.976   4.953 -0.0457 -0.0747  0.2430
13139TIP3   OH260907   0.071   5.483   1.692  0.6476  0.3859 -0.0068
13139TIP3    H160908   0.111   5.409   1.647 -1.4155  1.1461 -3.4947
13139TIP3    H260909   0.058   5.549   1.624 -4.0195  1.1447  1.2403
13140TIP3   OH260910   1.219   4.498  16.872 -0.0444 -0.2759 -0.5764
13140TIP3    H160911   1.273   4.420  16.885  0.9728  0.8444  2.6312
13140TIP3    H260912   1.262   4.545  16.801  0.3413 -1.7129 -1.3454
13141TIP3   OH260913   1.893   0.305   6.080  0.2556  1.0169 -0.4160
13141TIP3    H160914   1.819   0.244   6.085  1.6487 -0.7117  0.6777
13141TIP3    H260915   1.916   0.322   6.172  1.0333  1.7363 -0.7321
13142TIP3   OH260916   4.724   0.137   3.928 -0.1506 -0.2409 -0.6252
13142TIP3    H160917   4.762   0.157   4.013  0.3197  1.9839 -1.2990
13142TIP3    H260918   4.744   0.044   3.915  1.1436 -0.2443  0.9937
13143TIP3   OH260919   4.760   1.352   5.100  0.1766 -0.0801  0.5172
13143TIP3    H160920   4.791   1.311   5.019 -1.2614  0.3043 -0.2539
13143TIP3    H260921   4.776   1.446   5.087 -2.6460  0.3534 -0.6117
13144TIP3   OH260922   2.768   0.345   0.372  0.1003 -0.1036 -0.3877
13144TIP3    H160923   2.763   0.360   0.277  0.4626  0.4778 -0.3237
13144TIP3    H260924   2.710   0.411   0.410  0.1494 -0.1688 -0.1963
13145TIP3   OH260925   3.094   4.191  14.935 -0.0538  0.0375  0.1358
13145TIP3    H160926   3.013   4.141  14.924  0.0379 -0.1457  0.2868
13145TIP3    H260927   3.066   4.273  14.976 -0.1293 -0.1459  0.4566
13146TIP3   OH260928   1.543   0.826  13.285 -0.3508  0.1090  0.0776
13146TIP3    H160929   1.568   0.734  13.275 -1.9604 -0.3089 -0.5858
13146TIP3    H260930   1.624   0.872  13.305  0.4628 -1.4851  0.6008
13147TIP3   OH260931   0.813   1.423  17.089  0.3837  0.2693 -0.0335
13147TIP3    H160932   0.766   1.340  17.082  1.0111 -0.0700 -0.3481
13147TIP3    H260933   0.904   1.400  17.073  0.4358  1.1750 -1.1836
13148TIP3   OH260934   0.064   3.360   5.384 -0.7053 -0.0668  0.1316
13148TIP3    H160935   0.081   3.289   5.321  0.3897  0.3275 -0.0391
13148TIP3    H260936   0.151   3.397   5.402 -0.8364 -0.9251  2.8060
13149TIP3   OH260937   2.465   2.333  15.258  0.0288  0.3435 -0.2158
13149TIP3    H160938   2.436   2.287  15.179 -0.0637 -0.0154  0.0194
13149TIP3    H260939   2.549   2.372  15.234 -0.2729  0.7229 -0.6650
13150TIP3   OH260940   3.035   2.568   1.066 -0.2611  0.2325  0.1546
13150TIP3    H160941   3.040   2.651   1.017  0.7234  0.7108  1.0175
13150TIP3    H260942   3.083   2.505   1.012  1.3269  0.8930  0.7072
13151TIP3   OH260943   0.690   2.416  14.598 -0.4716 -0.4325  0.6232
13151TIP3    H160944   0.714   2.502  14.565  0.4865 -0.2657  1.6823
13151TIP3    H260945   0.621   2.433  14.663  2.2799  0.0450  3.6636
13152TIP3   OH260946   0.907   2.291   3.334 -0.2034  0.6256  0.9158
13152TIP3    H160947   0.879   2.334   3.415  1.7642 -0.2844  2.1536
13152TIP3    H260948   0.909   2.198   3.355 -0.3767  0.2978 -0.4333
13153TIP3   OH260949   0.033   6.592  15.180  0.0360  0.6746 -0.1509
13153TIP3    H160950   0.042   6.534  15.257  1.5917  1.5534  0.3768
13153TIP3    H260951   0.013   6.678  15.217 -2.9767  0.4150 -0.9698
13154TIP3   OH260952   3.473   0.110   0.851  0.0530  0.3133 -0.1440
13154TIP3    H160953   3.498   0.157   0.930 -0.3316  0.1673  0.0687
13154TIP3    H260954   3.470   0.018   0.878  0.3182  0.2159 -0.4321
13155TIP3   OH260955   4.233   3.188   0.626 -0.5845 -0.0407 -1.0636
13155TIP3    H160956   4.137   3.188   0.621 -0.6612 -0.3702 -0.0326
13155TIP3    H260957   4.251   3.190   0.720  0.4199 -0.6043 -1.2333
13156TIP3   OH260958   2.432   2.999   4.661  0.0972 -0.3311  0.0349
13156TIP3    H160959   2.501   3.065   4.669  0.1114 -0.4444  0.9395
13156TIP3    H260960   2.462   2.927   4.717  0.1379 -1.1621 -1.0159
13157TIP3   OH260961   0.104   5.804   1.249 -0.5620  0.4558  0.0387
13157TIP3    H160962   0.126   5.721   1.206  0.0446  0.9933 -0.7330
13157TIP3    H260963   0.013   5.821   1.225  0.1402  1.4148 -2.2600
13158TIP3   OH260964   3.533   3.658   4.621  0.6163  0.6248  0.4745
13158TIP3    H160965   3.519   3.605   4.543  1.3055  0.4948  0.4296
13158TIP3    H260966   3.625   3.684   4.617  0.5790  0.8910  1.0750
13159TIP3   OH260967   0.190   5.055   4.127  0.0236 -0.2961 -0.1957
13159TIP3    H160968   0.272   5.006   4.141  1.4773  1.8028 -0.8578
13159TIP3    H260969   0.128   5.016   4.188  2.3301 -0.0917  2.4921
13160TIP3   OH260970   0.545   0.134   4.409  0.4510 -0.7999  0.2932
13160TIP3    H160971   0.546   0.229   4.410 -1.6111 -0.7111 -0.0700
13160TIP3    H260972   0.636   0.108   4.398  0.9514  1.1350 -0.4894
13161TIP3   OH260973   2.287   2.098  15.471 -0.0139 -0.2557  0.2701
13161TIP3    H160974   2.285   2.128  15.562 -1.8608 -1.0531  0.5427
13161TIP3    H260975   2.371   2.054  15.462 -0.4950 -1.7140  2.1479
13162TIP3   OH260976   0.233   5.387  11.497  0.1536 -0.0379  0.0595
13162TIP3    H160977   0.255   5.410  11.407  1.7128 -0.2755  0.3474
13162TIP3    H260978   0.211   5.293  11.493 -2.6166  0.5447 -0.5019
13163TIP3   OH260979   3.394   3.710  14.925  0.3129  0.5988 -0.0065
13163TIP3    H160980   3.407   3.779  14.860  1.7451 -1.6403 -2.2994
13163TIP3    H260981   3.363   3.635  14.874 -0.3638 -0.7361  2.2305
13164TIP3   OH260982   0.997   6.803   4.023  0.1396  0.1117 -0.3677
13164TIP3    H160983   1.058   6.877   4.021 -0.8587  0.9565 -1.9707
13164TIP3    H260984   0.944   6.818   4.101 -2.8040  3.5625 -2.6879
13165TIP3   OH260985   2.690   3.027  10.732 -1.1654  0.4674  0.1363
13165TIP3    H160986   2.679   2.983  10.648  2.3658 -0.6955  0.1121
13165TIP3    H260987   2.698   2.956  10.795  0.6620  1.1207  0.7120
13166TIP3   OH260988   1.791   2.917  14.264  0.2740 -0.0299  0.3946
13166TIP3    H160989   1.772   2.958  14.348 -2.1896  0.1981 -0.2118
13166TIP3    H260990   1.861   2.971  14.226 -0.1637  1.2240  1.3188
13167TIP3   OH260991   5.406   3.319  14.299  0.8448  0.4712 -0.0054
13167TIP3    H160992   5.395   3.307  14.393 -0.6717  0.1962 -0.1911
13167TIP3    H260993   5.342   3.386  14.276  0.9808  0.3044 -0.9038
13168TIP3   OH260994   2.418   6.646   3.165  0.1345  0.2001 -0.4821
13168TIP3    H160995   2.377   6.700   3.233 -0.4566  1.0210 -1.4610
13168TIP3    H260996   2.377   6.561   3.174 -1.3254  0.8198 -0.9898
13169TIP3   OH260997   3.851   3.277  12.906  0.5761  0.2645 -0.0193
13169TIP3    H160998   3.940   3.264  12.874 -0.6923  0.4286 -4.2289
13169TIP3    H260999   3.838   3.372  12.902 -0.0770  0.1648 -0.3339
13170TIP3   OH261000   3.858   2.658  16.222  0.2306 -0.4498  0.5144
13170TIP3    H161001   3.920   2.722  16.188 -0.0702  0.1697  1.1088
13170TIP3    H261002   3.886   2.644  16.313 -0.7958  0.2240  0.9450
13171TIP3   OH261003   0.124   1.077   2.276 -0.0250  0.2080  0.3415
13171TIP3    H161004   0.190   1.138   2.308  0.3828  0.4019 -0.8098
13171TIP3    H261005   0.142   1.070   2.182 -1.0376 -0.4903  0.1870
13172TIP3   OH261006   5.192   2.842  12.817 -0.2294  0.5191  0.0300
13172TIP3    H161007   5.141   2.888  12.750  0.7521 -0.0485 -1.1427
13172TIP3    H261008   5.284   2.860  12.793  0.2146  2.5574  2.7881
13173TIP3   OH261009   5.510   6.499  13.925 -0.7122  0.0141  0.3268
13173TIP3    H161010   5.470   6.586  13.928 -1.7192 -0.3400 -1.2266
13173TIP3    H261011   5.469   6.451  13.997  0.6359  1.0909  1.8785
13174TIP3   OH261012   0.060   6.505   3.599 -0.1682 -0.3757 -0.6252
13174TIP3    H161013   0.097   6.555   3.672  0.3784 -0.5100 -0.7999
13174TIP3    H261014   0.032   6.422   3.639 -2.4758  0.6079 -0.0430
13175TIP3   OH261015   5.360   3.734   2.874 -0.0591  0.4490 -0.5562
13175TIP3    H161016   5.347   3.767   2.963  0.6966 -1.3541  0.2618
13175TIP3    H261017   5.282   3.763   2.827  0.4340  3.1743  0.1162
13176TIP3   OH261018   5.212   1.447  13.057 -0.3159 -0.6192 -0.0386
13176TIP3    H161019   5.187   1.494  13.137  0.2418  1.0891 -0.8308
13176TIP3    H261020   5.305   1.430  13.067 -0.3996 -1.0785 -0.0070
13177TIP3   OH261021   1.321   1.906   1.456 -0.1590  0.5879  0.0790
13177TIP3    H161022   1.296   1.819   1.488 -1.4352 -0.2013 -2.7363
13177TIP3    H261023   1.280   1.912   1.370  1.1136  3.4341 -0.4260
13178TIP3   OH261024   5.110   5.075  16.272  0.5799  0.1179  0.3544
13178TIP3    H161025   5.146   5.103  16.187 -1.2927  0.5126 -0.3534
13178TIP3    H261026   5.187   5.064  16.328  1.7693  1.2897 -0.9648
13179TIP3   OH261027   1.355   6.233  11.081 -0.0442  0.1409  0.2661
13179TIP3    H161028   1.336   6.296  11.151  2.9201 -0.4247  1.7454
13179TIP3    H261029   1.355   6.148  11.124 -1.9472 -0.7166 -1.2880
13180TIP3   OH261030   0.238   6.225  13.802  0.2841 -0.5855 -0.4030
13180TIP3    H161031   0.214   6.257  13.715  2.2590 -0.8569 -1.1035
13180TIP3    H261032   0.301   6.289  13.834 -0.5015 -0.4366  0.8893
13181TIP3   OH261033   0.941   2.886   6.279 -0.8825  0.2455 -0.0545
13181TIP3    H161034   0.926   2.973   6.317  0.5810  0.3312  0.3792
13181TIP3    H261035   0.988   2.838   6.347 -0.9144 -0.6078 -0.6178
13182TIP3   OH261036   4.672   5.739  16.245 -0.4765  0.1144  0.5286
13182TIP3    H161037   4.602   5.795  16.212  0.4513  0.4605 -0.9440
13182TIP3    H261038   4.639   5.706  16.329 -1.8856  1.2185  0.4424
13183TIP3   OH261039   3.899   2.882   4.167 -0.4400  0.0927 -0.4523
13183TIP3    H161040   3.950   2.858   4.244  0.9745 -2.3647 -2.0223
13183TIP3    H261041   3.953   2.946   4.121 -0.8568  0.8450  0.0784
13184TIP3   OH261042   1.050   1.837  13.844  0.7967 -0.0378 -0.4905
13184TIP3    H161043   1.098   1.857  13.764  0.5698 -0.5107 -0.7529
13184TIP3    H261044   1.106   1.868  13.915  2.5667 -2.5330 -0.6618
13185TIP3   OH261045   2.607   6.248   5.399 -0.9267  0.4642 -0.0358
13185TIP3    H161046   2.615   6.156   5.427  1.7410  1.3845  2.8715
13185TIP3    H261047   2.560   6.244   5.316 -1.3096 -3.4794  0.1779
13186TIP3   OH261048   1.415   4.974   2.376  0.0090  0.5069 -0.0055
13186TIP3    H161049   1.487   4.977   2.312 -0.8666 -1.9204 -1.2321
13186TIP3    H261050   1.449   4.920   2.448 -0.4114 -0.2748 -0.3837
13187TIP3   OH261051   6.294   2.036   0.712 -0.1253  0.0495  0.3264
13187TIP3    H161052   6.362   2.071   0.655 -1.0374  0.3611 -0.6084
13187TIP3    H261053   6.341   1.980   0.774  1.2625  2.0832  1.2025
13188TIP3   OH261054   5.791   1.201  13.075 -0.8903  0.0919 -0.3129
13188TIP3    H161055   5.725   1.260  13.041 -1.5561 -0.1650  0.4862
13188TIP3    H261056   5.864   1.208  13.014 -2.5487 -1.4544 -2.6350
13189TIP3   OH261057   3.408   1.295  14.872  0.0871  0.5947  0.7470
13189TIP3    H161058   3.423   1.201  14.888  1.7835  0.3821 -1.6080
13189TIP3    H261059   3.360   1.298  14.789 -1.4100  1.8191  1.5994
13190TIP3   OH261060   1.667   4.196  12.154  0.4848 -0.2904 -0.1867
13190TIP3    H161061   1.726   4.241  12.094 -0.5715 -0.5164 -1.4311
13190TIP3    H261062   1.695   4.225  12.241  1.1623  1.1394 -0.8492
13191TIP3   OH261063   5.676   0.003  11.596 -0.3962 -0.1161 -0.4675
13191TIP3    H161064   5.691   0.089  11.635  2.5027  0.2058 -1.9747
13191TIP3    H261065   5.704  -0.059  11.663  0.1558  0.2536 -0.3442
13192TIP3   OH261066   4.087   6.329   6.036 -0.3462  0.2402 -0.7681
13192TIP3    H161067   4.125   6.323   5.948  0.7347 -2.1423 -0.2007
13192TIP3    H261068   3.993   6.314   6.023 -0.1919 -0.1174 -1.4969
13193TIP3   OH261069   6.361   4.628   3.004  0.0635  0.4867 -0.2266
13193TIP3    H161070   6.378   4.545   3.049 -3.6264 -1.7023 -2.3805
13193TIP3    H261071   6.311   4.680   3.068 -0.3134 -0.2758  0.1151
13194TIP3   OH261072   1.031   2.894   2.907 -0.1259 -0.2056  0.0626
13194TIP3    H161073   0.952   2.947   2.919 -0.1050  0.0814 -0.9953
13194TIP3    H261074   1.081   2.908   2.988 -0.2495  1.1859 -0.0694
13195TIP3   OH261075   4.262   4.526  16.940 -0.6137  0.4846 -0.3965
13195TIP3    H161076   4.320   4.584  16.989 -1.7209  0.0534  1.5475
13195TIP3    H261077   4.246   4.571  16.857  1.9208  0.9073 -0.7362
13196TIP3   OH261078   5.054   6.683   0.765 -0.2282 -0.0485  0.3200
13196TIP3    H161079   5.003   6.608   0.795  0.0593 -0.9418 -1.2733
13196TIP3    H261080   4.988   6.743   0.728 -0.2656 -0.7024 -0.7296
13197TIP3   OH261081   1.937   2.989  12.359 -0.3014  0.3204 -0.3760
13197TIP3    H161082   1.970   2.932  12.290 -0.3634  1.7680 -1.6697
13197TIP3    H261083   1.995   2.973  12.433 -1.0442 -2.2589 -0.2414
13198TIP3   OH261084   2.666   2.479  15.483 -0.3453 -0.5775 -0.0902
13198TIP3    H161085   2.683   2.386  15.499  0.1856 -0.6429 -0.9838
13198TIP3    H261086   2.684   2.491  15.390 -0.1903  0.4729  0.0678
13199TIP3   OH261087   1.078   6.769   6.472 -0.0873 -0.1230  0.5612
13199TIP3    H161088   1.056   6.680   6.500 -1.1658 -0.2948 -0.7141
13199TIP3    H261089   0.996   6.818   6.482  0.3158  0.5599  0.6039
13200TIP3   OH261090   6.615   2.024  16.137 -0.2259 -0.4356  0.4120
13200TIP3    H161091   6.688   2.043  16.195 -0.5433  1.7692  0.1667
13200TIP3    H261092   6.537   2.034  16.191 -0.4699  0.4251 -0.0787
13201TIP3   OH261093   4.918   3.172  17.142  0.5478 -0.2646 -0.2165
13201TIP3    H161094   4.967   3.233  17.086 -0.3845  0.0975 -0.6534
13201TIP3    H261095   4.866   3.228  17.199 -2.2537 -0.5429 -2.2914
13202TIP3   OH261096   0.086   6.802  12.391 -0.2216  0.0683  0.5183
13202TIP3    H161097   0.075   6.739  12.319  2.0480 -0.0837  0.2131
13202TIP3    H261098   0.019   6.779  12.454  1.4484 -3.7956  1.1555
13203TIP3   OH261099   1.805   6.039   3.610  0.2381 -0.0613 -0.1763
13203TIP3    H161100   1.811   6.127   3.647 -1.8492  0.1094 -0.1446
13203TIP3    H261101   1.855   6.045   3.528  2.5858  0.2976  1.1819
13204TIP3   OH261102   5.307   2.457   5.946 -0.0687  0.0279  0.2251
13204TIP3    H161103   5.356   2.381   5.977 -0.1424  0.3418  1.1369
13204TIP3    H261104   5.375   2.524   5.932  0.2280 -0.7229 -2.3193
13205TIP3   OH261105   0.318   5.031  13.485  0.2490  0.2060 -0.2664
13205TIP3    H161106   0.284   4.943  13.498 -0.3477  0.6298  1.3072
13205TIP3    H261107   0.273   5.084  13.551  1.2904  1.5036 -0.5519
13206TIP3   OH261108   2.807   0.790  13.329 -0.5868  0.4117 -0.5440
13206TIP3    H161109   2.743   0.807  13.398 -0.9328  0.2594 -0.8243
13206TIP3    H261110   2.794   0.861  13.266 -0.6169  0.2641 -0.7032
13207TIP3   OH261111   5.134   2.429   2.145  0.2025 -0.3308 -0.6106
13207TIP3    H161112   5.069   2.497   2.130 -0.0258  1.1886  4.9507
13207TIP3    H261113   5.085   2.347   2.143 -0.5721  0.1351 -2.2859
13208TIP3   OH261114   4.566   6.594   2.347  0.1045  0.3302 -0.0290
13208TIP3    H161115   4.656   6.604   2.378  0.6259 -2.4865 -0.3752
13208TIP3    H261116   4.516   6.577   2.427  0.0260  0.9366  0.0577
13209TIP3   OH261117   6.719   3.335  14.653 -0.4855  0.6528 -0.1743
13209TIP3    H161118   6.673   3.406  14.696  0.2457 -0.6622  3.0514
13209TIP3    H261119   6.678   3.255  14.688  0.3103 -0.5432 -1.8101
13210TIP3   OH261120   0.192   3.868  15.913 -0.1744  0.1786  0.0556
13210TIP3    H161121   0.111   3.917  15.928  0.3725  1.2970 -0.4594
13210TIP3    H261122   0.212   3.884  15.821  2.0099  2.2014  0.7608
13211TIP3   OH261123   5.415   5.552   3.695  0.8869  0.4972  0.0914
13211TIP3    H161124   5.448   5.463   3.683  1.6318  0.9867 -1.7196
13211TIP3    H261125   5.325   5.549   3.662  1.2174  0.6145 -0.8463
13212TIP3   OH261126   2.153   0.681  11.799 -0.5107  0.3245 -0.5936
13212TIP3    H161127   2.179   0.769  11.825  0.4142  0.0641 -0.5836
13212TIP3    H261128   2.095   0.652  11.869  1.2080 -0.0126  0.7745
13213TIP3   OH261129   6.215   2.843   5.901  0.1761  0.0793  0.1910
13213TIP3    H161130   6.175   2.808   5.981 -1.4970  2.1011  0.3210
13213TIP3    H261131   6.225   2.937   5.917  1.0478  0.3242 -1.4895
13214TIP3   OH261132   5.723   4.959  14.593  0.1171 -0.1258 -0.0910
13214TIP3    H161133   5.699   4.874  14.556 -0.2685 -0.0028 -0.1240
13214TIP3    H261134   5.811   4.976  14.559  1.0357 -1.4354  1.4861
13215TIP3   OH261135   6.538   4.480  12.070 -0.3290  0.1476  0.3999
13215TIP3    H161136   6.531   4.496  12.164 -0.5794  1.5789  0.1555
13215TIP3    H261137   6.449   4.495  12.036 -0.3800 -0.9408 -0.0028
13216TIP3   OH261138   0.964   0.527  13.438 -0.0176  0.0444  0.2453
13216TIP3    H161139   1.021   0.501  13.510  0.2851  1.6973  0.6329
13216TIP3    H261140   1.002   0.485  13.361  0.0533 -1.1715  0.9131
13217TIP3   OH261141   2.340   1.849   1.275 -0.0651  0.0088  0.5799
13217TIP3    H161142   2.435   1.837   1.283  0.0149 -1.0275 -1.3319
13217TIP3    H261143   2.328   1.892   1.190 -1.3394 -0.4794  0.4908
13218TIP3   OH261144   3.803   1.945   6.723 -0.6362 -0.3267 -0.2757
13218TIP3    H161145   3.825   1.865   6.676 -1.5828 -0.3829 -0.6253
13218TIP3    H261146   3.724   1.924   6.773 -0.7140  0.2936 -0.1226
13219TIP3   OH261147   6.101   1.290   6.608  0.2857  0.0530 -0.3036
13219TIP3    H161148   6.171   1.277   6.544  0.6936 -0.6350  0.2706
13219TIP3    H261149   6.065   1.202   6.622  0.6192  0.0946  0.8809
13220TIP3   OH261150   5.708   4.204   1.496  0.5998  0.2129 -0.1441
13220TIP3    H161151   5.656   4.249   1.562 -0.2340  0.9041 -1.2279
13220TIP3    H261152   5.647   4.191   1.423  1.1639 -1.5812 -0.3499
13221TIP3   OH261153   1.892   4.265  13.645  0.0347  0.2132 -0.4085
13221TIP3    H161154   1.977   4.243  13.684  0.4857  3.8807  1.0507
13221TIP3    H261155   1.830   4.205  13.688  1.1543  1.1349  2.7856
13222TIP3   OH261156   6.428   2.279  12.998 -0.0579  0.0896 -0.1051
13222TIP3    H161157   6.405   2.370  13.016 -1.1021  0.2885 -2.1330
13222TIP3    H261158   6.410   2.233  13.080  1.0465  1.7691  1.1497
13223TIP3   OH261159   5.971   1.348  13.587  0.2451  0.5693 -0.4269
13223TIP3    H161160   5.942   1.316  13.501 -1.2112  2.6369 -0.7853
13223TIP3    H261161   6.048   1.401  13.568  1.2728 -0.7439 -0.1166
13224TIP3   OH261162   0.786   6.561   1.786 -0.3835  0.2257  0.0851
13224TIP3    H161163   0.823   6.504   1.718 -0.8313  1.1805 -0.9975
13224TIP3    H261164   0.703   6.591   1.749 -1.1805 -0.0980  1.5347
13225TIP3   OH261165   0.104   2.014   0.884  0.0839  0.4151 -0.0724
13225TIP3    H161166   0.197   2.032   0.899  0.7816 -1.4014 -1.7834
13225TIP3    H261167   0.078   2.075   0.816  0.5743 -0.3357 -0.9548
13226TIP3   OH261168   1.905   5.350  15.694 -0.0324 -0.0015 -0.0043
13226TIP3    H161169   1.830   5.408  15.684  0.0212  0.2289  0.8965
13226TIP3    H261170   1.960   5.368  15.617 -1.3211 -0.8446 -1.1849
13227TIP3   OH261171   2.452   6.772   2.154 -0.0498 -0.1813  0.3668
13227TIP3    H161172   2.390   6.705   2.182 -1.6321  0.8479 -0.5736
13227TIP3    H261173   2.409   6.817   2.081  1.9806  0.2911 -0.6210
13228TIP3   OH261174   5.725   6.822   3.401  0.4323  0.4478  0.0852
13228TIP3    H161175   5.783   6.874   3.345 -0.1124  1.7099  0.6486
13228TIP3    H261176   5.659   6.788   3.340  1.5586 -0.7652 -0.5109
13229TIP3   OH261177   1.667   0.947  15.387 -0.3003  0.0381 -0.1080
13229TIP3    H161178   1.739   1.003  15.415 -1.2584  1.3105 -0.1401
13229TIP3    H261179   1.709   0.881  15.330  1.2577 -1.0354  2.1516
13230TIP3   OH261180   6.482   0.054  14.111 -0.2943  0.2679 -0.2784
13230TIP3    H161181   6.515   0.141  14.135 -0.9236  0.6543 -0.7581
13230TIP3    H261182   6.423   0.071  14.038 -0.2924 -0.5926 -0.4882
13231TIP3   OH261183   4.486   1.343   1.622  0.1518 -0.3292  0.2315
13231TIP3    H161184   4.415   1.330   1.559  0.5707  0.5821 -0.4483
13231TIP3    H261185   4.506   1.436   1.617  1.6954 -0.6299  0.0657
13232TIP3   OH261186   1.597   6.371  16.483 -1.0765 -0.5707  0.1492
13232TIP3    H161187   1.630   6.300  16.427  1.2808  1.0601 -0.6859
13232TIP3    H261188   1.667   6.385  16.547 -2.0898  0.1630  1.1363
13233TIP3   OH261189   0.732   1.399  15.186 -0.3899  0.3268  0.0344
13233TIP3    H161190   0.711   1.463  15.255  0.6368  0.0445  0.6321
13233TIP3    H261191   0.671   1.419  15.116 -0.0125  2.0665  0.1454
13234TIP3   OH261192   0.846   1.596   4.993 -0.4383 -0.6132  0.5223
13234TIP3    H161193   0.871   1.510   5.027 -1.0006 -0.6773  0.7819
13234TIP3    H261194   0.887   1.659   5.052  0.1827 -0.6913  0.1868
13235TIP3   OH261195   1.680   1.703   6.140 -0.0729  0.4323  0.4952
13235TIP3    H161196   1.591   1.697   6.174  0.1482 -1.5247  0.8681
13235TIP3    H261197   1.672   1.673   6.049  0.2099  0.1022  0.5755
13236TIP3   OH261198   4.665   0.920   0.758 -0.4007  0.2060  0.2183
13236TIP3    H161199   4.606   0.993   0.741 -0.5123 -0.1069 -0.8033
13236TIP3    H261200   4.727   0.953   0.824 -1.8510  0.4528  1.5159
13237TIP3   OH261201   6.077   4.373   5.815 -0.2574 -0.5088  1.4924
13237TIP3    H161202   5.990   4.352   5.847  0.4686 -1.2080  3.1228
13237TIP3    H261203   6.113   4.434   5.881 -0.0141  0.9178  0.1126
13238TIP3   OH261204   1.336   3.300   2.540  0.1211 -0.4537 -0.4705
13238TIP3    H161205   1.264   3.357   2.515 -1.4205 -1.9638  0.3971
13238TIP3    H261206   1.401   3.313   2.470 -0.4943  1.6982 -0.7226
13239TIP3   OH261207   6.653   4.554   4.185  0.4684  0.2121  0.5081
13239TIP3    H161208   6.682   4.614   4.117  0.3747 -0.3409 -0.0302
13239TIP3    H261209   6.576   4.595   4.223  0.0791  0.1753 -0.2309
13240TIP3   OH261210   4.708   4.901   4.903  0.2559 -0.4481 -0.0457
13240TIP3    H161211   4.784   4.901   4.961  0.9808 -1.0525 -0.9695
13240TIP3    H261212   4.633   4.891   4.962  0.7256  1.8262  1.0340
13241TIP3   OH261213   2.343   6.037   0.990 -0.8800 -0.4558 -0.4877
13241TIP3    H161214   2.356   6.097   1.064  1.0794 -2.6558  1.1080
13241TIP3    H261215   2.428   6.034   0.947 -1.2226 -1.3581 -1.1222
13242TIP3   OH261216   2.518   1.782  17.282 -0.2598 -0.1737 -0.3054
13242TIP3    H161217   2.499   1.825  17.365  0.7937  0.2504 -0.2663
13242TIP3    H261218   2.535   1.691  17.305  2.2887  0.3700  0.3154
13243TIP3   OH261219   4.033   0.481  12.594 -0.4117  0.3245  0.5030
13243TIP3    H161220   4.004   0.425  12.522 -0.5990 -1.9505  2.2345
13243TIP3    H261221   4.127   0.462  12.603 -0.2123  1.2063  0.3689
13244TIP3   OH261222   1.926   2.792   2.184 -1.2387  0.0790 -0.3523
13244TIP3    H161223   1.878   2.868   2.149 -1.4403  0.4146  0.6044
13244TIP3    H261224   2.005   2.788   2.131 -1.6690  0.3750 -1.0441
13245TIP3   OH261225   1.522   6.417  12.718 -0.3433  0.2273 -0.0543
13245TIP3    H161226   1.546   6.377  12.801  1.5974  1.3533 -0.0028
13245TIP3    H261227   1.493   6.344  12.663 -2.2365 -0.4484  1.7407
13246TIP3   OH261228   1.907   3.911  15.279 -0.6913  0.5942  0.4897
13246TIP3    H161229   1.881   3.829  15.322 -0.3222  0.9180  1.3626
13246TIP3    H261230   1.989   3.890  15.235 -1.2930  0.1442 -0.4358
13247TIP3   OH261231   6.069   0.821  11.540  0.1627  0.7998  0.0906
13247TIP3    H161232   6.029   0.736  11.558  3.6253 -0.6679  1.9472
13247TIP3    H261233   6.073   0.826  11.445 -1.7984 -0.2149 -0.0893
13248TIP3   OH261234   4.421   2.823   3.195  0.4297  0.3031 -0.0904
13248TIP3    H161235   4.438   2.915   3.214 -0.7575  0.2906  1.2518
13248TIP3    H261236   4.506   2.781   3.204  1.5875  1.6175 -3.5480
13249TIP3   OH261237   4.131   0.044  15.982  0.8406  1.0112  0.2470
13249TIP3    H161238   4.159  -0.038  15.942  0.9215  0.4171  1.4816
13249TIP3    H261239   4.055   0.071  15.930  0.0495 -0.4942  0.5914
13250TIP3   OH261240   5.098   4.564  10.701 -0.0968  0.3393  0.1198
13250TIP3    H161241   5.040   4.615  10.643 -1.6094 -1.9015 -0.4545
13250TIP3    H261242   5.162   4.525  10.641  1.1527  1.6172  0.5774
13251TIP3   OH261243   0.666   5.473  16.808 -0.0911 -0.0071 -0.2449
13251TIP3    H161244   0.748   5.455  16.854 -0.1936  0.5130  0.1451
13251TIP3    H261245   0.600   5.480  16.876 -0.2696  0.6180 -0.4686
13252TIP3   OH261246   0.337   6.800  16.485 -0.1399 -0.0498 -0.1954
13252TIP3    H161247   0.348   6.822  16.577 -0.7468  0.7156 -0.2977
13252TIP3    H261248   0.320   6.883  16.442  0.8705 -0.2978 -1.1247
13253TIP3   OH261249   3.872   4.610   3.578 -0.0490  0.2039 -0.2576
13253TIP3    H161250   3.801   4.547   3.592 -1.4919  2.0340  1.0848
13253TIP3    H261251   3.832   4.679   3.525  1.0321  0.7924 -0.3241
13254TIP3   OH261252   4.852   1.276  15.028 -0.3706  0.2606  0.7367
13254TIP3    H161253   4.929   1.330  15.011  1.8589 -3.1550 -1.0537
13254TIP3    H261254   4.800   1.282  14.948  0.8254 -1.5186 -0.2415
13255TIP3   OH261255   4.586   0.997   4.304 -0.3761  0.1422 -0.1014
13255TIP3    H161256   4.568   1.063   4.237 -0.4549  1.3673  1.0557
13255TIP3    H261257   4.504   0.992   4.355  0.2591  0.6185  1.0025
13256TIP3   OH261258   4.465   1.573   0.831  0.1679  0.3569  0.5911
13256TIP3    H161259   4.465   1.493   0.884  0.1571 -0.1169 -0.1201
13256TIP3    H261260   4.373   1.589   0.812  0.3071 -1.0711 -1.6433
13257TIP3   OH261261   5.271   4.597  10.889 -0.3926 -0.0654 -0.5081
13257TIP3    H161262   5.356   4.591  10.846  0.0446 -1.9551  0.4918
13257TIP3    H261263   5.208   4.578  10.819 -0.0369  1.4324 -1.2723
13258TIP3   OH261264   0.858   3.905   0.714 -0.8744  0.2588 -0.4610
13258TIP3    H161265   0.850   3.994   0.750  0.9865  0.8605 -1.3800
13258TIP3    H261266   0.769   3.878   0.695 -1.6157  1.3331  1.2033
13259TIP3   OH261267   0.686   2.225   2.577  0.3159 -0.3374 -0.8487
13259TIP3    H161268   0.630   2.244   2.501  0.2129  0.9059 -0.4790
13259TIP3    H261269   0.774   2.251   2.548  0.0910  1.3358 -0.1579
13260TIP3   OH261270   3.482   3.550  16.887  0.0081 -0.0939 -0.2476
13260TIP3    H161271   3.529   3.522  16.808  0.1047  1.0647 -0.6264
13260TIP3    H261272   3.410   3.488  16.895  0.2561 -0.4941 -0.9964
13261TIP3   OH261273   3.522   1.223  14.542 -0.1124  0.1242  0.4115
13261TIP3    H161274   3.610   1.230  14.579 -0.1357 -0.3336  0.5569
13261TIP3    H261275   3.491   1.136  14.567 -0.3048 -0.0241 -0.3034
13262TIP3   OH261276   6.034   5.540  16.328 -0.1678 -0.0758 -0.6145
13262TIP3    H161277   6.091   5.614  16.307 -0.7065  1.3014  2.2464
13262TIP3    H261278   6.084   5.489  16.392 -0.6439 -1.0326 -0.9952
13263TIP3   OH261279   4.434   5.584  16.086  0.0970 -0.0964 -0.0954
13263TIP3    H161280   4.501   5.547  16.143  0.6398  1.6088  0.4365
13263TIP3    H261281   4.482   5.622  16.013 -0.5846 -2.1613 -1.7280
13264TIP3   OH261282   4.491   5.178   4.442 -0.4460 -0.3221  0.0488
13264TIP3    H161283   4.492   5.112   4.512 -0.9600 -0.2669  0.1124
13264TIP3    H261284   4.467   5.259   4.487 -1.0318 -0.3359 -0.2256
13265TIP3   OH261285   5.137   3.371   5.184 -0.6403  0.0287 -0.0196
13265TIP3    H161286   5.130   3.360   5.089 -0.3201  1.7025 -0.2626
13265TIP3    H261287   5.205   3.308   5.209  1.7753  1.8582 -1.4488
13266TIP3   OH261288   4.440   0.208   3.144  0.1262  0.4181  0.0175
13266TIP3    H161289   4.362   0.181   3.191  1.2922  1.3473  2.6397
13266TIP3    H261290   4.426   0.301   3.125  0.0284  0.2524 -0.7482
13267TIP3   OH261291   1.890   5.349  15.104 -0.2187  0.0584 -0.3648
13267TIP3    H161292   1.973   5.302  15.096 -1.0791 -1.4920 -0.5173
13267TIP3    H261293   1.883   5.400  15.023 -1.1183 -2.6932 -2.1241
13268TIP3   OH261294   5.776   3.119   5.741 -0.3618 -0.2597 -0.4730
13268TIP3    H161295   5.692   3.165   5.735 -1.1142 -1.6431 -0.8771
13268TIP3    H261296   5.824   3.166   5.810 -0.9193  1.3728 -1.1569
13269TIP3   OH261297   5.958   3.665   5.724  0.0718 -0.6269  0.4395
13269TIP3    H161298   5.909   3.714   5.658 -0.5427 -2.8370 -0.8411
13269TIP3    H261299   6.043   3.649   5.685 -0.4242 -2.2804 -0.0509
13270TIP3   OH261300   5.697   0.213   3.647 -0.8842  0.5972 -0.0223
13270TIP3    H161301   5.777   0.226   3.697 -1.3595 -1.5113  1.4099
13270TIP3    H261302   5.728   0.187   3.560  0.0309 -0.8805  0.7083
13271TIP3   OH261303   6.396   5.474  11.424  0.6029  0.0813 -0.3176
13271TIP3    H161304   6.488   5.476  11.400  0.7478 -1.4979  0.0055
13271TIP3    H261305   6.374   5.381  11.428 -0.7878  0.4111  0.4208
13272TIP3   OH261306   3.924   1.449   5.292  0.2899 -0.0770  0.0280
13272TIP3    H161307   3.852   1.498   5.333 -0.7556 -2.4510  1.1738
13272TIP3    H261308   3.958   1.393   5.362  1.9652 -0.4515 -1.0346
13273TIP3   OH261309   0.335   4.222  10.929  0.1512 -0.2420 -0.5743
13273TIP3    H161310   0.343   4.199  10.836  0.2276  1.1587 -0.9455
13273TIP3    H261311   0.396   4.295  10.940  1.0127 -1.1293  0.8688
13274TIP3   OH261312   6.277   2.247   2.725  0.4725  0.5514  0.3728
13274TIP3    H161313   6.305   2.181   2.662  1.8328 -0.1228  1.6084
13274TIP3    H261314   6.332   2.323   2.707  0.0841  0.7564  0.0392
13275TIP3   OH261315   4.730   1.553  15.844  0.7876 -0.1605 -0.0768
13275TIP3    H161316   4.760   1.559  15.935 -1.9190 -0.0592  0.9308
13275TIP3    H261317   4.760   1.634  15.803  0.8183  0.4834  1.1723
13276TIP3   OH261318   1.805   4.090   3.383  0.3025 -0.1459 -0.5749
13276TIP3    H161319   1.852   4.142   3.317 -1.7459  1.2923 -0.9828
13276TIP3    H261320   1.822   4.136   3.465  1.1026 -0.7068 -0.4165
13277TIP3   OH261321   6.370   4.488  11.680  0.1619  0.3914  0.5039
13277TIP3    H161322   6.356   4.397  11.704 -0.7899  0.0181 -1.2320
13277TIP3    H261323   6.369   4.487  11.584  0.8130  2.1317  0.4507
13278TIP3   OH261324   3.642   2.559  16.681  0.6825 -0.9300  0.0926
13278TIP3    H161325   3.622   2.621  16.610  0.2813 -0.5620  0.5157
13278TIP3    H261326   3.695   2.492  16.640  1.8507  0.1321 -0.2057
13279TIP3   OH261327   0.997   3.685  11.625  0.3994 -0.2738 -0.0542
13279TIP3    H161328   0.956   3.769  11.601 -3.2680 -1.7357  0.3520
13279TIP3    H261329   1.068   3.709  11.685 -0.0809  2.5630 -0.4771
13280TIP3   OH261330   0.699   2.714   1.483 -0.0245 -0.1308  0.1367
13280TIP3    H161331   0.605   2.729   1.467 -0.1278  0.7254  1.4029
13280TIP3    H261332   0.707   2.619   1.489 -0.3402 -0.3933 -2.5399
13281TIP3   OH261333   4.282   1.969   6.098  0.6464 -0.4193  0.2130
13281TIP3    H161334   4.239   1.884   6.107 -0.3555 -0.0612 -0.9752
13281TIP3    H261335   4.280   2.006   6.186 -1.1576 -0.5767  0.2748
13282TIP3   OH261336   5.993   0.134  15.520  0.1377 -1.3044  0.3555
13282TIP3    H161337   6.045   0.211  15.543  0.6644 -1.4960 -0.1612
13282TIP3    H261338   5.903   0.166  15.516  0.4652 -0.4639 -0.8711
13283TIP3   OH261339   4.172   6.479  13.329  0.0050  0.6535  0.0698
13283TIP3    H161340   4.186   6.518  13.243 -0.5342 -1.2736 -0.9407
13283TIP3    H261341   4.138   6.551  13.382 -2.6822  1.2223 -2.1802
13284TIP3   OH261342   6.088   5.554  13.829 -0.3074  0.1534 -0.4991
13284TIP3    H161343   6.138   5.567  13.909 -0.3092 -0.6656 -0.3586
13284TIP3    H261344   6.096   5.460  13.810 -0.4017  0.3185 -1.3936
13285TIP3   OH261345   5.896   3.400   0.546 -0.1156 -0.0284 -0.1313
13285TIP3    H161346   5.868   3.464   0.481  1.4974  0.5455 -0.3184
13285TIP3    H261347   5.979   3.435   0.579  0.5324 -1.7507  0.1731
13286TIP3   OH261348   0.404   0.347   0.635  0.2394  0.2037  0.4996
13286TIP3    H161349   0.316   0.384   0.630  0.7836  2.0138  2.6628
13286TIP3    H261350   0.458   0.419   0.668  2.7384 -0.5672 -1.5707
13287TIP3   OH261351   1.843   2.915   4.541  0.7507 -0.3974 -0.1431
13287TIP3    H161352   1.775   2.982   4.551  2.2934  1.1201  0.7839
13287TIP3    H261353   1.880   2.933   4.454  1.8886  0.7263  0.5393
13288TIP3   OH261354   1.802   2.604   3.722 -0.2254 -0.1588 -0.6539
13288TIP3    H161355   1.861   2.530   3.731 -0.4104 -0.2072  0.1862
13288TIP3    H261356   1.736   2.592   3.790 -0.5981  0.4611 -0.8889
13289TIP3   OH261357   4.062   4.471   4.957 -0.6294  0.2988  0.0546
13289TIP3    H161358   4.055   4.397   4.898  0.6748  0.5334 -0.4227
13289TIP3    H261359   4.136   4.450   5.014  1.5705  2.3588 -1.8360
13290TIP3   OH261360   2.818   4.932  12.964  0.3228  0.0133  0.2153
13290TIP3    H161361   2.856   5.019  12.974  1.3157  0.0012 -2.7259
13290TIP3    H261362   2.789   4.928  12.873  3.0610 -3.7163 -0.7451
13291TIP3   OH261363   3.914   4.749   4.532  0.2269  0.2181  0.3100
13291TIP3    H161364   3.933   4.839   4.560  0.5015 -0.0058  0.8550
13291TIP3    H261365   3.857   4.715   4.601  0.0973 -0.0177  0.0867
13292TIP3   OH261366   3.722   4.857  16.876 -0.2344  0.6071  0.0690
13292TIP3    H161367   3.775   4.935  16.890  1.6976 -0.3349 -1.5880
13292TIP3    H261368   3.632   4.888  16.886  0.5286  2.4408  2.1124
13293TIP3   OH261369   0.318   1.771  13.190  0.1209 -0.0931 -0.2867
13293TIP3    H161370   0.291   1.863  13.189 -1.1132 -0.4293 -1.6976
13293TIP3    H261371   0.251   1.726  13.140  0.5063 -1.8443  0.6886
13294TIP3   OH261372   2.879   4.359  16.738 -0.1083 -0.1863 -0.2889
13294TIP3    H161373   2.852   4.439  16.694 -1.5905  0.3137  1.4197
13294TIP3    H261374   2.891   4.384  16.829  2.7741 -1.2187 -0.3104
13295TIP3   OH261375   3.495   4.863   0.422  0.1357 -0.2246  0.4349
13295TIP3    H161376   3.576   4.813   0.416 -0.0956 -0.5286 -0.2381
13295TIP3    H261377   3.488   4.908   0.337  0.5473  1.2796  1.1603
13296TIP3   OH261378   3.612   0.207  16.094 -0.2847  0.6465 -0.2988
13296TIP3    H161379   3.681   0.141  16.084 -1.8852 -1.1657  0.0896
13296TIP3    H261380   3.625   0.267  16.020  2.1377  0.8318  0.1803
13297TIP3   OH261381   4.891   4.304   4.592 -0.2439  0.1893  0.3004
13297TIP3    H161382   4.843   4.373   4.546  0.9995  1.0290  0.2156
13297TIP3    H261383   4.981   4.311   4.560 -0.1681 -1.8085 -0.0697
13298TIP3   OH261384   0.881   5.075  13.472 -0.0678  0.2060  0.0980
13298TIP3    H161385   0.791   5.099  13.493 -0.4869  0.3949 -1.7160
13298TIP3    H261386   0.906   5.136  13.403  1.5746  0.3528  0.7840
13299TIP3   OH261387   2.850   4.586   3.344  0.3637  0.3564 -0.1945
13299TIP3    H161388   2.781   4.591   3.409  1.1733  2.3006  0.5976
13299TIP3    H261389   2.909   4.518   3.376  1.0240  1.6282  1.4506
13300TIP3   OH261390   0.658   3.848   1.548 -0.0596  0.0215 -0.4916
13300TIP3    H161391   0.728   3.913   1.558 -0.8107  0.8911 -0.7907
13300TIP3    H261392   0.577   3.896   1.564 -0.5758 -1.1242  0.5542
13301TIP3   OH261393   6.634   2.372   1.592  0.0909 -0.0203  0.1770
13301TIP3    H161394   6.567   2.395   1.528 -1.2135 -1.2170  1.0340
13301TIP3    H261395   6.619   2.433   1.665  0.1945 -0.0093  0.1883
13302TIP3   OH261396   0.898   6.420   3.185  0.4186  0.0848 -0.0494
13302TIP3    H161397   0.803   6.426   3.173  0.3572  0.6198  0.6440
13302TIP3    H261398   0.922   6.338   3.141 -0.1208  0.7414 -1.6509
13303TIP3   OH261399   1.783   4.179  17.259 -0.1636 -0.4320  0.0177
13303TIP3    H161400   1.811   4.204  17.347 -0.3010 -0.5471  0.0956
13303TIP3    H261401   1.838   4.104  17.236 -2.0033 -2.2637  1.1716
13304TIP3   OH261402   3.307   1.225   6.395 -0.5701 -0.2229 -0.5081
13304TIP3    H161403   3.260   1.193   6.472 -0.5765  0.6158 -0.1567
13304TIP3    H261404   3.400   1.220   6.420 -0.6159  1.2811  0.0686
13305TIP3   OH261405   3.909   5.096  16.919  0.4045 -0.4444  0.1013
13305TIP3    H161406   3.982   5.080  16.859  0.9643 -1.8493  1.1120
13305TIP3    H261407   3.867   5.175  16.884  1.2693 -0.6705 -1.5844
13306TIP3   OH261408   5.307   1.775  15.549 -0.4439 -0.2593  0.8131
13306TIP3    H161409   5.387   1.823  15.569  0.3835  0.1389 -2.8589
13306TIP3    H261410   5.250   1.840  15.506 -1.7861 -1.1293  1.2148
13307TIP3   OH261411   2.963   2.750   3.563 -0.2196 -0.0302 -0.1496
13307TIP3    H161412   2.917   2.785   3.639  0.8952  0.6891  0.2235
13307TIP3    H261413   3.053   2.736   3.594  0.0905 -0.3451 -1.1518
13308TIP3   OH261414   3.481   6.337  14.344 -0.1523 -0.3895 -0.0274
13308TIP3    H161415   3.520   6.397  14.281  1.2368 -2.6854 -1.4803
13308TIP3    H261416   3.505   6.374  14.430  1.1466  0.7982 -0.8517
13309TIP3   OH261417   4.536   3.308  11.885  0.0244 -0.4338  0.1723
13309TIP3    H161418   4.475   3.257  11.937  1.0562 -1.2170  0.6568
13309TIP3    H261419   4.571   3.246  11.821  1.1462 -0.3269  0.6417
13310TIP3   OH261420   5.876   3.111   0.343 -0.3788 -0.0235  0.4034
13310TIP3    H161421   5.962   3.132   0.377 -0.9416  0.7386  1.4061
13310TIP3    H261422   5.892   3.079   0.254  1.1328 -1.9683  1.3022
13311TIP3   OH261423   0.795   0.728  16.705  0.3222 -0.1269 -0.3079
13311TIP3    H161424   0.796   0.812  16.751 -1.4773  0.6976 -1.6673
13311TIP3    H261425   0.719   0.733  16.647 -0.5457 -3.1637  0.3891
13312TIP3   OH261426   2.529   6.409   1.850 -0.4141 -0.6571  0.2031
13312TIP3    H161427   2.509   6.316   1.849  0.2316 -0.8023  0.6240
13312TIP3    H261428   2.481   6.445   1.775  1.2628 -1.7248 -1.4602
13313TIP3   OH261429   1.419   3.917   3.940  0.1660  0.0099  0.1571
13313TIP3    H161430   1.469   3.910   3.859 -2.0006  3.1746 -1.6799
13313TIP3    H261431   1.339   3.867   3.924  0.7835 -1.4484  1.4020
13314TIP3   OH261432   3.016   0.463   5.699 -0.1030 -0.0283  0.5861
13314TIP3    H161433   3.104   0.472   5.661  0.4639 -0.3859  1.7697
13314TIP3    H261434   3.014   0.374   5.735 -1.3624 -0.4318 -0.3950
13315TIP3   OH261435   6.743   5.635  15.486  0.0860 -0.1648  0.5544
13315TIP3    H161436   6.801   5.569  15.523  0.2660 -0.7714 -0.7346
13315TIP3    H261437   6.801   5.710  15.468  0.5021 -0.7587 -0.7027
13316TIP3   OH261438   3.367   5.832   1.391 -0.4329 -0.0465  0.5958
13316TIP3    H161439   3.384   5.808   1.300  0.4236  0.7935  0.5283
13316TIP3    H261440   3.278   5.868   1.390 -0.3024  0.2649  0.0402
13317TIP3   OH261441   5.407   0.135  13.294 -0.0002 -0.0053 -0.1921
13317TIP3    H161442   5.353   0.213  13.284 -0.1408 -0.1411 -0.5176
13317TIP3    H261443   5.494   0.163  13.265 -0.5739 -0.6015 -2.7143
13318TIP3   OH261444   2.399   1.858   3.604 -0.4507 -0.4132 -0.2380
13318TIP3    H161445   2.382   1.938   3.654 -1.5155  0.3462 -1.7182
13318TIP3    H261446   2.486   1.871   3.566 -0.1804 -0.4309  0.3674
13319TIP3   OH261447   2.175   6.072   0.105 -0.0978 -0.2467  0.1744
13319TIP3    H161448   2.144   6.157   0.137 -0.7108  0.0092 -1.0260
13319TIP3    H261449   2.205   6.090   0.016  1.4522 -0.9483  0.5321
13320TIP3   OH261450   3.986   0.584  15.017 -0.7791  0.1039 -0.7262
13320TIP3    H161451   4.031   0.614  15.096  0.0909  2.1180 -1.9353
13320TIP3    H261452   3.895   0.612  15.030 -0.6354  0.4532 -0.4473
13321TIP3   OH261453   1.374   2.501   6.377  0.1281 -0.0042  0.1346
13321TIP3    H161454   1.461   2.503   6.338  0.3804 -0.1472  0.6744
13321TIP3    H261455   1.315   2.483   6.304  0.5432  0.1617 -0.2451
13322TIP3   OH261456   3.818   5.957   2.001  0.7097  0.3601  0.4123
13322TIP3    H161457   3.758   6.015   2.047 -0.4670 -0.7185  0.2801
13322TIP3    H261458   3.777   5.941   1.916  0.4288 -1.5266  0.8495
13323TIP3   OH261459   1.520   5.315   1.242  0.2955 -0.4798  0.7738
13323TIP3    H161460   1.430   5.291   1.265 -0.8339  2.2572 -0.3230
13323TIP3    H261461   1.575   5.263   1.301 -2.0094 -1.8501  1.8408
13324TIP3   OH261462   5.869   5.807  15.002 -0.9777  0.2007 -0.3482
13324TIP3    H161463   5.857   5.722  14.960 -1.0684  0.0001  0.0825
13324TIP3    H261464   5.878   5.787  15.095  2.4524  0.3452 -0.5359
13325TIP3   OH261465   2.759   6.088  14.760 -0.3307  0.2791  0.3934
13325TIP3    H161466   2.834   6.060  14.708 -0.9333  0.6680 -0.7213
13325TIP3    H261467   2.722   6.006  14.794  0.2713  0.0452  0.4982
13326TIP3   OH261468   6.166   4.257  11.597 -0.2760  0.0754  0.1281
13326TIP3    H161469   6.098   4.192  11.579  0.1743 -0.0615 -1.1863
13326TIP3    H261470   6.125   4.341  11.575  0.5994 -0.1625 -2.8614
13327TIP3   OH261471   5.311   2.902  16.167 -0.2926 -0.0860  0.8254
13327TIP3    H161472   5.345   2.821  16.206  0.7542  0.2617  0.6811
13327TIP3    H261473   5.221   2.908  16.198 -0.1250 -0.8784  1.5118
13328TIP3   OH261474   6.706   1.812   2.807 -0.1330  0.7590  0.4642
13328TIP3    H161475   6.618   1.824   2.770  0.0322 -0.2991 -0.3132
13328TIP3    H261476   6.763   1.805   2.731  0.6607  1.5811  0.9699
13329TIP3   OH261477   6.155   5.988  16.614 -0.5875 -0.1392  0.0403
13329TIP3    H161478   6.088   5.989  16.545 -0.3798 -1.9014 -0.2384
13329TIP3    H261479   6.234   5.956  16.571 -0.2481 -0.5202  0.9079
13330TIP3   OH261480   0.204   5.963  13.917 -0.0437 -0.8832  0.6900
13330TIP3    H161481   0.277   5.900  13.917  0.3970 -0.3825  0.6618
13330TIP3    H261482   0.245   6.047  13.895 -0.8760 -0.8655 -0.9124
13331TIP3   OH261483   6.393   0.554  14.939 -0.1020  0.4478 -0.1851
13331TIP3    H161484   6.475   0.519  14.903  1.3656  2.4704  0.9392
13331TIP3    H261485   6.360   0.612  14.870 -1.2064 -1.1780 -1.0635
13332TIP3   OH261486   3.512   0.908   3.052  0.4972 -0.3018 -0.2017
13332TIP3    H161487   3.568   0.858   3.111 -0.3504  0.1803  1.0776
13332TIP3    H261488   3.513   0.997   3.088 -2.0547 -0.5438  0.6533
13333TIP3   OH261489   4.211   0.536   5.069  0.1783  0.8206 -0.3322
13333TIP3    H161490   4.178   0.625   5.060  1.3485  1.3266  0.1984
13333TIP3    H261491   4.297   0.538   5.028 -0.0786 -0.2733 -0.9867
13334TIP3   OH261492   3.105   1.732  17.011  0.8795  0.1651 -0.0941
13334TIP3    H161493   3.142   1.688  16.934  0.2989 -0.5468  0.0200
13334TIP3    H261494   3.111   1.667  17.081 -1.8699 -0.5779 -0.4038
13335TIP3   OH261495   2.563   1.723  15.537 -0.0919  0.0944 -0.5177
13335TIP3    H161496   2.534   1.812  15.515 -0.2575  0.2669  0.3696
13335TIP3    H261497   2.494   1.666  15.502 -0.1512  0.3338 -0.7939
13336TIP3   OH261498   1.523   6.078  11.573 -0.6981 -0.9309  0.0569
13336TIP3    H161499   1.515   6.131  11.652 -1.7234 -3.0266  1.4341
13336TIP3    H261500   1.446   6.101  11.521 -0.2769  0.0808 -0.1638
13337TIP3   OH261501   3.163   6.104  11.341 -0.0649 -0.3706  0.4648
13337TIP3    H161502   3.146   6.022  11.294  0.1732 -0.5016  0.6055
13337TIP3    H261503   3.214   6.157  11.279  1.4975 -1.1038  1.0816
13338TIP3   OH261504   0.640   1.418  16.130 -0.2090  0.3848  0.1381
13338TIP3    H161505   0.612   1.377  16.212 -0.2576  0.9564  0.4082
13338TIP3    H261506   0.734   1.432  16.140 -0.3714  1.2728  0.4560
13339TIP3   OH261507   0.236   1.700  14.826 -0.1898 -0.6204  0.1830
13339TIP3    H161508   0.301   1.766  14.805 -1.0383  0.9514  2.0903
13339TIP3    H261509   0.270   1.619  14.789  2.2105  0.3723  0.0618
13340TIP3   OH261510   3.178   5.918  16.645 -0.1240 -0.3930  0.8713
13340TIP3    H161511   3.259   5.954  16.610 -1.3608  0.1982 -1.5702
13340TIP3    H261512   3.202   5.883  16.731  2.4296  0.8089  0.7148
13341TIP3   OH261513   3.154   3.235   4.678 -0.2719  0.3399  0.2792
13341TIP3    H161514   3.171   3.278   4.762  1.4168  0.2419  0.0299
13341TIP3    H261515   3.134   3.144   4.701  1.6670 -0.0643  0.5417
13342TIP3   OH261516   5.037   4.989   5.049  0.3123  0.2698  0.3052
13342TIP3    H161517   5.126   4.996   5.014  0.0467 -0.5689 -0.5546
13342TIP3    H261518   5.025   4.896   5.068 -0.5271  0.3110  0.0271
13343TIP3   OH261519   4.772   3.407   0.047  0.4957  0.0584 -0.2448
13343TIP3    H161520   4.712   3.482   0.043 -0.0682 -0.3511  0.2960
13343TIP3    H261521   4.763   3.374   0.136  3.5506  1.5686  0.7470
13344TIP3   OH261522   1.586   2.506  14.224  0.0485 -0.2850 -0.3460
13344TIP3    H161523   1.529   2.546  14.289  0.3273  2.0332 -1.4352
13344TIP3    H261524   1.530   2.493  14.147 -0.1452 -2.4984  0.0974
13345TIP3   OH261525   1.166   5.452  14.201  0.0277  0.0230 -0.3625
13345TIP3    H161526   1.204   5.395  14.134 -1.2503 -0.1340 -0.9816
13345TIP3    H261527   1.103   5.396  14.246  0.6161  0.2342  0.7459
13346TIP3   OH261528   5.236   5.317   5.052 -0.0625  0.7731  0.7134
13346TIP3    H161529   5.191   5.399   5.033 -0.1427  0.9173  1.4771
13346TIP3    H261530   5.169   5.263   5.094 -1.3120 -1.3074 -3.4031
13347TIP3   OH261531   4.525   1.040   5.130 -0.7708  0.3965 -0.1784
13347TIP3    H161532   4.604   1.018   5.082 -1.8174 -0.6374 -1.4622
13347TIP3    H261533   4.558   1.083   5.210  1.0552  0.2171 -0.7803
13348TIP3   OH261534   1.153   3.109  11.633 -0.3714  0.5153 -0.1695
13348TIP3    H161535   1.090   3.172  11.598 -0.3094  1.2615  1.0102
13348TIP3    H261536   1.099   3.049  11.685 -0.3198  0.0747 -0.6126
13349TIP3   OH261537   1.732   2.219  15.566  0.2423 -0.2342  0.0834
13349TIP3    H161538   1.765   2.183  15.649  0.6256 -0.3937 -0.1391
13349TIP3    H261539   1.741   2.147  15.503  0.8888  0.2029 -0.3328
13350TIP3   OH261540   1.159   2.943   3.172  0.2381  0.0466  0.2211
13350TIP3    H161541   1.218   2.868   3.177 -0.1530 -0.2856 -0.0096
13350TIP3    H261542   1.151   2.974   3.263 -1.3844 -1.6227  0.7147
13351TIP3   OH261543   1.436   5.601   5.087  0.0350 -0.3147  0.1990
13351TIP3    H161544   1.515   5.627   5.040  0.7773 -0.2396  1.4362
13351TIP3    H261545   1.366   5.611   5.023  1.0296 -0.4787 -0.9632
13352TIP3   OH261546   0.711   3.669   4.447  0.0372  0.0683 -0.1218
13352TIP3    H161547   0.742   3.674   4.357 -0.5260  1.1881 -0.2658
13352TIP3    H261548   0.791   3.673   4.500  0.3712 -0.6176 -0.5484
13353TIP3   OH261549   1.259   5.216   1.301  0.0793  0.3381  0.2182
13353TIP3    H161550   1.209   5.295   1.278  0.7664  0.6840 -0.1087
13353TIP3    H261551   1.280   5.175   1.218  2.1344  1.3271  0.1867
13354TIP3   OH261552   5.966   2.721  16.172  0.2210  0.9643  0.0237
13354TIP3    H161553   5.883   2.759  16.202 -0.0872 -0.4558  1.0977
13354TIP3    H261554   5.946   2.629  16.157  1.4801  0.7188 -0.2677
13355TIP3   OH261555   6.359   1.785   3.501  0.4806 -0.0218 -0.2628
13355TIP3    H161556   6.454   1.795   3.502  0.5576 -0.7755  0.6382
13355TIP3    H261557   6.340   1.724   3.571 -0.4591 -1.6504 -1.8433
13356TIP3   OH261558   5.169   0.613  16.216 -0.2544 -0.2720 -0.0715
13356TIP3    H161559   5.107   0.582  16.150  0.7641  0.2728 -1.3363
13356TIP3    H261560   5.125   0.688  16.257 -2.1817 -2.3918  2.0979
13357TIP3   OH261561   1.665   1.893  15.693 -0.2110  0.1295 -0.6826
13357TIP3    H161562   1.715   1.967  15.727  1.1715 -1.1870  0.2958
13357TIP3    H261563   1.669   1.902  15.598  0.0737  1.2075 -0.5739
13358TIP3   OH261564   1.605   5.753  14.832  0.2207 -0.2232 -0.3235
13358TIP3    H161565   1.523   5.792  14.802  2.0579  3.4435 -1.2290
13358TIP3    H261566   1.628   5.689  14.765 -2.3882 -2.2662  0.5868
13359TIP3   OH261567   1.770   2.308  11.639  0.0909 -0.3420 -0.0662
13359TIP3    H161568   1.697   2.340  11.691 -0.8908 -0.5227 -1.2828
13359TIP3    H261569   1.783   2.375  11.571  2.0559  0.4305  0.9843
13360TIP3   OH261570   5.858   0.087  16.210 -0.2951 -0.1791  0.7805
13360TIP3    H161571   5.811   0.004  16.223  0.4701 -0.4064  2.2204
13360TIP3    H261572   5.795   0.154  16.236 -0.6312 -0.3369  0.3978
13361TIP3   OH261573   5.680   4.725  13.507  0.1077 -1.0223 -0.0171
13361TIP3    H161574   5.704   4.726  13.599  2.3054  0.2251 -0.5301
13361TIP3    H261575   5.646   4.812  13.489  0.2699 -1.0563 -0.5138
13362TIP3   OH261576   0.029   3.165  12.737 -0.0535 -0.5658  0.4679
13362TIP3    H161577  -0.049   3.115  12.760 -0.4215 -0.0691  0.3388
13362TIP3    H261578   0.099   3.125  12.787 -0.4042 -0.9830  0.6343
13363TIP3   OH261579   1.148   0.234  10.845 -0.7293 -0.3130  0.1502
13363TIP3    H161580   1.122   0.146  10.870 -1.8359  0.2840  1.2140
13363TIP3    H261581   1.079   0.265  10.787  0.1607 -0.4802 -1.0411
13364TIP3   OH261582   2.441   3.062   1.845  0.2884 -0.3362 -0.1880
13364TIP3    H161583   2.462   3.136   1.788  0.0799 -1.1653 -1.3795
13364TIP3    H261584   2.488   2.988   1.807 -1.4179 -1.3283 -0.4634
13365TIP3   OH261585   5.095   0.975  14.366  0.1319 -0.4145 -0.0478
13365TIP3    H161586   5.116   1.044  14.428 -0.8593  0.5168 -0.7105
13365TIP3    H261587   5.005   0.952  14.385  0.2794 -1.1378 -0.2027
13366TIP3   OH261588   4.441   4.934  10.573  0.1489 -0.3065  0.4925
13366TIP3    H161589   4.350   4.959  10.557  0.1423  0.8234  2.0910
13366TIP3    H261590   4.486   4.952  10.490 -0.6868  1.1321  0.3213
13367TIP3   OH261591   6.175   5.915   1.696  0.4033  0.0460 -0.0504
13367TIP3    H161592   6.153   5.847   1.633 -0.4586 -0.5604  0.8720
13367TIP3    H261593   6.271   5.919   1.694  0.5143 -1.6821  0.3599
13368TIP3   OH261594   4.013   1.146  13.387 -0.2501 -0.0351 -0.0126
13368TIP3    H161595   4.054   1.071  13.344  2.0991  2.6073 -2.8343
13368TIP3    H261596   3.947   1.177  13.325 -1.4828  0.0754  1.2882
13369TIP3   OH261597   0.051   3.695  11.654  0.6156 -0.1407  0.5046
13369TIP3    H161598   0.088   3.732  11.734  2.1203 -2.1271  0.7978
13369TIP3    H261599   0.126   3.675  11.599 -0.3180 -0.0601 -0.8656
13370TIP3   OH261600   3.924   5.649  16.599 -0.1745 -0.0489 -0.0192
13370TIP3    H161601   3.927   5.702  16.679 -2.4165 -0.9098  0.7333
13370TIP3    H261602   3.837   5.666  16.562 -0.0726 -1.4260 -0.9916
13371TIP3   OH261603   3.045   0.251  16.385 -0.3373 -0.8914  0.3647
13371TIP3    H161604   3.036   0.300  16.302 -0.3226 -0.6934  0.4786
13371TIP3    H261605   2.961   0.207  16.395 -1.4748  1.3862  1.7023
13372TIP3   OH261606   1.265   4.181  16.288 -0.1998  0.2049 -0.2359
13372TIP3    H161607   1.331   4.177  16.218  0.5781 -0.7704  0.5235
13372TIP3    H261608   1.314   4.204  16.366 -1.0166  0.9785  0.0587
13373TIP3   OH261609   2.328   2.445  16.248 -0.1856  0.5492 -0.2287
13373TIP3    H161610   2.372   2.429  16.164 -0.8878 -1.2943 -0.2992
13373TIP3    H261611   2.236   2.458  16.224 -0.4712 -0.4469  0.2546
13374TIP3   OH261612   0.049   2.932   3.013 -0.2366  0.2537 -0.2407
13374TIP3    H161613  -0.019   2.994   2.987  0.7928  0.9182 -1.4828
13374TIP3    H261614   0.024   2.850   2.972 -1.7366 -0.2574  1.6088
13375TIP3   OH261615   1.791   3.821   3.530  0.1741  0.1671  0.2774
13375TIP3    H161616   1.855   3.843   3.597 -1.0795  0.1916  1.5309
13375TIP3    H261617   1.784   3.900   3.477  0.8282  0.3267  0.4260
13376TIP3   OH261618   5.138   2.495  13.992  0.0976 -0.3093  0.4060
13376TIP3    H161619   5.227   2.462  13.997  0.6785  1.1910  0.4709
13376TIP3    H261620   5.124   2.514  13.899 -0.6784 -1.8344  0.1745
13377TIP3   OH261621   1.133   1.878  14.973  0.2115 -0.1539  0.0576
13377TIP3    H161622   1.133   1.783  14.987  1.4747 -0.1136  0.4118
13377TIP3    H261623   1.097   1.914  15.054 -0.9434 -0.3462 -0.3496
13378TIP3   OH261624   2.340   1.724  13.308 -0.3630 -0.1579 -0.1211
13378TIP3    H161625   2.375   1.709  13.396 -2.6638 -0.6957  0.7721
13378TIP3    H261626   2.415   1.757  13.258  0.8268  0.9978  2.2385
13379TIP3   OH261627   4.487   0.427   1.218 -0.8685  0.2456 -0.2116
13379TIP3    H161628   4.532   0.501   1.259  0.5997 -0.9747  0.4950
13379TIP3    H261629   4.558   0.367   1.194 -2.0444 -1.0472 -0.5427
13380TIP3   OH261630   6.498   0.051  12.246 -0.4137  0.5025  1.0149
13380TIP3    H161631   6.465   0.133  12.208  0.6644  0.9190  0.9555
13380TIP3    H261632   6.588   0.044  12.215 -0.3039 -0.4229  1.4905
13381TIP3   OH261633   5.080   0.398   2.003  0.6667  0.2725 -0.0613
13381TIP3    H161634   5.051   0.422   1.915  0.2220 -1.8978 -0.5686
13381TIP3    H261635   5.045   0.467   2.060  0.4198  1.3671 -1.4809
13382TIP3   OH261636   1.375   5.824   5.539  0.2537 -0.2882  0.3893
13382TIP3    H161637   1.375   5.761   5.468 -1.2484  0.1377 -0.0265
13382TIP3    H261638   1.338   5.776   5.614 -1.1800  0.1342 -0.0088
13383TIP3   OH261639   3.390   5.438  14.421  0.0919  0.1289  0.5065
13383TIP3    H161640   3.405   5.353  14.379 -3.2312 -1.3415  1.9238
13383TIP3    H261641   3.460   5.445  14.486 -0.4791 -2.4092  1.5313
13384TIP3   OH261642   2.339   2.203  15.004  0.1338  0.4656  0.0121
13384TIP3    H161643   2.293   2.159  15.075 -0.8236 -0.1577 -0.9496
13384TIP3    H261644   2.326   2.145  14.928  1.2841  1.0048 -0.6339
13385TIP3   OH261645   3.180   1.371   4.093  0.1094 -0.2550 -0.2127
13385TIP3    H161646   3.143   1.457   4.073  2.1529  0.8546  0.4476
13385TIP3    H261647   3.230   1.347   4.015  0.5800 -0.2378  0.0800
13386TIP3   OH261648   2.496   2.420   4.892 -0.0678  0.5146 -0.6078
13386TIP3    H161649   2.556   2.360   4.937 -0.0283  0.5356 -0.6322
13386TIP3    H261650   2.470   2.483   4.959 -0.9145 -0.1321 -0.3177
13387TIP3   OH261651   6.056   6.617   6.677  0.2157  0.1334 -0.0592
13387TIP3    H161652   6.108   6.693   6.650  0.7264 -0.5827 -1.2077
13387TIP3    H261653   6.112   6.570   6.739  0.2327  0.2815  0.0370
13388TIP3   OH261654   4.699   0.358   3.272 -0.3607 -0.0137  0.4738
13388TIP3    H161655   4.639   0.343   3.345 -0.3181 -0.2893  0.4517
13388TIP3    H261656   4.684   0.285   3.212  1.0894 -0.9687  1.2022
13389TIP3   OH261657   6.152   1.794  13.732 -0.1681  0.2739  0.0115
13389TIP3    H161658   6.067   1.766  13.698  0.8825 -0.9682 -1.8265
13389TIP3    H261659   6.184   1.857  13.668  0.9210 -0.4489 -0.1987
13390TIP3   OH261660   6.724   2.060  15.701 -0.2478  0.1670  0.1684
13390TIP3    H161661   6.652   2.123  15.706 -1.3096 -0.9963 -0.0393
13390TIP3    H261662   6.711   2.002  15.775  0.6924  0.1435  0.3257
13391TIP3   OH261663   1.608   4.795  16.523  0.2346 -0.4299  0.0863
13391TIP3    H161664   1.600   4.711  16.478  0.5484 -1.7565  2.3317
13391TIP3    H261665   1.697   4.824  16.504 -0.0334 -0.3117 -1.1002
13392TIP3   OH261666   0.971   2.441   0.474  0.8649 -0.1250 -0.0250
13392TIP3    H161667   0.992   2.534   0.466 -0.3357  0.1589  0.0483
13392TIP3    H261668   0.884   2.439   0.513  1.1956 -1.2962  0.7169
13393TIP3   OH261669   3.685   5.550   0.728  0.1602  0.5763 -0.0855
13393TIP3    H161670   3.698   5.544   0.633  1.5084  1.0220  0.0541
13393TIP3    H261671   3.612   5.612   0.739 -0.2670  0.2199 -0.8280
13394TIP3   OH261672   1.321   6.759  16.892  0.3894 -0.1626 -0.7566
13394TIP3    H161673   1.256   6.813  16.936 -0.2151 -2.1187  0.9312
13394TIP3    H261674   1.277   6.725  16.814 -0.3439 -0.7288 -0.1157
13395TIP3   OH261675   1.032   4.971   1.866 -0.8687 -0.1038 -0.1562
13395TIP3    H161676   0.988   4.900   1.819  1.1759 -0.4868 -1.6366
13395TIP3    H261677   1.121   4.970   1.831 -0.5725  2.7187  0.3420
13396TIP3   OH261678   3.257   1.179  12.851  0.4084 -0.1176 -0.4090
13396TIP3    H161679   3.213   1.095  12.848  1.1725 -0.5493  0.0419
13396TIP3    H261680   3.284   1.189  12.943  0.7981  0.3616 -0.5665
13397TIP3   OH261681   1.754   4.520   5.400  0.4379  0.1672 -0.3809
13397TIP3    H161682   1.831   4.544   5.349  1.0286  2.2229  1.3325
13397TIP3    H261683   1.732   4.599   5.449 -2.6260 -0.4294 -0.5919
13398TIP3   OH261684   4.853   3.460  16.316  0.0453  0.5283  0.0580
13398TIP3    H161685   4.894   3.517  16.382  0.4360  0.4203 -0.0849
13398TIP3    H261686   4.923   3.445  16.252  0.5494 -1.6606  1.0495
13399TIP3   OH261687   6.149   5.130   5.963 -0.3415  0.7049 -0.0755
13399TIP3    H161688   6.064   5.134   5.920 -0.3321 -0.3638 -0.2285
13399TIP3    H261689   6.139   5.062   6.030 -0.4107  2.4360  1.7764
13400TIP3   OH261690   3.821   6.349   1.688 -0.1969 -0.3244 -0.6152
13400TIP3    H161691   3.875   6.290   1.741  0.2338  0.2841 -0.3614
13400TIP3    H261692   3.884   6.410   1.650 -0.7900  1.0113  0.4676
13401TIP3   OH261693   2.387   1.015   2.559 -0.3800  0.2771  0.2383
13401TIP3    H161694   2.366   0.943   2.619  1.8294 -0.4148  0.2897
13401TIP3    H261695   2.318   1.080   2.574 -0.8413 -0.6049  2.2849
13402TIP3   OH261696   5.785   3.261  14.316 -0.2013  0.7015  0.0287
13402TIP3    H161697   5.739   3.228  14.239 -0.9013  0.9170  0.3354
13402TIP3    H261698   5.742   3.217  14.390  1.0215 -0.1478  0.2656
13403TIP3   OH261699   4.160   4.422  15.235  0.2918  0.2603  0.4547
13403TIP3    H161700   4.218   4.351  15.262 -0.9005 -0.4745  1.2049
13403TIP3    H261701   4.123   4.393  15.152 -1.3316 -0.7548  1.4681
13404TIP3   OH261702   5.859   6.558   5.675 -0.2730  0.0157 -0.0821
13404TIP3    H161703   5.883   6.589   5.763 -0.0343  0.6411 -0.3673
13404TIP3    H261704   5.937   6.510   5.646 -0.1842  0.1917 -0.1341
13405TIP3   OH261705   6.742   1.690   1.388  0.4234 -0.9992 -0.0624
13405TIP3    H161706   6.791   1.610   1.408  2.0622  0.2876  1.4536
13405TIP3    H261707   6.740   1.693   1.292 -0.2900 -3.1662 -0.1700
13406TIP3   OH261708   4.463   2.002  12.943  0.5266  0.0477 -1.0734
13406TIP3    H161709   4.483   1.934  13.007  1.7346  1.0472 -0.3406
13406TIP3    H261710   4.524   2.072  12.963 -1.6736  2.0002 -0.8228
13407TIP3   OH261711   5.960   2.409  12.199 -0.7692  0.0272 -0.3727
13407TIP3    H161712   5.957   2.399  12.104  2.6695 -0.6572 -0.5527
13407TIP3    H261713   5.887   2.357  12.231 -0.7058 -1.5881 -2.6018
13408TIP3   OH261714   6.281   5.955  12.188 -0.1611  0.3297 -0.1481
13408TIP3    H161715   6.249   5.873  12.225 -0.3191  0.2387 -0.4806
13408TIP3    H261716   6.374   5.957  12.210 -0.3749  0.5606  0.7580
13409TIP3   OH261717   3.929   2.155  12.008 -0.2742  0.0760  0.9740
13409TIP3    H161718   3.942   2.061  12.022 -1.3671 -0.6408 -2.0592
13409TIP3    H261719   3.966   2.172  11.921 -0.6540  2.3372  1.1987
13410TIP3   OH261720   5.293   5.819  11.354 -0.6371 -0.2299  0.3734
13410TIP3    H161721   5.218   5.865  11.316  0.3305  0.4049 -0.8611
13410TIP3    H261722   5.266   5.728  11.359 -0.6382 -0.4612 -2.4682
13411TIP3   OH261723   2.711   0.368  10.981  0.4977  0.9454  0.4085
13411TIP3    H161724   2.795   0.342  11.018  0.3746 -0.9015 -0.4543
13411TIP3    H261725   2.730   0.384  10.888 -0.3252 -1.1216 -0.1777
13412TIP3   OH261726   0.635   4.632   1.850 -0.3095  0.3548 -0.6558
13412TIP3    H161727   0.552   4.587   1.867  0.5604 -0.5812  1.5155
13412TIP3    H261728   0.614   4.725   1.861 -0.6007  0.0320  3.0161
13413TIP3   OH261729   0.512   5.432  12.369  0.5826  0.5269 -0.1592
13413TIP3    H161730   0.441   5.410  12.430  2.0318  0.2415  1.5008
13413TIP3    H261731   0.469   5.437  12.283 -1.1380 -1.3150  0.5174
13414TIP3   OH261732   3.795   2.966  17.028 -0.4152  0.3967 -0.2049
13414TIP3    H161733   3.752   2.888  16.994  1.0818 -0.6687  0.2687
13414TIP3    H261734   3.839   2.937  17.108  0.1619  1.7190 -0.0135
13415TIP3   OH261735   5.834   3.980   2.555  0.0416  0.3502 -0.3082
13415TIP3    H161736   5.853   4.053   2.613 -0.3204  0.1907  0.0194
13415TIP3    H261737   5.876   4.003   2.472 -0.5969  1.2243 -0.4041
13416TIP3   OH261738   0.136   1.332  17.224 -0.0492 -0.0808  0.0144
13416TIP3    H161739   0.138   1.238  17.204  2.4267 -0.4456  1.5095
13416TIP3    H261740   0.068   1.341  17.290  0.3809 -1.0369  0.6203
13417TIP3   OH261741   1.023   4.195  16.610 -0.2540  0.1843  0.2775
13417TIP3    H161742   1.100   4.173  16.557 -0.2000 -2.0059  1.1890
13417TIP3    H261743   1.058   4.214  16.697 -0.5395  1.7742  0.0763
13418TIP3   OH261744   6.145   0.167  12.323 -0.0031 -0.1069  0.3988
13418TIP3    H161745   6.207   0.147  12.393 -2.2340  1.5104  3.0536
13418TIP3    H261746   6.158   0.260  12.305 -0.5327 -0.1445 -0.1910
13419TIP3   OH261747   3.662   1.972   0.413 -0.1140  0.0283  0.1271
13419TIP3    H161748   3.659   2.067   0.429  2.1169 -0.0949  1.7772
13419TIP3    H261749   3.594   1.957   0.347  0.0318  2.8996 -0.8394
13420TIP3   OH261750   5.589   5.883  12.385 -0.4027 -0.1940 -0.1087
13420TIP3    H161751   5.614   5.826  12.458 -2.2956 -1.6350 -0.5086
13420TIP3    H261752   5.594   5.972  12.421  1.3394 -0.6590  0.9232
13421TIP3   OH261753   1.076   2.513   0.161  0.0320  0.1150 -0.0065
13421TIP3    H161754   1.143   2.445   0.156 -0.4641 -0.3012 -1.6882
13421TIP3    H261755   1.080   2.544   0.251  1.8536 -0.5224  0.1710
13422TIP3   OH261756   1.040   3.843  15.011 -0.6591  0.2646 -0.1128
13422TIP3    H161757   0.988   3.924  15.010  0.7452  1.2540 -2.3796
13422TIP3    H261758   1.130   3.873  15.023  0.1170 -0.6908 -2.7065
13423TIP3   OH261759   0.848   2.013  16.708  0.2942 -0.0223  0.5132
13423TIP3    H161760   0.922   1.963  16.675 -1.4025 -2.5909  0.3288
13423TIP3    H261761   0.805   1.956  16.772 -0.8606  1.8472  1.5335
13424TIP3   OH261762   2.241   4.830  12.844 -1.1785  0.4238 -0.1012
13424TIP3    H161763   2.263   4.895  12.912  1.9484  0.1444 -0.7057
13424TIP3    H261764   2.280   4.865  12.764 -0.1454 -1.7227 -0.6214
13425TIP3   OH261765   4.336   2.288   4.414 -0.5691  0.1437 -0.3736
13425TIP3    H161766   4.397   2.264   4.484 -1.2950 -0.2039  0.1528
13425TIP3    H261767   4.315   2.205   4.371 -3.1078 -0.3073  1.4718
13426TIP3   OH261768   1.282   6.698   2.304 -0.1606  0.0911  0.2108
13426TIP3    H161769   1.300   6.789   2.327  1.9995 -0.2641  0.1612
13426TIP3    H261770   1.319   6.647   2.375 -1.1095 -0.7794  0.1079
13427TIP3   OH261771   2.896   5.985  11.154  0.1264  0.6980 -0.3549
13427TIP3    H161772   2.872   5.949  11.239  0.8444 -0.3334 -0.5673
13427TIP3    H261773   2.985   5.952  11.138  0.3414  1.5888 -1.1134
13428TIP3   OH261774   4.619   5.539  12.951 -0.2581  0.0866  0.2961
13428TIP3    H161775   4.598   5.497  12.868  0.7321  1.4167 -0.6809
13428TIP3    H261776   4.534   5.565  12.987 -0.6818 -0.0880 -0.5470
13429TIP3   OH261777   4.599   6.601  13.073 -0.3470 -0.2619 -0.1471
13429TIP3    H161778   4.526   6.640  13.024 -2.5673 -3.6215  0.1653
13429TIP3    H261779   4.584   6.629  13.163  0.3965  1.2141 -0.4411
13430TIP3   OH261780   5.530   6.385  15.191  0.0282  0.0379 -0.5529
13430TIP3    H161781   5.447   6.395  15.145  1.0279 -0.5758 -2.5749
13430TIP3    H261782   5.597   6.415  15.129  1.4328 -0.7605  0.5013
13431TIP3   OH261783   3.347   0.331  16.002 -0.6284  0.2143 -0.4348
13431TIP3    H161784   3.335   0.243  16.036 -0.1951  0.6771  1.0203
13431TIP3    H261785   3.423   0.324  15.944 -0.2235 -0.2527  0.1454
13432TIP3   OH261786   6.445   2.319  14.594 -0.4781 -0.1676 -0.4535
13432TIP3    H161787   6.516   2.278  14.545  0.4053 -2.2519  2.2860
13432TIP3    H261788   6.479   2.404  14.619  0.8157 -0.8517  0.2066
13433TIP3   OH261789   2.748   0.917  13.095 -0.0170 -0.0776 -0.5750
13433TIP3    H161790   2.816   0.901  13.029  1.1836  0.1638  0.5599
13433TIP3    H261791   2.727   1.010  13.086 -1.1752 -0.4367 -1.8045
13434TIP3   OH261792   6.100   3.202   3.153  0.8363  0.1206  0.0677
13434TIP3    H161793   6.192   3.226   3.161  1.2843 -0.8793 -1.6456
13434TIP3    H261794   6.082   3.206   3.059 -0.5030 -0.9730  0.2461
13435TIP3   OH261795   1.450   3.164   4.839  0.0637  0.0087 -0.0083
13435TIP3    H161796   1.511   3.237   4.845 -0.9938  0.9605 -0.4601
13435TIP3    H261797   1.484   3.110   4.767 -0.0289  0.9359 -0.7697
13436TIP3   OH261798   2.563   0.509   1.712  0.0247  0.3696  0.6577
13436TIP3    H161799   2.640   0.532   1.660 -1.1790 -0.3600 -1.5328
13436TIP3    H261800   2.522   0.594   1.731  1.3365  0.7751  1.9100
13437TIP3   OH261801   4.545   1.676   3.519 -0.1853  0.2241 -0.6717
13437TIP3    H161802   4.515   1.700   3.606 -0.6749  1.0018 -1.0396
13437TIP3    H261803   4.481   1.715   3.460 -0.6976 -1.5587 -1.3417
13438TIP3   OH261804   2.966   4.277   3.196  0.4516  0.0055 -0.0553
13438TIP3    H161805   3.045   4.294   3.246  2.2096  0.1005 -2.6889
13438TIP3    H261806   2.895   4.280   3.261  2.4355  1.1009  2.1919
13439TIP3   OH261807   5.702   6.206   4.477 -0.1536  0.6008  0.6927
13439TIP3    H161808   5.727   6.185   4.567 -0.2694 -0.1884  0.5447
13439TIP3    H261809   5.621   6.256   4.485 -0.4351  0.0957  1.0032
13440TIP3   OH261810   3.560   0.250   1.061 -0.3502 -0.4101  0.6757
13440TIP3    H161811   3.591   0.298   1.137 -1.4279 -0.0059  0.8782
13440TIP3    H261812   3.542   0.318   0.996  2.2502 -0.8413 -0.6292
13441TIP3   OH261813   4.287   5.947   0.778 -0.2030  0.2401  0.3816
13441TIP3    H161814   4.247   5.882   0.835  0.8716  0.4811  1.4232
13441TIP3    H261815   4.285   6.028   0.829 -0.1721  0.7013 -0.3315
13442TIP3   OH261816   3.441   5.936   2.757 -0.4802 -0.1822  0.3287
13442TIP3    H161817   3.416   5.864   2.699  0.6833 -1.2241  1.0558
13442TIP3    H261818   3.522   5.906   2.799 -0.4020  1.2229  1.2655
13443TIP3   OH261819   1.271   2.178  12.808 -0.2211 -0.7695  0.2282
13443TIP3    H161820   1.326   2.241  12.760  0.4414 -0.7014  1.0450
13443TIP3    H261821   1.184   2.190  12.772 -0.8131  2.7757  2.3030
13444TIP3   OH261822   1.785   0.858  13.424  0.5708 -0.3555 -0.2058
13444TIP3    H161823   1.811   0.809  13.502  1.0202  0.2725  0.0518
13444TIP3    H261824   1.852   0.839  13.359  0.3440 -0.6640 -0.3504
13445TIP3   OH261825   0.556   0.929  12.444 -0.1539  0.6477 -0.3046
13445TIP3    H161826   0.506   0.905  12.522  0.6127 -1.7004 -0.4343
13445TIP3    H261827   0.647   0.910  12.467  0.2103  0.9762 -1.3836
13446TIP3   OH261828   4.642   4.148  11.969  0.7672  0.0735 -0.4066
13446TIP3    H161829   4.703   4.220  11.951  1.7758 -1.0045 -1.4357
13446TIP3    H261830   4.577   4.187  12.028  2.6701  1.1464  1.1053
13447TIP3   OH261831   2.325   2.235   4.550  0.5168  0.0899  0.0836
13447TIP3    H161832   2.239   2.194   4.538  1.0611 -0.7172 -1.2813
13447TIP3    H261833   2.309   2.304   4.615 -1.5898  1.2485 -1.5235
13448TIP3   OH261834   5.440   3.195   2.794  0.4187  0.1559  0.1223
13448TIP3    H161835   5.534   3.184   2.779  0.6437 -0.4030  1.7686
13448TIP3    H261836   5.430   3.288   2.816  0.4164  0.4520 -1.0809
13449TIP3   OH261837   1.650   1.247   4.105 -0.4251 -0.0059  0.4093
13449TIP3    H161838   1.593   1.258   4.180 -2.3782 -1.5045 -0.7405
13449TIP3    H261839   1.650   1.332   4.061  0.3902  0.7524  1.8150
13450TIP3   OH261840   2.842   1.123  12.837 -0.2413 -0.3676 -0.4032
13450TIP3    H161841   2.820   1.172  12.916  0.0885 -0.3565 -0.3161
13450TIP3    H261842   2.768   1.137  12.779  1.0625  2.6743 -1.5509
13451TIP3   OH261843   5.369   0.194   5.957 -0.2951 -0.3917 -0.2820
13451TIP3    H161844   5.436   0.263   5.953  0.2806 -0.7745  1.7366
13451TIP3    H261845   5.287   0.242   5.967  0.0993  0.0558  1.0847
13452TIP3   OH261846   6.549   2.268  15.408  1.0252  0.3775 -0.4526
13452TIP3    H161847   6.534   2.177  15.433  0.6845  0.5211 -0.1177
13452TIP3    H261848   6.567   2.313  15.490 -0.0329  0.8422 -0.4603
13453TIP3   OH261849   4.526   6.033   4.423  0.6872  0.4775  0.9539
13453TIP3    H161850   4.570   5.953   4.397  0.5326  0.3738  1.0114
13453TIP3    H261851   4.438   6.026   4.387  0.7743  0.7677  0.6833
13454TIP3   OH261852   6.024   6.671   0.138  0.2203 -0.1827  0.1059
13454TIP3    H161853   6.035   6.579   0.112  0.5187 -0.0727 -0.1734
13454TIP3    H261854   5.952   6.703   0.084 -0.4881 -0.4922  0.8468
13455TIP3   OH261855   5.756   0.482   0.588 -0.1709  0.3897  0.1772
13455TIP3    H161856   5.688   0.480   0.655 -1.2807  0.6258 -0.8871
13455TIP3    H261857   5.827   0.533   0.626 -1.6353  2.3966  0.4205
13456TIP3   OH261858   2.604   3.812   3.071  0.1616  0.6907 -0.2787
13456TIP3    H161859   2.515   3.811   3.104 -0.6638  1.5157 -2.3320
13456TIP3    H261860   2.640   3.896   3.101  0.5809  0.0380  1.1951
13457TIP3   OH261861   1.575   2.065   1.335 -0.2480  0.4028 -0.1691
13457TIP3    H161862   1.604   2.049   1.425 -0.6509 -0.1999 -0.1462
13457TIP3    H261863   1.487   2.030   1.331 -0.2629  0.4968 -0.7841
13458TIP3   OH261864   5.449   1.833   3.265  0.1984  0.0153 -0.2985
13458TIP3    H161865   5.460   1.913   3.316  1.8954  0.8936 -1.9248
13458TIP3    H261866   5.524   1.832   3.206 -0.4152 -2.1898 -1.1360
13459TIP3   OH261867   1.202   3.429   6.462 -0.0492 -0.2478 -0.5295
13459TIP3    H161868   1.198   3.481   6.542 -0.8916 -1.1942  0.0744
13459TIP3    H261869   1.263   3.358   6.483  0.5612  0.0974 -1.1068
13460TIP3   OH261870   6.148   3.319  15.849  0.6290  0.1678 -0.4011
13460TIP3    H161871   6.115   3.281  15.931 -0.7741  3.4732  0.7628
13460TIP3    H261872   6.089   3.286  15.782 -0.2653 -0.0417  0.4598
13461TIP3   OH261873   1.419   1.233   0.567  0.6639 -0.3989  0.6262
13461TIP3    H161874   1.332   1.256   0.535  0.6442 -1.7207 -0.3429
13461TIP3    H261875   1.468   1.315   0.565 -0.1513  0.0869 -0.1418
13462TIP3   OH261876   2.060   0.244  14.596  0.1066  0.3924 -0.1333
13462TIP3    H161877   2.028   0.316  14.650 -1.3815  0.3310 -0.8841
13462TIP3    H261878   2.042   0.272  14.506  0.8454 -0.3015 -0.5097
13463TIP3   OH261879   3.713   5.494  11.690  0.0014 -0.3113  0.3840
13463TIP3    H161880   3.681   5.574  11.649 -1.0469 -1.0759 -0.3520
13463TIP3    H261881   3.688   5.501  11.782 -3.2573 -1.2677 -0.3088
13464TIP3   OH261882   1.672   1.610  11.477 -0.2395 -0.4905 -0.0120
13464TIP3    H161883   1.751   1.615  11.531  2.4526  1.0051 -3.6510
13464TIP3    H261884   1.628   1.694  11.491 -0.5330 -0.8270  1.1217
13465TIP3   OH261885   1.989   5.964  16.979 -0.1161 -0.4257  0.6173
13465TIP3    H161886   1.946   5.991  17.060 -0.7148  1.9615 -0.3938
13465TIP3    H261887   1.972   6.036  16.918  1.0362 -1.7437 -1.3813
13466TIP3   OH261888   3.812   3.013  12.602 -0.1402 -0.6426 -0.0097
13466TIP3    H161889   3.828   3.046  12.513 -3.0212 -2.2089 -1.2578
13466TIP3    H261890   3.897   3.017  12.645  0.8053  3.0664 -1.7664
13467TIP3   OH261891   0.803   3.894   1.972  0.1111 -0.1899 -0.0342
13467TIP3    H161892   0.709   3.896   1.955  0.2075 -0.5257 -0.6363
13467TIP3    H261893   0.835   3.821   1.920  0.7618  0.1544 -0.1257
13468TIP3   OH261894   4.428   1.748   3.780  0.6071  0.5514 -0.1756
13468TIP3    H161895   4.383   1.671   3.748  0.0503  1.1307 -0.8139
13468TIP3    H261896   4.359   1.802   3.818  1.0795  0.4624  0.8256
13469TIP3   OH261897   1.695   6.451  12.288  0.9469  0.0436 -0.0788
13469TIP3    H161898   1.722   6.383  12.349 -2.7047  1.1472  3.1248
13469TIP3    H261899   1.636   6.407  12.227 -0.3362  0.0071  1.1495
13470TIP3   OH261900   2.272   1.996  14.483  0.1244 -0.3936  0.1811
13470TIP3    H161901   2.196   1.996  14.425  0.9393 -0.9074 -0.9244
13470TIP3    H261902   2.247   1.936  14.554 -0.1137 -1.4092 -0.7275
13471TIP3   OH261903   3.633   3.525  16.420 -0.0360 -0.1286 -0.5293
13471TIP3    H161904   3.721   3.547  16.387  0.7616 -0.8028  1.0621
13471TIP3    H261905   3.578   3.597  16.388  1.6371  1.8620  0.7801
13472TIP3   OH261906   0.951   2.514   4.320 -0.3308  0.0902  0.0929
13472TIP3    H161907   0.998   2.598   4.317  0.2203 -0.2390 -1.5283
13472TIP3    H261908   0.871   2.533   4.368 -1.5336  2.2598 -2.5022
13473TIP3   OH261909   0.125   4.563  17.021 -0.1755 -0.5712  0.1154
13473TIP3    H161910   0.173   4.526  16.947  0.8975 -0.8459  0.9307
13473TIP3    H261911   0.137   4.500  17.092 -1.1248 -0.2710  0.5650
13474TIP3   OH261912   4.521   0.391   4.498  0.1107  0.0067  0.0722
13474TIP3    H161913   4.601   0.429   4.461 -0.0811  0.3122 -0.0235
13474TIP3    H261914   4.553   0.326   4.561  0.4706 -1.6139 -1.6976
13475TIP3   OH261915   1.921   5.363  11.346 -0.3038 -0.0131  0.1253
13475TIP3    H161916   1.934   5.298  11.415  1.2569 -2.6451 -2.3745
13475TIP3    H261917   1.866   5.318  11.282  1.8988  0.5291 -2.3212
13476TIP3   OH261918   2.819   1.245  17.244  0.6774  0.3735 -0.6346
13476TIP3    H161919   2.756   1.181  17.275 -0.7034  2.0822  0.2447
13476TIP3    H261920   2.784   1.275  17.160  1.9686 -0.8637 -1.6613
13477TIP3   OH261921   6.058   3.000  14.446  0.0396  0.1580 -0.8498
13477TIP3    H161922   5.994   3.004  14.517  0.3392 -1.4757 -0.4656
13477TIP3    H261923   6.014   2.951  14.376  1.0508 -1.5455 -0.3414
13478TIP3   OH261924   3.140   2.257   4.211  0.0924  0.6092  0.4394
13478TIP3    H161925   3.060   2.279   4.164  0.5273  0.2693 -0.4943
13478TIP3    H261926   3.134   2.163   4.227  0.3070  0.5798  0.3521
13479TIP3   OH261927   3.734   2.268  16.403 -0.6654 -0.9009  0.0676
13479TIP3    H161928   3.673   2.330  16.363 -0.9517 -1.1053  0.1902
13479TIP3    H261929   3.781   2.229  16.330  0.6287  0.5841  0.0279
13480TIP3   OH261930   4.464   2.585  11.165 -0.5123  0.6185 -0.2568
13480TIP3    H161931   4.494   2.563  11.076  0.3815 -0.2764  0.2475
13480TIP3    H261932   4.542   2.577  11.219 -0.5855  3.0674  0.3407
13481TIP3   OH261933   5.583   1.574  13.987  0.4320  0.0307  0.0502
13481TIP3    H161934   5.511   1.586  13.926 -0.5747  0.2153  1.2428
13481TIP3    H261935   5.606   1.481  13.981  0.0642 -0.0381 -0.2848
13482TIP3   OH261936   5.091   3.213  13.513  0.2000 -0.2558  0.0221
13482TIP3    H161937   5.163   3.277  13.516 -0.3724  0.3597  1.4891
13482TIP3    H261938   5.134   3.130  13.491  1.3957  0.0788  0.9706
13483TIP3   OH261939   6.672   1.053   0.202 -0.1263 -0.3978 -0.5604
13483TIP3    H161940   6.700   1.063   0.293 -1.4361  0.4512 -0.2241
13483TIP3    H261941   6.577   1.063   0.205 -0.4105 -2.1955 -1.7785
13484TIP3   OH261942   1.550   4.803  15.839 -0.2325 -0.4917 -0.1400
13484TIP3    H161943   1.639   4.790  15.871  0.7176 -0.9003 -2.6809
13484TIP3    H261944   1.518   4.880  15.886  1.5446 -0.2034  0.6719
13485TIP3   OH261945   0.036   3.663   4.665  0.0276  0.3813 -0.3084
13485TIP3    H161946   0.082   3.607   4.602 -0.3935 -1.0060  0.5787
13485TIP3    H261947   0.032   3.611   4.745 -1.1585  1.3476  0.2912
13486TIP3   OH261948   1.277   6.449  11.247 -0.2901 -0.2811 -0.3517
13486TIP3    H161949   1.203   6.482  11.299 -3.2731 -1.4042 -3.4395
13486TIP3    H261950   1.303   6.523  11.193  0.3032 -0.1232  0.1420
13487TIP3   OH261951   6.508   2.676   2.305  0.6598  0.3084 -0.5065
13487TIP3    H161952   6.545   2.657   2.391 -1.0063 -0.9756 -0.0242
13487TIP3    H261953   6.523   2.770   2.293  1.1477  0.4610  1.0666
13488TIP3   OH261954   4.480   3.076   3.273  0.0449 -0.2462  0.4223
13488TIP3    H161955   4.521   3.162   3.286 -1.8738  0.7822  0.0658
13488TIP3    H261956   4.499   3.028   3.354  0.4407  0.8142  0.9805
13489TIP3   OH261957   3.777   0.134  13.995  0.5606 -0.5410  0.5275
13489TIP3    H161958   3.809   0.114  14.083  1.6165 -1.5615 -0.0658
13489TIP3    H261959   3.777   0.049  13.950  0.7253  0.0832 -0.6774
13490TIP3   OH261960   2.225   3.082   4.978  1.2231  0.2781 -0.4026
13490TIP3    H161961   2.175   3.094   5.059  0.0853 -2.6771 -0.5351
13490TIP3    H261962   2.311   3.053   5.008  1.0290 -0.1181 -0.2111
13491TIP3   OH261963   3.540   5.548   4.753  0.4355  0.0926  0.0543
13491TIP3    H161964   3.584   5.510   4.677  1.7975  1.5077  0.0972
13491TIP3    H261965   3.461   5.588   4.718  1.6042  1.7104 -0.8572
13492TIP3   OH261966   6.098   2.923   5.464 -0.1454 -0.3903 -0.4077
13492TIP3    H161967   6.156   2.999   5.475 -1.1323  0.4151 -0.6460
13492TIP3    H261968   6.053   2.916   5.548  0.6315 -1.3214 -0.0510
13493TIP3   OH261969   1.742   0.224  12.034  0.3397 -0.4910 -0.1550
13493TIP3    H161970   1.775   0.135  12.018 -0.6595 -1.3148  1.9918
13493TIP3    H261971   1.780   0.250  12.118 -1.4157  0.0251  0.5381
13494TIP3   OH261972   5.679   3.559   4.135  0.5902 -0.1957  0.4454
13494TIP3    H161973   5.774   3.569   4.139  0.7135 -1.3005  0.8735
13494TIP3    H261974   5.654   3.540   4.225 -0.2163  1.3636  0.5709
13495TIP3   OH261975   1.302   4.804   4.608  0.0443  0.4783  0.2061
13495TIP3    H161976   1.336   4.723   4.646 -0.6900  0.0712  0.0142
13495TIP3    H261977   1.353   4.874   4.650  1.6285 -0.1326 -0.6330
13496TIP3   OH261978   6.430   4.677   4.262  0.2009 -0.0207  0.5248
13496TIP3    H161979   6.370   4.668   4.188  1.5272 -1.2246 -0.4594
13496TIP3    H261980   6.458   4.769   4.259  0.7541 -0.2074 -0.9263
13497TIP3   OH261981   2.795   4.426   4.621  0.6490 -1.0132  0.2316
13497TIP3    H161982   2.873   4.481   4.620 -1.7101  2.7328 -1.2933
13497TIP3    H261983   2.795   4.383   4.535 -0.0228  0.8163 -0.7337
13498TIP3   OH261984   2.810   1.045  15.457 -0.5481 -0.1451 -0.2960
13498TIP3    H161985   2.750   0.979  15.492  0.1272 -0.0685  1.0968
13498TIP3    H261986   2.882   1.046  15.520 -0.3624  1.6481 -0.5030
13499TIP3   OH261987   5.712   1.225   2.555 -0.6028 -0.1314  0.8955
13499TIP3    H161988   5.795   1.200   2.596  0.5862  1.3053 -0.5011
13499TIP3    H261989   5.711   1.178   2.472 -0.1100  1.4790 -0.0717
13500TIP3   OH261990   0.372   5.258  11.856 -0.0933 -0.4619 -0.0650
13500TIP3    H161991   0.345   5.333  11.803 -0.5246  0.1730  1.0137
13500TIP3    H261992   0.290   5.211  11.874  0.2687 -1.6913 -1.4167
13501TIP3   OH261993   2.207   5.869  16.314 -0.2484  0.5627  0.1421
13501TIP3    H161994   2.186   5.918  16.235 -2.3663  1.3016  1.0804
13501TIP3    H261995   2.302   5.862  16.313 -0.2332 -2.6416 -4.2707
13502TIP3   OH261996   0.187   1.250   4.229  0.9934  0.4015 -0.2550
13502TIP3    H161997   0.168   1.179   4.168  4.2132 -0.9143  0.0447
13502TIP3    H261998   0.171   1.330   4.179  0.6592 -0.6045 -1.8145
13503TIP3   OH261999   1.921   3.514  14.014 -0.1571  0.0305  0.1149
13503TIP3    H162000   1.917   3.493  14.107 -1.6513 -1.4246 -0.2180
13503TIP3    H262001   1.878   3.439  13.971 -0.2768  1.0713 -1.6774
13504TIP3   OH262002   1.133   2.171  12.084 -0.4676  0.2466 -0.9180
13504TIP3    H162003   1.106   2.080  12.071  0.0291  0.2216 -1.8806
13504TIP3    H262004   1.107   2.215  12.003  0.3040  0.7133 -0.9195
13505TIP3   OH262005   3.798   4.349  11.780  0.2767 -0.5518 -0.7428
13505TIP3    H162006   3.877   4.375  11.733  0.1840  1.0499 -0.0699
13505TIP3    H262007   3.752   4.291  11.719  0.0812  1.5389 -2.6984
13506TIP3   OH262008   5.188   0.293  15.456  0.2460  0.5915 -0.4315
13506TIP3    H162009   5.242   0.327  15.527 -1.0621  0.1395  0.8053
13506TIP3    H262010   5.117   0.357  15.447 -1.0292 -0.6429  0.4509
13507TIP3   OH262011   5.020   6.770   1.158 -0.6832 -0.2011  0.0851
13507TIP3    H162012   5.088   6.837   1.169 -1.1964  0.5178 -0.9977
13507TIP3    H262013   5.056   6.693   1.202  0.2989  0.5189  0.6005
13508TIP3   OH262014   6.740   5.417  15.642  0.6042 -0.4881  0.0072
13508TIP3    H162015   6.663   5.470  15.664  1.8821  1.7484 -0.5622
13508TIP3    H262016   6.740   5.346  15.706 -0.2299  1.2056  2.0080
13509TIP3   OH262017   4.039   3.891   3.749  0.5231 -0.3177  0.1936
13509TIP3    H162018   4.090   3.834   3.691  1.7179 -0.8829  1.7196
13509TIP3    H262019   4.034   3.975   3.702  0.2544 -1.1468 -1.3148
13510TIP3   OH262020   2.135   5.623   2.552  0.0761  0.7398 -0.0382
13510TIP3    H162021   2.134   5.709   2.511  0.2108  1.1791  0.8605
13510TIP3    H262022   2.228   5.599   2.555  0.2429  1.5042  1.6100
13511TIP3   OH262023   6.140   3.277   5.464 -0.3954 -0.0532  0.1620
13511TIP3    H162024   6.234   3.273   5.447 -0.4327  0.1289 -0.1034
13511TIP3    H262025   6.102   3.296   5.378 -0.5619  1.3235  0.5091
13512TIP3   OH262026   0.540   6.714  10.734  0.2928 -0.1857  0.1776
13512TIP3    H162027   0.534   6.757  10.649  0.4299 -1.3663 -0.4389
13512TIP3    H262028   0.449   6.703  10.762  0.2524  0.3479  0.2663
13513TIP3   OH262029   0.408   6.729  11.828  0.3236  0.3091 -0.2119
13513TIP3    H162030   0.348   6.712  11.901 -0.5137  0.7601 -0.7905
13513TIP3    H262031   0.362   6.791  11.772  2.1398  2.2735  0.3598
13514TIP3   OH262032   6.068   6.693   2.617 -0.3458 -0.4656  0.1919
13514TIP3    H162033   5.973   6.691   2.613 -0.7111  3.8484  1.1212
13514TIP3    H262034   6.088   6.734   2.701  2.2118  0.0646 -0.5709
13515TIP3   OH262035   4.585   0.356   4.878  0.3938  0.1979  0.3523
13515TIP3    H162036   4.527   0.308   4.937  2.0772 -1.2684  0.9102
13515TIP3    H262037   4.605   0.295   4.808  0.5944  0.9675 -0.2777
13516TIP3   OH262038   4.803   4.387  11.549  0.2975 -0.1449 -0.6128
13516TIP3    H162039   4.723   4.371  11.498 -0.5859 -0.9824  0.9517
13516TIP3    H262040   4.864   4.426  11.486 -0.0335 -2.8536 -2.8540
13517TIP3   OH262041   1.433   6.534   4.869 -0.6324  0.2922 -0.1776
13517TIP3    H162042   1.347   6.505   4.899 -0.9372 -0.3708 -1.6287
13517TIP3    H262043   1.475   6.570   4.948 -1.6142 -0.8340  0.9044
13518TIP3   OH262044   2.578   0.701   4.667 -0.3949  0.2269 -0.5322
13518TIP3    H162045   2.558   0.610   4.645 -3.5515  0.4031  1.0630
13518TIP3    H262046   2.540   0.753   4.596 -1.1201  0.3706 -0.0537
13519TIP3   OH262047   6.404   1.508  16.609 -0.0377 -0.2927  0.2631
13519TIP3    H162048   6.312   1.483  16.615 -0.5647  1.0628 -1.4951
13519TIP3    H262049   6.419   1.523  16.516  1.2678  1.9890  0.7611
13520TIP3   OH262050   3.336   4.841   3.235  0.4827 -0.1159  0.0565
13520TIP3    H162051   3.309   4.903   3.167 -1.1069 -0.9691 -0.1510
13520TIP3    H262052   3.406   4.790   3.195 -0.0047 -0.1901 -0.7297
13521TIP3   OH262053   2.673   6.152  15.755  0.2266 -0.0083 -0.0613
13521TIP3    H162054   2.609   6.212  15.792  1.1394  1.0420 -0.1191
13521TIP3    H262055   2.747   6.155  15.815  0.3686 -0.9522 -0.1600
13522TIP3   OH262056   6.632   3.819  14.877  0.3010 -0.0690 -0.4933
13522TIP3    H162057   6.684   3.815  14.958 -0.0863 -1.0067 -0.2721
13522TIP3    H262058   6.578   3.740  14.880  0.9694 -0.6290 -2.1383
13523TIP3   OH262059   0.574   6.251   1.624 -0.1597  0.0492  0.2068
13523TIP3    H162060   0.481   6.260   1.603  0.2543  1.9823 -1.0567
13523TIP3    H262061   0.618   6.316   1.569  1.8944 -0.3957  1.2048
13524TIP3   OH262062   1.376   4.776   3.432  0.2978 -0.5679 -0.0469
13524TIP3    H162063   1.347   4.778   3.524 -0.7186  0.7180 -0.3686
13524TIP3    H262064   1.358   4.687   3.403  0.2251 -0.8656  0.8751
13525TIP3   OH262065   1.816   3.193   2.832 -0.2701  0.2142  0.0074
13525TIP3    H162066   1.758   3.270   2.834 -0.7387 -0.1395  0.3122
13525TIP3    H262067   1.843   3.181   2.923 -1.6760 -1.0616  0.3025
13526TIP3   OH262068   4.367   3.362  11.474 -0.4892  0.1129 -0.1579
13526TIP3    H162069   4.295   3.422  11.494 -0.1619  1.2410 -2.1096
13526TIP3    H262070   4.334   3.308  11.403  0.8224  1.2284 -1.6818
13527TIP3   OH262071   2.170   0.754   2.550 -0.2421 -0.1284 -0.0176
13527TIP3    H162072   2.156   0.752   2.455  0.7381  0.2519 -0.1750
13527TIP3    H262073   2.100   0.810   2.583 -1.2295 -1.1065 -0.3914
13528TIP3   OH262074   0.592   6.419  13.222  0.1645  0.1643  0.4492
13528TIP3    H162075   0.593   6.472  13.142  2.8347 -1.6705 -0.8818
13528TIP3    H262076   0.647   6.467  13.284  3.2470 -1.2225 -1.0200
13529TIP3   OH262077   3.416   2.522  15.649 -0.5404  0.4423  0.1997
13529TIP3    H162078   3.461   2.501  15.568 -1.0885 -2.0669  0.4823
13529TIP3    H262079   3.485   2.521  15.716 -0.2839  1.3752 -0.0279
13530TIP3   OH262080   1.523   4.433   1.172  0.2920 -0.4519 -0.8232
13530TIP3    H162081   1.499   4.482   1.251 -1.7089 -2.8152  0.1565
13530TIP3    H262082   1.619   4.425   1.178  0.3031  0.4210  0.7323
13531TIP3   OH262083   0.413   6.494  17.167 -0.3842 -0.3731  0.5123
13531TIP3    H162084   0.461   6.438  17.227 -2.8330 -0.4796  2.5599
13531TIP3    H262085   0.325   6.458  17.165 -0.7191  0.3460 -2.3128
13532TIP3   OH262086   2.114   4.825   6.596 -0.0512  0.8496  0.2203
13532TIP3    H162087   2.123   4.828   6.691 -0.5480 -0.4759  0.3333
13532TIP3    H262088   2.029   4.865   6.578 -0.3281  0.3723  0.4264
13533TIP3   OH262089   0.845   5.338  13.050  0.0497  0.0108 -0.1130
13533TIP3    H162090   0.844   5.244  13.070 -1.1623 -0.0854 -0.5466
13533TIP3    H262091   0.770   5.351  12.992 -0.1412  1.3605  0.4081
13534TIP3   OH262092   4.756   4.782  13.795  0.0989 -0.1187  0.4189
13534TIP3    H162093   4.713   4.711  13.842  0.4085 -1.1542 -0.8121
13534TIP3    H262094   4.843   4.749  13.776  0.4628  0.8394  0.3670
13535TIP3   OH262095   0.922   1.486  11.684 -0.3258  0.6307 -0.6534
13535TIP3    H162096   0.907   1.561  11.742  0.0713  0.3157 -0.1411
13535TIP3    H262097   0.948   1.415  11.742  0.9360  0.5426 -1.3020
13536TIP3   OH262098   6.419   0.422  13.672 -0.0217  0.4504  0.3925
13536TIP3    H162099   6.450   0.353  13.614 -0.5689  1.4929 -1.2303
13536TIP3    H262100   6.498   0.471  13.695  0.1651  0.2114  0.2663
13537TIP3   OH262101   4.700   2.482  14.548  0.2560 -0.0765 -0.6302
13537TIP3    H162102   4.761   2.552  14.570  0.0528  0.6603 -2.2605
13537TIP3    H262103   4.654   2.464  14.630  0.0997  1.9293 -0.2249
13538TIP3   OH262104   1.935   5.432  14.389  0.0136 -0.5154  0.6434
13538TIP3    H162105   1.889   5.515  14.402  0.9215 -0.0824  1.1509
13538TIP3    H262106   1.876   5.381  14.333  0.1712  1.0658 -1.0198
13539TIP3   OH262107   3.358   0.874  11.813  0.1389 -0.2698  0.6846
13539TIP3    H162108   3.347   0.961  11.774 -0.4304 -1.3236 -1.6750
13539TIP3    H262109   3.416   0.889  11.888  1.8781  1.8348 -0.9506
13540TIP3   OH262110   6.229   6.336  11.840 -0.3772 -0.0114 -0.2576
13540TIP3    H162111   6.290   6.392  11.888 -2.1271  0.2585  1.8105
13540TIP3    H262112   6.231   6.252  11.886 -0.2842 -0.5636 -1.2449
13541TIP3   OH262113   2.076   2.724   0.449 -0.3996  0.1994  0.5970
13541TIP3    H162114   2.040   2.768   0.525 -2.1431  0.2184 -0.1845
13541TIP3    H262115   2.087   2.633   0.477  1.0885  0.6323  1.5210
13542TIP3   OH262116   5.658   6.720  13.408  0.6820 -0.8327  0.3618
13542TIP3    H162117   5.652   6.800  13.356  0.2487 -1.5352 -0.7104
13542TIP3    H262118   5.748   6.690  13.395  0.6396 -0.8900  0.1998
13543TIP3   OH262119   3.535   4.981   3.380  1.1690  0.1476 -0.4614
13543TIP3    H162120   3.518   5.073   3.357  0.7926 -0.4413 -2.7717
13543TIP3    H262121   3.448   4.941   3.382  1.4192 -0.4035 -0.6327
13544TIP3   OH262122   0.265   5.294   1.373 -0.1839  0.5413  0.1260
13544TIP3    H162123   0.335   5.358   1.364  0.5924 -0.3602 -0.3626
13544TIP3    H262124   0.296   5.216   1.326 -1.2587 -0.0770  0.3924
13545TIP3   OH262125   2.632   0.848   2.189 -0.1850 -0.3284  0.2486
13545TIP3    H162126   2.714   0.881   2.227 -0.5703 -1.0781  1.8026
13545TIP3    H262127   2.587   0.927   2.158  0.2881  0.2969  1.1108
13546TIP3   OH262128   3.631   1.923  12.941  0.4661  0.4633 -0.6023
13546TIP3    H162129   3.536   1.909  12.944  0.6889 -1.1417  0.1781
13546TIP3    H262130   3.644   1.982  12.867 -1.2429  1.8247  0.1363
13547TIP3   OH262131   5.468   5.344  13.686  0.1274  0.1118  0.3946
13547TIP3    H162132   5.547   5.321  13.735  1.0324  2.2911  0.0666
13547TIP3    H262133   5.499   5.401  13.616 -1.5033 -0.6885 -1.0632
13548TIP3   OH262134   5.940   0.796   6.231  0.1084 -0.2680 -1.0456
13548TIP3    H162135   5.962   0.803   6.324  0.0821 -0.6217 -1.0119
13548TIP3    H262136   5.900   0.881   6.209 -2.1002 -1.0125 -0.1599
13549TIP3   OH262137   1.405   1.085  14.388 -0.6838 -0.1141 -0.6129
13549TIP3    H162138   1.376   1.161  14.439 -1.8018  0.2887 -1.7978
13549TIP3    H262139   1.363   1.010  14.431  2.3533 -0.4907  2.0855
13550TIP3   OH262140   3.498   3.326  11.781  0.5637 -0.4754 -0.6301
13550TIP3    H162141   3.427   3.346  11.719  0.6769 -0.0462 -0.6254
13550TIP3    H262142   3.575   3.314  11.725  0.8214  0.6091 -0.5446
13551TIP3   OH262143   3.672   0.100   5.061  0.0533 -0.7716 -0.6375
13551TIP3    H162144   3.684   0.033   5.129 -0.7865  0.0234  0.3293
13551TIP3    H262145   3.731   0.171   5.086  0.4126 -0.8489 -1.2550
13552TIP3   OH262146   6.771   4.978  16.261  0.5329 -0.2883 -0.2932
13552TIP3    H162147   6.685   4.937  16.257  0.1046  0.0955  2.6739
13552TIP3    H262148   6.753   5.072  16.249  0.3800 -0.1079  1.2142
13553TIP3   OH262149   5.329   4.271   2.202  0.3744 -0.3262  0.1334
13553TIP3    H162150   5.368   4.190   2.168 -1.6075 -2.5820  2.7922
13553TIP3    H262151   5.240   4.271   2.168  0.5809  1.2650 -0.5005
13554TIP3   OH262152   4.851   1.450   2.217 -0.2484  0.0390 -0.4354
13554TIP3    H162153   4.838   1.392   2.143 -0.5703  0.3499 -0.6243
13554TIP3    H262154   4.802   1.409   2.289  3.5823 -2.6921  0.9382
13555TIP3   OH262155   6.027   4.754  16.938 -0.1601 -0.0483 -0.6005
13555TIP3    H162156   6.096   4.820  16.943 -1.4063  1.2686  0.0710
13555TIP3    H262157   6.025   4.729  16.846  0.3129  0.9145 -0.8914
13556TIP3   OH262158   3.392   5.835   1.655  1.0878  0.2028 -0.0115
13556TIP3    H162159   3.379   5.838   1.560  0.5377  0.5560  0.0686
13556TIP3    H262160   3.306   5.810   1.690  0.5998  2.4188  0.5315
13557TIP3   OH262161   5.807   6.026  15.857 -0.0549 -0.3275  0.1103
13557TIP3    H162162   5.847   5.963  15.798 -1.1673 -1.0989  0.1495
13557TIP3    H262163   5.852   6.109  15.838  2.9964 -1.4898  1.5873
13558TIP3   OH262164   5.887   0.647   1.481 -0.0304 -0.4003 -0.2940
13558TIP3    H162165   5.835   0.610   1.410  1.3002 -1.1630 -0.9060
13558TIP3    H262166   5.948   0.707   1.438  0.1752 -0.1605  0.3144
13559TIP3   OH262167   6.812   6.436   4.313  0.4496 -0.5000  0.0818
13559TIP3    H162168   6.873   6.488   4.364  0.6317 -1.2479  0.6345
13559TIP3    H262169   6.743   6.411   4.375 -0.9362  1.1101 -0.7305
13560TIP3   OH262170   4.845   3.325  11.632  0.1738 -0.0400 -0.6018
13560TIP3    H162171   4.888   3.248  11.597  1.0983  0.7723 -1.2747
13560TIP3    H262172   4.867   3.396  11.572  1.4624  1.3085  1.3273
13561TIP3   OH262173   1.488   3.198   0.550  0.3207 -0.0985  0.0859
13561TIP3    H162174   1.543   3.258   0.601  0.8671 -0.6976  0.2155
13561TIP3    H262175   1.445   3.144   0.616  0.5318 -0.4467 -0.0577
13562TIP3   OH262176   2.454   4.307  12.568 -0.6112  0.1316 -0.0855
13562TIP3    H162177   2.412   4.377  12.618  0.5921  0.9683 -0.1755
13562TIP3    H262178   2.479   4.242  12.633 -0.7238  0.3244  0.1503
13563TIP3   OH262179   1.896   5.840   2.426  0.7662  0.5260  0.4083
13563TIP3    H162180   1.958   5.912   2.414  1.1716  0.6810  2.9802
13563TIP3    H262181   1.946   5.772   2.472 -0.4125 -0.1950  0.6769
13564TIP3   OH262182   5.076   1.572  16.088 -0.7385 -0.6532 -0.1475
13564TIP3    H162183   5.160   1.587  16.046 -0.6453  1.2569  0.5975
13564TIP3    H262184   5.058   1.479  16.075 -0.5704 -0.2766 -4.0468
13565TIP3   OH262185   0.979   1.753  14.115 -0.3063  0.1472  0.3281
13565TIP3    H162186   0.910   1.782  14.056 -1.2220 -1.9015  0.2983
13565TIP3    H262187   0.943   1.766  14.203  0.3703  1.5825  0.4127
13566TIP3   OH262188   4.207   2.487   0.655  0.4513  0.5925  0.1346
13566TIP3    H162189   4.210   2.553   0.586 -1.7914 -0.2799 -0.9043
13566TIP3    H262190   4.204   2.538   0.737  0.8882  1.7048 -0.5188
13567TIP3   OH262191   1.011   5.816  13.619 -0.0789 -0.4776 -0.4685
13567TIP3    H162192   1.013   5.726  13.585  1.9090  0.2677 -2.5034
13567TIP3    H262193   1.070   5.814  13.694  1.3061 -0.5566 -1.5180
13568TIP3   OH262194   1.814   5.621   3.080  0.2533  0.1851 -0.1062
13568TIP3    H162195   1.882   5.554   3.091 -0.3632 -0.2492  1.1957
13568TIP3    H262196   1.739   5.573   3.046  0.2653  0.4903 -0.5760
13569TIP3   OH262197   3.991   4.158   1.089  0.4538 -0.4668  0.0549
13569TIP3    H162198   3.969   4.074   1.130 -1.0851 -0.2830 -0.3183
13569TIP3    H262199   3.963   4.148   0.998  1.5381 -0.0147 -0.3417
13570TIP3   OH262200   2.783   0.753  15.842  0.0165 -0.0162 -0.2355
13570TIP3    H162201   2.865   0.707  15.824 -0.3947 -0.4291 -1.1246
13570TIP3    H262202   2.715   0.691  15.817 -0.5703  0.3443  0.4479
13571TIP3   OH262203   1.992   6.490  16.952  0.0906 -0.7046  0.5428
13571TIP3    H162204   2.060   6.468  17.016  0.3435 -0.6214  0.3036
13571TIP3    H262205   1.913   6.501  17.005  0.6515  1.0991  1.0955
13572TIP3   OH262206   0.365   5.508   3.122 -0.0112  0.0804 -0.3885
13572TIP3    H162207   0.447   5.553   3.143  0.0451 -0.4686  0.6713
13572TIP3    H262208   0.385   5.456   3.044  0.3145  0.7994 -0.7965
13573TIP3   OH262209   5.194   4.029  16.419 -0.3545 -0.1788 -0.3936
13573TIP3    H162210   5.101   4.014  16.408 -0.4533  0.3929 -0.3285
13573TIP3    H262211   5.200   4.101  16.482  0.1546 -1.5612  1.2137
13574TIP3   OH262212   6.278   6.383   0.711 -0.0315  0.1699 -0.0662
13574TIP3    H162213   6.223   6.326   0.764 -0.2864  1.0366  0.6150
13574TIP3    H262214   6.220   6.453   0.682  0.7015  1.1182  0.6934
13575TIP3   OH262215   0.188   1.138  12.949  0.0100  0.4494 -0.1261
13575TIP3    H162216   0.156   1.048  12.950  0.9275 -0.0080 -2.7742
13575TIP3    H262217   0.109   1.191  12.939 -0.4543 -0.1178  0.4151
13576TIP3   OH262218   0.457   0.823   0.658 -0.1421 -0.1196 -0.1270
13576TIP3    H162219   0.540   0.784   0.629 -0.3674 -0.4285 -0.3591
13576TIP3    H262220   0.416   0.757   0.713  0.1348  0.3453  0.6605
13577TIP3   OH262221   2.566   3.744   0.447 -0.2230 -0.3057  0.1858
13577TIP3    H162222   2.497   3.698   0.494 -0.0816  1.4613  2.3034
13577TIP3    H262223   2.537   3.836   0.446  2.6635  0.7853  2.5149
13578TIP3   OH262224   4.295   3.650  16.036 -0.5112  0.0907 -0.6285
13578TIP3    H162225   4.359   3.661  15.966  0.0697  1.3333  0.0607
13578TIP3    H262226   4.307   3.727  16.092 -1.9786 -0.1268  0.0311
13579TIP3   OH262227   1.345   6.083  15.015 -0.5003 -0.3169 -0.0230
13579TIP3    H162228   1.249   6.083  15.021 -0.4478  0.1026  1.0522
13579TIP3    H262229   1.374   6.126  15.095  0.5550  0.9698 -1.0462
13580TIP3   OH262230   3.987   6.468  14.626 -0.2828  0.0129  0.2531
13580TIP3    H162231   3.964   6.458  14.718 -0.2067  2.0902  0.5521
13580TIP3    H262232   3.905   6.451  14.579 -0.7996  0.7537  0.8551
13581TIP3   OH262233   3.227   1.466   5.827 -0.1029 -0.4354 -0.3796
13581TIP3    H162234   3.286   1.509   5.889  0.2762 -1.1447 -0.2376
13581TIP3    H262235   3.267   1.381   5.810 -1.1968 -1.0423 -0.0799
13582TIP3   OH262236   4.384   0.155   0.936 -0.0472  0.6118  0.1969
13582TIP3    H162237   4.333   0.186   0.861 -0.2318  0.1265  0.1190
13582TIP3    H262238   4.473   0.145   0.903 -0.0075  0.9536  0.1955
13583TIP3   OH262239   1.855   6.221  11.826  0.2478  0.4403 -0.1319
13583TIP3    H162240   1.916   6.158  11.787  0.4820 -0.4906  1.6548
13583TIP3    H262241   1.777   6.216  11.771  0.0845 -1.8019  0.2188
13584TIP3   OH262242   2.731   4.061   0.625  0.1435  0.5648 -0.3084
13584TIP3    H162243   2.784   4.009   0.565 -0.0915  1.3816 -1.2635
13584TIP3    H262244   2.793   4.114   0.674  0.3098  0.2282 -0.1529
13585TIP3   OH262245   0.587   0.410  14.825 -0.1003 -0.5220  0.2131
13585TIP3    H162246   0.624   0.489  14.864 -0.5764  0.7316 -1.7087
13585TIP3    H262247   0.591   0.426  14.730 -2.3275 -1.7905 -0.1770
13586TIP3   OH262248   4.130   0.257  15.753 -0.0083 -0.8214 -0.0101
13586TIP3    H162249   4.083   0.265  15.670  1.2945  0.0930 -0.6943
13586TIP3    H262250   4.101   0.332  15.805  0.9076 -0.0595 -0.5663
13587TIP3   OH262251   0.832   3.108  15.982  0.2772 -0.5195  0.4896
13587TIP3    H162252   0.797   3.172  16.044 -1.3808 -0.1787 -0.7146
13587TIP3    H262253   0.884   3.161  15.921 -1.4491 -0.1839 -0.7613
13588TIP3   OH262254   2.133   2.580  11.804 -0.3317  0.2750 -0.2991
13588TIP3    H162255   2.203   2.541  11.753 -0.8961  0.5976 -1.3367
13588TIP3    H262256   2.113   2.515  11.871 -0.0272 -0.4204 -0.8816
13589TIP3   OH262257   5.583   3.420   0.034 -0.3496 -0.3683 -0.1016
13589TIP3    H162258   5.651   3.483   0.014  0.1578 -1.5009 -2.2342
13589TIP3    H262259   5.573   3.368  -0.046 -3.1883 -0.7447  0.3623
13590TIP3   OH262260   6.415   3.491   4.077 -0.3249 -0.2233  0.4503
13590TIP3    H162261   6.397   3.579   4.111 -1.2220  0.0463 -0.6852
13590TIP3    H262262   6.499   3.467   4.117  0.7845  1.8316 -0.5155
13591TIP3   OH262263   2.814   5.600  15.700  0.3492  0.3148 -0.5518
13591TIP3    H162264   2.860   5.615  15.783  1.2248  0.6997 -1.0875
13591TIP3    H262265   2.751   5.530  15.719  0.8069  0.1334  0.3359
13592TIP3   OH262266   4.082   2.620   2.578  0.0427 -0.5269 -0.0502
13592TIP3    H162267   4.074   2.578   2.663 -2.3649  0.6539  0.4078
13592TIP3    H262268   4.040   2.559   2.517  3.0436 -2.0632 -0.7826
13593TIP3   OH262269   4.198   3.618  14.819  0.3689 -0.7813  0.4248
13593TIP3    H162270   4.111   3.583  14.835  1.3133 -5.1705 -2.2522
13593TIP3    H262271   4.185   3.688  14.755 -1.2546 -1.1995  0.2604
13594TIP3   OH262272   1.219   3.348  14.458  0.2880  0.2109 -0.2924
13594TIP3    H162273   1.179   3.425  14.500 -1.0967 -0.5219 -0.2305
13594TIP3    H262274   1.314   3.363  14.468  0.0277  0.7104  1.9201
13595TIP3   OH262275   3.482   0.226   1.721 -0.0328 -0.1423  0.2272
13595TIP3    H162276   3.397   0.185   1.739 -1.0954  2.2311  1.0504
13595TIP3    H262277   3.531   0.218   1.803 -0.6753  1.1379  0.7621
13596TIP3   OH262278   5.704   3.930  15.579 -0.1138  0.6971  0.0250
13596TIP3    H162279   5.619   3.971  15.565 -0.4460 -0.3265 -1.2290
13596TIP3    H262280   5.707   3.859  15.515  0.9062 -0.4867  1.3040
13597TIP3   OH262281   3.762   4.412  16.107  0.1681 -0.3657 -0.3054
13597TIP3    H162282   3.828   4.425  16.039  0.2879  1.2394  0.0903
13597TIP3    H262283   3.692   4.362  16.063  0.0500  0.9862 -1.7468
13598TIP3   OH262284   2.419   0.774   4.456  0.2149  0.0921 -0.3455
13598TIP3    H162285   2.478   0.782   4.381  0.5067  2.2003  0.0618
13598TIP3    H262286   2.331   0.779   4.419  0.3601  1.5085 -0.5272
13599TIP3   OH262287   5.318   0.780  13.782  0.1904 -0.0014 -0.1395
13599TIP3    H162288   5.372   0.733  13.846 -0.0018 -0.9905 -0.6767
13599TIP3    H262289   5.260   0.713  13.747 -0.7227  0.8504 -0.2751
13600TIP3   OH262290   0.660   4.259   3.515 -0.5163 -0.3945  0.0686
13600TIP3    H162291   0.666   4.176   3.563 -0.6407  0.5851  1.8900
13600TIP3    H262292   0.615   4.318   3.576 -1.2616  0.7616 -1.5408
13601TIP3   OH262293   0.794   0.083  16.368  0.0605  0.5052  0.1057
13601TIP3    H162294   0.874   0.120  16.405  1.0127  1.5255 -2.7183
13601TIP3    H262295   0.724   0.137  16.406  0.7459  0.2416  1.8358
13602TIP3   OH262296   2.971   3.679  14.691  0.1482 -0.7354 -0.3517
13602TIP3    H162297   3.001   3.765  14.664  0.3888 -0.7354 -0.0909
13602TIP3    H262298   2.875   3.682  14.682  0.1348 -0.3467 -0.0566
13603TIP3   OH262299   0.755   1.844  10.772 -0.0908 -0.1535  0.0651
13603TIP3    H162300   0.745   1.883  10.686 -0.5415  1.7936  0.9464
13603TIP3    H262301   0.681   1.784  10.781  1.0354 -1.9365 -1.6062
13604TIP3   OH262302   1.659   3.180  10.976 -0.0964  0.5671 -0.1001
13604TIP3    H162303   1.568   3.164  10.953  0.3529 -1.4006 -0.6833
13604TIP3    H262304   1.710   3.134  10.910  1.2832 -0.6071  1.6701
13605TIP3   OH262305   4.776   6.423  10.752 -0.2587  0.1543  0.6471
13605TIP3    H162306   4.834   6.428  10.829 -0.7193 -0.2546  1.0331
13605TIP3    H262307   4.762   6.329  10.740  0.6543  0.1656 -0.5908
13606TIP3   OH262308   4.255   3.294   3.450  0.2444  0.9089  0.0779
13606TIP3    H162309   4.187   3.254   3.504  0.6654  1.7790  1.3050
13606TIP3    H262310   4.337   3.262   3.488  0.5630  2.1181  0.4429
13607TIP3   OH262311   5.296   3.350  16.283  0.4432  0.7144 -0.0458
13607TIP3    H162312   5.272   3.441  16.299 -3.3553 -0.1358 -0.0017
13607TIP3    H262313   5.276   3.336  16.191 -1.2528 -0.5831  0.4720
13608TIP3   OH262314   2.846   5.154   2.542 -0.1848  0.1762 -0.0475
13608TIP3    H162315   2.779   5.212   2.578  0.4595  0.2615  1.0586
13608TIP3    H262316   2.921   5.164   2.601  0.9854  0.4536 -1.5175
13609TIP3   OH262317   4.142   0.678  11.775 -0.7436 -0.4336  0.0647
13609TIP3    H162318   4.158   0.628  11.695 -0.3243 -0.7688  0.3562
13609TIP3    H262319   4.094   0.755  11.745  0.4753  0.0638 -0.6926
13610TIP3   OH262320   0.176   3.562  14.733 -0.1070 -0.2212 -0.3366
13610TIP3    H162321   0.122   3.641  14.741  0.3584 -0.0092  0.8100
13610TIP3    H262322   0.150   3.507  14.806  2.0537  0.4155  0.9995
13611TIP3   OH262323   0.295   2.230   0.692 -0.3656  0.0152 -0.3575
13611TIP3    H162324   0.356   2.253   0.762 -0.0736  0.2313 -0.6815
13611TIP3    H262325   0.315   2.138   0.673  0.5640  0.3698 -1.1610
13612TIP3   OH262326   1.585   5.677   5.830 -0.1575 -0.7208 -0.2663
13612TIP3    H162327   1.518   5.610   5.815  0.2662 -1.1249 -0.3782
13612TIP3    H262328   1.664   5.627   5.852  0.2808 -0.2767 -0.8088
13613TIP3   OH262329   5.981   2.242  12.482 -0.7087 -0.2860  0.1672
13613TIP3    H162330   6.046   2.301  12.443 -0.8500 -0.3390 -0.1530
13613TIP3    H262331   5.902   2.257  12.431 -0.9265 -0.2801  0.5050
13614TIP3   OH262332   4.140   6.166   0.592  0.4316 -0.2274  0.3912
13614TIP3    H162333   4.191   6.247   0.591 -0.1812  0.1628  0.3406
13614TIP3    H262334   4.150   6.132   0.681 -0.9925  0.9986  1.0560
13615TIP3   OH262335   4.530   3.836  12.789 -0.6716 -0.0478 -0.6735
13615TIP3    H162336   4.496   3.813  12.875 -0.1098 -1.2704 -0.7524
13615TIP3    H262337   4.574   3.920  12.801 -0.7596 -0.1217  0.1770
13616TIP3   OH262338   2.204   4.481  16.364 -0.3554  0.5082  0.0604
13616TIP3    H162339   2.180   4.556  16.310 -2.0398  1.0467  1.4864
13616TIP3    H262340   2.158   4.407  16.325 -2.2533  1.0465  1.1739
13617TIP3   OH262341   1.463   6.229  11.788 -0.0015  0.1221 -0.3735
13617TIP3    H162342   1.384   6.278  11.764  0.2818  0.0924 -1.4122
13617TIP3    H262343   1.531   6.296  11.793  0.1846 -0.0307 -0.8351
13618TIP3   OH262344   3.972   5.826   3.914  0.5405  0.6462 -0.1977
13618TIP3    H162345   3.898   5.842   3.855 -0.9245  1.0927  1.6704
13618TIP3    H262346   4.030   5.902   3.901  0.6251  0.3752 -1.5537
13619TIP3   OH262347   3.729   6.211  14.174 -0.1156  0.6684 -0.1340
13619TIP3    H162348   3.766   6.282  14.226 -1.8991  0.3769  1.6345
13619TIP3    H262349   3.688   6.152  14.238  0.2074 -1.3123 -1.6394
13620TIP3   OH262350   2.363   5.669  16.541  0.0778 -0.5568  0.0863
13620TIP3    H162351   2.293   5.635  16.596  0.2401 -1.1263 -0.0548
13620TIP3    H262352   2.402   5.740  16.593 -0.3883 -0.4547  0.2981
13621TIP3   OH262353   5.287   6.217   2.210 -0.0702 -0.1794  0.2543
13621TIP3    H162354   5.302   6.249   2.121 -0.2908 -1.6193 -0.3300
13621TIP3    H262355   5.210   6.160   2.203 -0.6527  0.3876  1.5558
13622TIP3   OH262356   5.980   3.645  15.240 -0.4685 -0.5167  0.4966
13622TIP3    H162357   6.004   3.734  15.217 -0.4781 -0.5730  0.2659
13622TIP3    H262358   5.968   3.600  15.156 -1.3154 -0.5085  0.6053
13623TIP3   OH262359   1.852   0.649  12.239 -0.1299  0.1065  0.3855
13623TIP3    H162360   1.848   0.556  12.264 -3.1241 -0.1679 -0.7612
13623TIP3    H262361   1.789   0.692  12.296  0.3690  1.2581  0.0966
13624TIP3   OH262362   2.659   5.727  14.755  0.3138 -0.3561  0.2887
13624TIP3    H162363   2.753   5.736  14.767  0.0325  0.7048  2.1854
13624TIP3    H262364   2.644   5.633  14.747  1.5236 -0.5327 -0.0028
13625TIP3   OH262365   4.337   3.207  15.547  0.3360 -0.0643 -0.6263
13625TIP3    H162366   4.273   3.138  15.535 -0.3326  0.6512 -1.3216
13625TIP3    H262367   4.308   3.278  15.489 -0.0483  1.5310  1.4012
13626TIP3   OH262368   5.218   3.289   4.488  0.0879  0.6287 -0.6443
13626TIP3    H162369   5.255   3.341   4.418 -0.1871 -0.1966 -1.4197
13626TIP3    H262370   5.232   3.341   4.567  0.3894  1.5723 -1.3068
13627TIP3   OH262371   1.072   6.210   5.555  0.5778 -0.0862 -0.2516
13627TIP3    H162372   1.112   6.290   5.521 -2.5142  0.6786 -2.5486
13627TIP3    H262373   1.113   6.139   5.506  1.5877  0.3020  0.0197
13628TIP3   OH262374   0.533   3.529   3.322 -0.2020 -0.3411  0.4180
13628TIP3    H162375   0.461   3.590   3.309  1.1558  1.1481 -0.4615
13628TIP3    H262376   0.551   3.532   3.416  0.9529  2.0090  0.1841
13629TIP3   OH262377   4.967   1.232  16.285  0.3058  0.3976 -0.3900
13629TIP3    H162378   5.056   1.198  16.285 -0.6577 -2.3446 -0.0184
13629TIP3    H262379   4.933   1.209  16.372 -0.6558  1.7703 -0.3699
13630TIP3   OH262380   4.978   3.575   2.232 -0.0824  0.2245  0.1775
13630TIP3    H162381   4.993   3.510   2.164  0.5296 -0.9184  1.3389
13630TIP3    H262382   5.061   3.623   2.237 -0.1755  0.4016  0.0205
13631TIP3   OH262383   5.904   4.262   3.344 -0.0842  0.4222 -0.1445
13631TIP3    H162384   5.899   4.357   3.336  1.4886  0.4091 -1.9759
13631TIP3    H262385   5.950   4.233   3.265  0.6908 -1.7341  0.9961
13632TIP3   OH262386   2.413   3.566  15.345 -0.0603  0.2061  0.0079
13632TIP3    H162387   2.401   3.554  15.439  0.3313 -0.8494 -0.0682
13632TIP3    H262388   2.478   3.500  15.320 -0.0606  0.5625 -0.9819
13633TIP3   OH262389   1.739   1.689   4.290  0.0818  0.1747  0.2753
13633TIP3    H162390   1.793   1.637   4.230 -1.1830 -1.2012  0.2598
13633TIP3    H262391   1.723   1.631   4.365 -0.8597  0.7492  0.5408
13634TIP3   OH262392   4.382   5.418  11.342  0.5651 -0.5656  0.6912
13634TIP3    H162393   4.401   5.424  11.435 -0.8081  1.0453  0.9308
13634TIP3    H262394   4.310   5.355  11.336  0.9509 -1.0056  0.6600
13635TIP3   OH262395   5.328   1.426   3.160 -0.2197 -0.2014 -0.1732
13635TIP3    H162396   5.246   1.379   3.141 -0.1609 -0.0754 -0.7748
13635TIP3    H262397   5.313   1.514   3.125 -0.3673  0.2664  1.0407
13636TIP3   OH262398   1.790   0.132   0.239  0.5500 -0.2587  0.3681
13636TIP3    H162399   1.780   0.043   0.271 -0.0889 -0.1739  0.4187
13636TIP3    H262400   1.819   0.122   0.148  0.0733 -0.5242  0.2428
13637TIP3   OH262401   0.215   6.798  12.068  0.1100  0.8449 -0.3443
13637TIP3    H162402   0.252   6.857  12.133  2.9392 -0.7456 -0.3754
13637TIP3    H262403   0.168   6.732  12.118  1.5380  0.1206  0.0788
13638TIP3   OH262404   3.907   6.568  14.283 -0.3757  0.0157 -0.0559
13638TIP3    H162405   3.815   6.590  14.298 -0.6299  0.8504 -2.4306
13638TIP3    H262406   3.909   6.536  14.193  1.4770 -1.2571  0.3902
13639TIP3   OH262407   0.072   4.942   0.169 -0.4159 -0.8105 -1.2259
13639TIP3    H162408   0.071   5.027   0.124 -0.1862 -0.0328  0.1639
13639TIP3    H262409   0.057   4.878   0.100  1.1604  0.2211 -2.6050
13640TIP3   OH262410   3.192   3.545  12.764  0.5455  0.1175 -0.0751
13640TIP3    H162411   3.162   3.621  12.713  2.2429  0.3788 -0.7534
13640TIP3    H262412   3.206   3.476  12.698  0.6593 -0.2477  0.3262
13641TIP3   OH262413   4.269   3.627   0.180 -0.3360  0.3582 -0.4234
13641TIP3    H162414   4.277   3.648   0.273 -0.0461 -0.1422 -0.3277
13641TIP3    H262415   4.176   3.636   0.161 -0.1558  2.2623 -0.5333
13642TIP3   OH262416   3.001   1.563  16.385  0.0492  0.8249 -0.2744
13642TIP3    H162417   2.927   1.548  16.327  0.3211 -0.2573 -0.3655
13642TIP3    H262418   3.038   1.647  16.356 -2.3768  2.5114  1.1659
13643TIP3   OH262419   2.366   0.895  10.361  0.2614  0.1221 -0.1103
13643TIP3    H162420   2.375   0.868  10.452  0.6224  1.0717  0.1518
13643TIP3    H262421   2.272   0.900  10.347  0.1624  2.1023  0.9046
13644TIP3   OH262422   0.713   6.278   3.649 -0.5063  0.0825 -0.5159
13644TIP3    H162423   0.739   6.339   3.717  0.7429 -0.7394 -0.2154
13644TIP3    H262424   0.716   6.329   3.568 -1.6033  0.9551 -0.0318
13645TIP3   OH262425   3.747   5.866  17.082  0.0187  0.6925  0.3747
13645TIP3    H162426   3.806   5.941  17.090 -1.1351  1.4136  3.6386
13645TIP3    H262427   3.785   5.799  17.140 -0.8569  0.1280  0.3149
13646TIP3   OH262428   1.404   4.807   3.781 -0.0340  0.0191 -0.1750
13646TIP3    H162429   1.429   4.877   3.841  0.9543 -0.5859  0.1544
13646TIP3    H262430   1.317   4.831   3.750 -0.3004  0.6631  1.0185
13647TIP3   OH262431   3.120   0.026  13.351 -0.5241  0.0040 -0.0130
13647TIP3    H162432   3.175   0.013  13.274  0.1991  1.0394  0.3175
13647TIP3    H262433   3.164   0.093  13.403 -0.7254 -1.0156  1.5724
13648TIP3   OH262434   2.735   4.952  11.619 -0.3876 -0.1898  0.0191
13648TIP3    H162435   2.775   4.866  11.605 -0.0659  0.0954 -0.9145
13648TIP3    H262436   2.808   5.011  11.635 -0.5788 -0.0181  0.2665
13649TIP3   OH262437   4.276   0.837   0.458 -0.0720  0.3182 -0.3484
13649TIP3    H162438   4.348   0.807   0.402  0.0018 -0.3137  0.0812
13649TIP3    H262439   4.200   0.789   0.427 -0.1214  0.3004 -0.1992
13650TIP3   OH262440   4.810   2.531  14.994  0.6166  0.1486  0.5425
13650TIP3    H162441   4.849   2.492  14.916  0.9157 -2.2649  1.8091
13650TIP3    H262442   4.718   2.542  14.970  0.7757 -0.1864 -0.2976
13651TIP3   OH262443   4.088   3.708  13.455  0.2871 -0.2235 -0.9668
13651TIP3    H162444   4.029   3.633  13.468 -0.3290  0.2212 -1.1494
13651TIP3    H262445   4.141   3.683  13.380  0.3061 -0.6191 -0.8237
13652TIP3   OH262446   3.709   0.838   3.654  0.2163  0.7094  0.4038
13652TIP3    H162447   3.694   0.931   3.639  1.7554  1.2596  1.9083
13652TIP3    H262448   3.802   0.832   3.676  0.2119 -1.2317  0.0980
13653TIP3   OH262449   2.206   4.995   4.035 -0.7164 -0.1972 -0.7651
13653TIP3    H162450   2.279   4.947   4.074 -0.7099  1.2485  1.1038
13653TIP3    H262451   2.137   4.929   4.024 -0.3247 -0.8793  0.7094
13654TIP3   OH262452   4.637   0.235  12.669 -0.5616  0.3538 -0.2039
13654TIP3    H162453   4.727   0.202  12.677 -0.9910 -0.6753  0.5740
13654TIP3    H262454   4.582   0.157  12.678 -1.5640  1.0833  0.1173
13655TIP3   OH262455   6.564   3.047   1.160  0.5522  0.2132  0.9114
13655TIP3    H162456   6.469   3.037   1.170  0.5870 -0.0099  1.0294
13655TIP3    H262457   6.583   3.012   1.073  0.5165  0.3200  0.8610
13656TIP3   OH262458   4.004   3.667  12.245  0.5433 -0.6224 -0.1301
13656TIP3    H162459   4.081   3.638  12.196  0.4859 -0.7616 -0.1392
13656TIP3    H262460   4.022   3.759  12.265  0.7154 -0.6558 -0.1270
13657TIP3   OH262461   2.231   2.796   3.139  0.0041  0.1960  0.0414
13657TIP3    H162462   2.214   2.863   3.073  0.3536  0.1080 -0.1430
13657TIP3    H262463   2.145   2.772   3.171 -0.3585 -1.0518 -1.6792
13658TIP3   OH262464   0.991   0.341   5.681 -0.3722  0.2682 -0.4439
13658TIP3    H162465   1.037   0.392   5.614  0.4704  0.3118  0.1548
13658TIP3    H262466   0.979   0.254   5.642  1.1270 -0.0478 -0.2420
13659TIP3   OH262467   5.387   4.785   0.328 -0.1385 -0.4981  0.4368
13659TIP3    H162468   5.359   4.815   0.414  0.6851 -0.4358  0.6948
13659TIP3    H262469   5.306   4.769   0.280 -0.6858  2.6107  0.1194
13660TIP3   OH262470   5.691   2.879  16.945 -0.1748  0.9675 -0.4433
13660TIP3    H162471   5.736   2.802  16.980 -0.3656  0.5816 -1.0292
13660TIP3    H262472   5.609   2.844  16.909 -0.4476  1.5048 -0.3411
13661TIP3   OH262473   4.902   3.706   5.116  0.1474 -0.6829  0.4300
13661TIP3    H162474   4.855   3.625   5.134 -1.2165 -0.1731 -0.6710
13661TIP3    H262475   4.986   3.677   5.079  0.0581 -1.5985  0.9208
13662TIP3   OH262476   3.954   6.289   1.162 -0.7284 -0.7502  0.2205
13662TIP3    H162477   3.946   6.194   1.176 -0.6742 -0.8333 -0.2873
13662TIP3    H262478   3.984   6.323   1.247  0.9374 -1.4149 -0.0636
13663TIP3   OH262479   2.076   6.271   0.297  0.2600  0.5087  0.4463
13663TIP3    H162480   2.097   6.203   0.360  0.5652  0.7944  0.6527
13663TIP3    H262481   1.982   6.261   0.281  0.6692 -1.4308 -1.2424
13664TIP3   OH262482   2.921   3.450  15.415 -0.2728  0.1738  0.3942
13664TIP3    H162483   3.007   3.449  15.458 -0.4484  0.3230  0.7572
13664TIP3    H262484   2.898   3.358  15.406  0.7724  0.0529 -1.4541
13665TIP3   OH262485   0.988   6.748  12.184  0.4244 -0.3543 -0.1130
13665TIP3    H162486   1.046   6.785  12.118 -0.7925  2.0475  0.0653
13665TIP3    H262487   0.927   6.819  12.206 -1.3166 -2.1167  1.1554
13666TIP3   OH262488   0.310   1.452  14.709  0.1223 -0.1076 -0.4932
13666TIP3    H162489   0.305   1.358  14.695 -0.3022 -0.2816  0.7311
13666TIP3    H262490   0.339   1.487  14.625  1.9707 -1.4902 -0.5173
13667TIP3   OH262491   1.545   4.305   4.242 -0.3085 -0.1394 -0.3561
13667TIP3    H162492   1.558   4.222   4.196 -1.6814 -0.6506  0.1290
13667TIP3    H262493   1.458   4.298   4.281 -1.4858  2.4792 -2.2665
13668TIP3   OH262494   6.597   1.793   3.080 -0.2700  0.7787 -0.5389
13668TIP3    H162495   6.633   1.859   3.139  0.8758 -0.3439  0.0929
13668TIP3    H262496   6.652   1.799   3.002  2.2197 -1.6386  0.8190
13669TIP3   OH262497   3.183   0.086  12.178  0.4418 -0.6398 -0.8194
13669TIP3    H162498   3.199  -0.003  12.206  0.5275 -0.6883 -1.0204
13669TIP3    H262499   3.088   0.098  12.188  0.7337  0.0718  1.5954
13670TIP3   OH262500   5.210   0.289  15.951 -0.1626 -0.4330 -0.0623
13670TIP3    H162501   5.155   0.339  15.891  0.2306 -0.7885 -0.7273
13670TIP3    H262502   5.197   0.198  15.925  1.3971 -0.4774 -0.8108
13671TIP3   OH262503   1.224   6.185  13.568 -0.6036  0.1119  0.4927
13671TIP3    H162504   1.294   6.142  13.615  0.5188 -0.2261 -1.3714
13671TIP3    H262505   1.256   6.273  13.551 -0.9461  0.2063  0.3163
13672TIP3   OH262506   3.012   1.342  10.882  0.1880  0.1039  0.0259
13672TIP3    H162507   3.006   1.258  10.838 -0.4674 -0.3392  0.9304
13672TIP3    H262508   2.976   1.326  10.970  0.1804  1.2858  0.2552
13673TIP3   OH262509   0.246   2.750  16.571 -0.1426  0.8132 -0.2155
13673TIP3    H162510   0.230   2.718  16.482 -0.7923 -3.1433  1.1319
13673TIP3    H262511   0.339   2.773  16.572 -0.1175  0.8922 -1.8562
13674TIP3   OH262512   4.770   3.041  13.568  0.1712 -0.4160 -0.6016
13674TIP3    H162513   4.856   3.022  13.606  0.0585 -0.3639 -0.3173
13674TIP3    H262514   4.708   3.024  13.639 -0.3072 -3.0790 -1.5675
13675TIP3   OH262515   5.686   4.344   4.756 -0.1221  0.5205  0.5996
13675TIP3    H162516   5.746   4.348   4.682  0.4878 -2.1057  0.8580
13675TIP3    H262517   5.740   4.315   4.830 -1.4515 -0.8957  1.0775
13676TIP3   OH262518   6.780   3.121   3.285 -0.0913 -0.0367  0.2147
13676TIP3    H162519   6.760   3.063   3.212  0.8846  0.5427 -0.5312
13676TIP3    H262520   6.707   3.108   3.346 -1.1004 -0.2718 -0.9962
13677TIP3   OH262521   6.285   4.185   1.059 -0.3319 -0.0146  0.2950
13677TIP3    H162522   6.353   4.117   1.055 -0.9688 -0.6567  0.3563
13677TIP3    H262523   6.267   4.197   1.152  0.1144  0.5885  0.3135
13678TIP3   OH262524   2.363   5.361   0.082  0.4020  0.0956 -0.7059
13678TIP3    H162525   2.377   5.455   0.072  0.7278  0.0652 -0.5390
13678TIP3    H262526   2.334   5.331  -0.004  2.5535 -0.0566 -1.4228
13679TIP3   OH262527   0.714   1.369  11.175 -0.0601 -0.1200  0.2322
13679TIP3    H162528   0.694   1.459  11.150  0.5611 -0.4342 -1.5488
13679TIP3    H262529   0.792   1.347  11.125 -0.5566 -1.8506  0.1392
13680TIP3   OH262530   3.452   0.237   4.475 -0.6412  0.0471 -0.6888
13680TIP3    H162531   3.413   0.306   4.529  1.0746  1.7085 -1.4422
13680TIP3    H262532   3.388   0.222   4.405 -1.6478 -0.1494  0.2557
13681TIP3   OH262533   2.181   1.515  14.002  0.3114  0.8246  0.0977
13681TIP3    H162534   2.125   1.473  14.067 -0.7508 -1.9934 -2.3859
13681TIP3    H262535   2.269   1.508  14.039  0.0193 -2.6729  0.4441
13682TIP3   OH262536   5.043   0.750  13.910  0.4803 -0.2464 -0.0414
13682TIP3    H162537   5.043   0.780  14.001  0.9026 -0.2458 -0.0363
13682TIP3    H262538   4.971   0.688  13.905 -1.1184  1.5629 -0.3321
13683TIP3   OH262539   6.040   0.342   4.520 -0.3352  0.2515 -0.7677
13683TIP3    H162540   5.958   0.392   4.515 -1.8583 -2.1767 -1.9083
13683TIP3    H262541   6.048   0.319   4.612 -0.9767  0.4529 -0.6532
13684TIP3   OH262542   4.999   0.347  14.881  0.0693  0.5196 -0.2390
13684TIP3    H162543   4.928   0.389  14.930  0.5852  1.1138  0.0282
13684TIP3    H262544   4.957   0.310  14.804 -0.8642 -0.9356  0.9248
13685TIP3   OH262545   1.269   5.888   5.944  1.0407 -0.4108  0.5234
13685TIP3    H162546   1.343   5.892   5.884  0.0063  1.4122 -0.7474
13685TIP3    H262547   1.307   5.902   6.031  2.2796 -0.4424 -0.0041
13686TIP3   OH262548   5.333   6.519   2.908  0.0937  0.1298  0.1986
13686TIP3    H162549   5.342   6.611   2.885 -0.1910  0.7364  2.3375
13686TIP3    H262550   5.409   6.501   2.964  0.7399 -1.2549 -1.0518
13687TIP3   OH262551   6.374   3.534  16.390  0.2988 -0.5540 -0.1059
13687TIP3    H162552   6.345   3.532  16.299 -0.2765 -0.8086  0.0804
13687TIP3    H262553   6.329   3.610  16.427  0.2806 -0.6397  0.0481
13688TIP3   OH262554   6.419   4.958  15.731  0.0310  0.6812  0.3711
13688TIP3    H162555   6.386   4.886  15.784  2.7571  0.0815  1.4301
13688TIP3    H262556   6.498   4.923  15.688  0.5413  2.5498 -0.3382
13689TIP3   OH262557   2.940   5.254   0.650  0.1229  0.0048 -0.0777
13689TIP3    H162558   2.885   5.329   0.627 -0.4750 -0.8897 -1.7138
13689TIP3    H262559   2.902   5.221   0.732  0.7669  1.7997  0.9907
13690TIP3   OH262560   1.546   3.413  17.168 -0.2169 -0.1842 -0.3594
13690TIP3    H162561   1.564   3.408  17.074 -1.7068  0.5207 -0.7225
13690TIP3    H262562   1.518   3.324  17.191  0.4513 -0.4387 -0.5050
13691TIP3   OH262563   5.919   5.636   6.094 -0.8814 -0.3802  0.2888
13691TIP3    H162564   5.977   5.710   6.113 -0.7202 -0.4337  0.0178
13691TIP3    H262565   5.894   5.602   6.180 -1.9900  0.7825  0.4450
13692TIP3   OH262566   6.085   2.478   3.485 -0.6052 -0.3628 -0.0817
13692TIP3    H162567   6.042   2.396   3.507  1.1049 -0.9716  1.1930
13692TIP3    H262568   6.178   2.456   3.477 -0.2882  1.1675 -1.2235
13693TIP3   OH262569   6.433   2.605  11.257  0.1924 -0.1338  0.2064
13693TIP3    H162570   6.382   2.661  11.198  1.0311 -0.2128 -0.6307
13693TIP3    H262571   6.522   2.640  11.251  0.6518 -1.2873 -0.0191
13694TIP3   OH262572   6.723   1.138  10.806  0.2577  0.0397  0.2395
13694TIP3    H162573   6.705   1.048  10.781 -0.3839 -0.0219  0.9135
13694TIP3    H262574   6.637   1.179  10.815  0.5389  1.1794 -1.6561
13695TIP3   OH262575   0.380   2.864  15.486  0.2499  0.4934 -0.1801
13695TIP3    H162576   0.347   2.811  15.413 -0.2776  1.3104 -0.5579
13695TIP3    H262577   0.374   2.806  15.562 -1.7529  0.4616 -0.2982
13696TIP3   OH262578   2.801   1.747  14.764 -0.3508 -0.0274  0.3610
13696TIP3    H162579   2.752   1.665  14.767  1.6548 -1.2772  0.7474
13696TIP3    H262580   2.871   1.737  14.829  2.3285  0.3256 -2.2085
13697TIP3   OH262581   0.026   1.551  14.912  0.3802 -0.0711  0.9559
13697TIP3    H162582   0.115   1.586  14.912  1.0606 -1.6792  1.6690
13697TIP3    H262583   0.028   1.482  14.978 -1.3194 -0.3576  0.7490
13698TIP3   OH262584   0.982   3.319  16.984 -0.1054  0.1447  0.4134
13698TIP3    H162585   0.966   3.239  17.035 -0.3796  0.3413  0.6416
13698TIP3    H262586   1.057   3.360  17.028  1.8253 -1.3081 -1.2862
13699TIP3   OH262587   4.438   3.174   5.504  0.1701 -0.3462  0.3315
13699TIP3    H162588   4.528   3.155   5.528  1.3241  0.1182 -3.0285
13699TIP3    H262589   4.419   3.113   5.432 -0.2566  2.9078 -2.5744
13700TIP3   OH262590   0.372   5.975  16.556  0.1935 -0.4946  0.0634
13700TIP3    H162591   0.291   6.025  16.552  1.9724  2.7246  0.6472
13700TIP3    H262592   0.382   5.951  16.648  0.7788  0.8605  0.3867
13701TIP3   OH262593   3.723   5.226   2.155 -0.0506  0.2973 -0.2654
13701TIP3    H162594   3.664   5.293   2.120  0.5569  0.8449 -0.2633
13701TIP3    H262595   3.798   5.227   2.095  0.7206  0.8144  0.6870
13702TIP3   OH262596   5.334   1.132  15.524  0.1254 -0.1669 -0.0756
13702TIP3    H162597   5.300   1.073  15.456 -0.3192  0.0110 -0.0136
13702TIP3    H262598   5.380   1.201  15.475  0.1549 -0.2581 -0.1773
13703TIP3   OH262599   5.113   5.578   4.983  0.4752 -0.2362 -0.1756
13703TIP3    H162600   5.126   5.649   5.047  0.9362  1.2173 -1.8132
13703TIP3    H262601   5.150   5.612   4.902  0.8634 -2.4475 -0.9935
13704TIP3   OH262602   1.371   6.711  13.468  0.5205  0.2932 -0.0219
13704TIP3    H162603   1.394   6.722  13.376  2.0518 -0.0833  0.2782
13704TIP3    H262604   1.305   6.778  13.485 -0.7688 -0.4929 -1.6932
13705TIP3   OH262605   5.764   2.247  12.308 -0.1630  0.0229  0.0861
13705TIP3    H162606   5.679   2.245  12.350  0.4617 -0.7962  1.3617
13705TIP3    H262607   5.759   2.180  12.240 -0.5879  0.1119  0.0253
13706TIP3   OH262608   1.584   4.076   2.948 -0.1848 -0.3057  0.3449
13706TIP3    H162609   1.591   4.027   2.867 -1.4187  0.1445 -0.0664
13706TIP3    H262610   1.650   4.038   3.006  0.9948 -0.3613 -0.9920
13707TIP3   OH262611   2.680   4.559   0.028  0.3487 -0.2960 -0.1891
13707TIP3    H162612   2.756   4.553   0.086  0.4985 -0.2707 -0.3816
13707TIP3    H262613   2.679   4.650  -0.001  1.2236 -0.6584 -1.4812
13708TIP3   OH262614   0.579   1.916  12.685  0.4265  0.1253  0.0597
13708TIP3    H162615   0.484   1.910  12.684  0.4277 -0.0669  0.5229
13708TIP3    H262616   0.607   1.882  12.600  0.2203 -2.8176  1.0450
13709TIP3   OH262617   0.093   5.367  11.758  0.7263  0.1295  0.0567
13709TIP3    H162618   0.043   5.340  11.835  1.5629  0.0031  0.5662
13709TIP3    H262619   0.093   5.291  11.701  1.1455 -0.1907  0.4787
13710TIP3   OH262620   0.401   6.701   2.778 -0.6525  0.2466 -0.2290
13710TIP3    H162621   0.494   6.721   2.784 -0.2690 -0.8308 -1.8156
13710TIP3    H262622   0.395   6.610   2.807 -1.2797  0.4067  0.1644
13711TIP3   OH262623   4.120   0.493  17.153  0.2380 -0.1797  0.2657
13711TIP3    H162624   4.155   0.573  17.193  0.0926  0.9345 -1.7052
13711TIP3    H262625   4.051   0.464  17.212 -0.0078  1.4257  0.8062
13712TIP3   OH262626   0.208   2.356  16.717 -0.7649 -1.0407  0.5551
13712TIP3    H162627   0.139   2.344  16.652 -0.9412  0.0824  0.5104
13712TIP3    H262628   0.163   2.386  16.796 -0.2112  1.5608 -0.0302
13713TIP3   OH262629   6.464   4.399   1.042  0.0559  0.2267 -0.1607
13713TIP3    H162630   6.489   4.388   1.134 -1.7126  1.1378  0.4684
13713TIP3    H262631   6.391   4.338   1.030 -0.2864  0.7437 -0.7111
13714TIP3   OH262632   4.388   0.928   3.109 -0.0019 -0.4262  0.2080
13714TIP3    H162633   4.301   0.902   3.078  0.2495 -1.2651  0.1725
13714TIP3    H262634   4.376   1.018   3.140 -1.0346 -0.7426  0.7874
13715TIP3   OH262635   2.034   2.762   3.339  0.3168  0.3386 -0.3455
13715TIP3    H162636   2.084   2.788   3.416 -0.5382 -0.0725  0.3672
13715TIP3    H262637   1.994   2.679   3.364  0.7990 -0.2923 -1.5889
13716TIP3   OH262638   5.654   2.913  14.019 -0.6811 -0.3021  0.0294
13716TIP3    H162639   5.587   2.932  14.084  0.1042  0.7316  0.5749
13716TIP3    H262640   5.727   2.971  14.042 -0.9891  1.3952 -2.7500
13717TIP3   OH262641   1.638   4.862  13.969 -0.0601 -0.3474  0.6714
13717TIP3    H162642   1.615   4.775  13.937 -1.4269  0.6062 -1.1013
13717TIP3    H262643   1.649   4.915  13.890 -0.2205  1.3321  1.7229
13718TIP3   OH262644   5.176   3.770  13.329  0.1242 -0.2919 -0.2095
13718TIP3    H162645   5.156   3.797  13.418 -0.0545 -2.2455  0.3694
13718TIP3    H262646   5.143   3.842  13.274 -1.1543  0.2174  1.1866
13719TIP3   OH262647   4.413   5.859  12.495 -0.4221 -0.1302  0.0095
13719TIP3    H162648   4.326   5.898  12.494 -0.0410  0.7829  0.9733
13719TIP3    H262649   4.444   5.867  12.405  0.5974  4.1163  0.5294
13720TIP3   OH262650   1.891   0.872  12.457  0.4862 -0.3397 -0.5093
13720TIP3    H162651   1.982   0.895  12.437  0.8347  2.1500  2.9127
13720TIP3    H262652   1.841   0.904  12.382  2.2736 -0.3831 -1.7932
13721TIP3   OH262653   3.580   1.744  10.797  0.2577  0.3018  0.4790
13721TIP3    H162654   3.568   1.704  10.711  2.2761  4.5344 -2.1373
13721TIP3    H262655   3.513   1.812  10.801  1.4863  1.5290  1.2378
13722TIP3   OH262656   3.790   3.586   0.543  0.1172  0.1985  0.5265
13722TIP3    H162657   3.753   3.583   0.631  0.6036 -0.0524  0.7265
13722TIP3    H262658   3.725   3.633   0.491 -0.6044 -0.4614  0.8120
13723TIP3   OH262659   0.705   4.420  15.975  0.5108  0.0792  0.2050
13723TIP3    H162660   0.782   4.442  15.922  0.2349  0.5314 -0.0120
13723TIP3    H262661   0.656   4.502  15.981 -1.4207 -0.8286 -2.0041
13724TIP3   OH262662   1.459   1.691   0.161  0.7675 -0.3564  0.1310
13724TIP3    H162663   1.428   1.714   0.248 -1.3084 -1.2743 -0.3257
13724TIP3    H262664   1.495   1.603   0.170 -1.5660 -1.4240 -0.3371
13725TIP3   OH262665   1.010   1.633   2.291  0.7098  0.2172  0.0324
13725TIP3    H162666   0.934   1.576   2.288 -0.1617  1.2938  0.6907
13725TIP3    H262667   0.974   1.721   2.282  2.0373  0.6635 -1.2064
13726TIP3   OH262668   6.642   0.306   5.750 -0.2693  0.0023  0.5092
13726TIP3    H162669   6.549   0.329   5.745 -0.9523 -2.4974  0.4630
13726TIP3    H262670   6.682   0.353   5.677 -2.2037 -1.6124 -1.7659
13727TIP3   OH262671   3.086   6.535   0.577 -0.4051 -0.1936  0.3562
13727TIP3    H162672   3.067   6.468   0.642  0.6413 -0.7485  0.1183
13727TIP3    H262673   3.001   6.563   0.544 -0.8604 -1.1801  0.6923
13728TIP3   OH262674   0.680   4.876   5.056 -0.4127 -0.3835  0.2159
13728TIP3    H162675   0.626   4.950   5.083  0.8331  0.6147  0.0663
13728TIP3    H262676   0.735   4.911   4.986  0.6096 -1.2809  0.5454
13729TIP3   OH262677   2.315   0.684   2.785  0.2561  0.1745 -0.5618
13729TIP3    H162678   2.286   0.705   2.696 -2.3651 -1.3487 -0.1854
13729TIP3    H262679   2.243   0.715   2.841  0.6482 -1.1802  0.7570
13730TIP3   OH262680   4.277   2.021  11.292  0.0368  0.3700  0.2625
13730TIP3    H162681   4.242   2.077  11.223  0.8295  0.4051 -0.1202
13730TIP3    H262682   4.213   1.950  11.299  0.9914 -0.8137 -2.0376
13731TIP3   OH262683   3.303   6.457   0.953 -0.1293 -0.5310 -0.0987
13731TIP3    H162684   3.257   6.466   1.036  0.1557 -0.5918  0.0675
13731TIP3    H262685   3.236   6.470   0.886 -0.3583 -0.4828  0.1416
13732TIP3   OH262686   1.770   3.568   4.912  0.2252 -0.3667  0.1449
13732TIP3    H162687   1.809   3.651   4.885  0.3528 -0.1983  0.8322
13732TIP3    H262688   1.837   3.502   4.892  0.2925 -0.2502 -0.0092
13733TIP3   OH262689   2.798   1.623   1.079  0.2814  0.0708  0.4590
13733TIP3    H162690   2.804   1.540   1.127 -0.3834  1.0608  2.3383
13733TIP3    H262691   2.872   1.674   1.112  1.3889 -0.1371 -1.5427
13734TIP3   OH262692   5.662   3.367  12.317 -0.1222 -0.5167  0.2548
13734TIP3    H162693   5.574   3.388  12.350  0.2901  0.0102  1.0554
13734TIP3    H262694   5.659   3.273  12.299 -0.5625 -0.6986  1.2085
13735TIP3   OH262695   3.123   5.888   4.203  0.0069  0.3770  0.1011
13735TIP3    H162696   3.193   5.829   4.176 -0.5592 -0.5442  0.6022
13735TIP3    H262697   3.106   5.942   4.125  1.4289  0.8064  0.0541
13736TIP3   OH262698   6.336   1.227  12.297 -1.4055 -0.2467  0.0913
13736TIP3    H162699   6.296   1.229  12.210 -2.3765 -0.7247  0.5126
13736TIP3    H262700   6.316   1.313  12.334 -1.1636 -0.1147 -0.0835
13737TIP3   OH262701   3.535   4.100   0.534  0.0888 -0.3821 -0.4347
13737TIP3    H162702   3.519   4.136   0.622 -0.0134 -0.8792 -0.2509
13737TIP3    H262703   3.610   4.150   0.502 -0.5533  0.5629 -0.5053
13738TIP3   OH262704   4.430   1.348   0.990  0.2998 -0.0532  0.3410
13738TIP3    H162705   4.382   1.346   1.073  1.6422 -0.0707  1.1463
13738TIP3    H262706   4.429   1.257   0.960  0.0981 -0.1078  0.5105
13739TIP3   OH262707   1.292   1.234  14.582  0.2889  0.8043  0.3547
13739TIP3    H162708   1.209   1.224  14.629  0.0158 -1.6357 -0.5047
13739TIP3    H262709   1.277   1.308  14.523 -0.7982  1.2373  1.1412
13740TIP3   OH262710   3.845   4.383   3.816 -0.1220 -0.0500 -0.6177
13740TIP3    H162711   3.849   4.478   3.823 -1.4803  0.0582 -1.0225
13740TIP3    H262712   3.909   4.360   3.749  0.2054  0.5714 -0.5197
13741TIP3   OH262713   0.903   0.351   2.665 -0.7936 -0.4493 -0.2400
13741TIP3    H162714   0.917   0.332   2.757 -1.5007 -0.1272 -0.0618
13741TIP3    H262715   0.939   0.275   2.619 -1.4175 -1.1072  0.3445
13742TIP3   OH262716   2.051   6.385   3.152  0.1370  0.2156 -0.1013
13742TIP3    H162717   2.112   6.407   3.224  1.0257  0.3176 -0.8632
13742TIP3    H262718   2.030   6.470   3.113 -0.4069  0.1663  0.0842
13743TIP3   OH262719   3.294   2.647  10.944  0.0609 -0.3765  0.2181
13743TIP3    H162720   3.353   2.704  10.994 -0.3655 -0.4614  0.8345
13743TIP3    H262721   3.352   2.580  10.907  0.8126  1.2913 -1.8211
13744TIP3   OH262722   4.646   1.123  11.038 -0.3891  1.0942  0.8294
13744TIP3    H162723   4.630   1.031  11.059  0.0296  0.9568  0.5409
13744TIP3    H262724   4.736   1.138  11.065 -0.4545  1.4202  0.8644
13745TIP3   OH262725   3.346   0.539  13.100  0.0437 -0.4321 -0.0992
13745TIP3    H162726   3.380   0.473  13.160 -0.2739  1.0402  1.7999
13745TIP3    H262727   3.277   0.494  13.051 -1.0386 -1.2283  2.0172
13746TIP3   OH262728   2.834   2.835  12.684  0.1569  0.3009  0.5391
13746TIP3    H162729   2.776   2.771  12.725 -1.1407  0.5193 -0.8664
13746TIP3    H262730   2.814   2.917  12.729  0.3122  0.1354  0.9207
13747TIP3   OH262731   0.835   2.032   5.352 -0.1507 -0.5403  1.1582
13747TIP3    H162732   0.930   2.026   5.338 -0.5546 -2.1947 -1.6307
13747TIP3    H262733   0.817   2.126   5.355  1.4885 -0.1978  1.1785
13748TIP3   OH262734   1.050   2.477  11.538 -0.2184 -0.8257  0.1845
13748TIP3    H162735   1.043   2.415  11.465  0.9529  0.3427 -0.9751
13748TIP3    H262736   1.144   2.485  11.554 -0.4314 -0.5726  1.4013
13749TIP3   OH262737   6.420   6.148  11.056 -0.2444  0.3629  0.2779
13749TIP3    H162738   6.443   6.079  11.118 -0.8521 -0.6975 -0.6377
13749TIP3    H262739   6.432   6.107  10.970  1.6784  2.1240 -0.3846
13750TIP3   OH262740   1.442   1.538  12.745 -0.1418 -0.0506  0.1581
13750TIP3    H162741   1.359   1.503  12.712  0.2525 -0.8128 -0.0518
13750TIP3    H262742   1.458   1.489  12.826  0.9487 -1.1525 -0.6984
13751TIP3   OH262743   1.349   0.189   3.416 -0.1653 -0.0029  0.0961
13751TIP3    H162744   1.292   0.113   3.426 -1.2698  0.9123  1.0621
13751TIP3    H262745   1.307   0.257   3.468  0.8365  1.2524 -0.6851
13752TIP3   OH262746   3.130   1.906   0.087 -0.8460 -0.0535 -0.3195
13752TIP3    H162747   3.190   1.980   0.084  1.8307 -2.1096 -2.5276
13752TIP3    H262748   3.096   1.899  -0.002 -4.0290  0.6054  0.6879
13753TIP3   OH262749   3.073   4.011   0.784  0.0573  0.7407  0.0419
13753TIP3    H162750   2.981   4.030   0.766 -0.2399 -0.4261  0.2324
13753TIP3    H262751   3.122   4.074   0.732 -0.8475  1.0628 -0.4306
13754TIP3   OH262752   2.771   1.280   2.827  0.4450  0.2535  0.0583
13754TIP3    H162753   2.735   1.363   2.859  0.5463 -0.0138  0.8902
13754TIP3    H262754   2.695   1.224   2.815  0.3913  0.4105 -0.3417
13755TIP3   OH262755   4.690   4.808  13.519 -0.2610  0.3758 -0.1059
13755TIP3    H162756   4.736   4.807  13.603  1.8614 -0.8265 -1.2121
13755TIP3    H262757   4.671   4.716  13.501 -0.1614  0.5700 -1.2361
13756TIP3   OH262758   4.745   5.295  17.123  0.5302 -0.6943 -0.3173
13756TIP3    H162759   4.761   5.211  17.166  0.6673 -0.3983  0.2200
13756TIP3    H262760   4.660   5.323  17.156  1.3294  0.2822  1.0056
13757TIP3   OH262761   4.530   1.451  15.453  0.1429 -0.2685  0.6933
13757TIP3    H162762   4.541   1.536  15.410 -2.3190  0.5632  1.5094
13757TIP3    H262763   4.587   1.392  15.404  0.5473  1.4618 -1.0750
13758TIP3   OH262764   1.763   1.042   3.926 -0.0315 -0.1377 -0.1818
13758TIP3    H162765   1.738   1.120   3.976 -0.1470 -0.6430  0.5597
13758TIP3    H262766   1.834   1.003   3.977  0.2157 -0.3755 -0.6955
13759TIP3   OH262767   5.547   1.940  15.542 -0.5743  0.1162 -0.3453
13759TIP3    H162768   5.615   1.884  15.580 -1.5597 -0.9342 -0.0540
13759TIP3    H262769   5.529   2.006  15.609 -1.2498 -0.8275  0.4316
13760TIP3   OH262770   6.054   4.671   2.043 -0.5626 -0.1556  0.5953
13760TIP3    H162771   6.082   4.585   2.012  0.1115 -0.5471  2.1927
13760TIP3    H262772   6.054   4.726   1.964  1.8182 -0.9060 -0.0279
13761TIP3   OH262773   5.417   4.009   0.001 -0.0514  0.3626  0.0834
13761TIP3    H162774   5.473   4.064  -0.053  1.5299 -0.5723  0.6954
13761TIP3    H262775   5.426   3.921  -0.036 -0.3018  0.0175  0.8187
13762TIP3   OH262776   4.996   3.945   1.065 -0.2032  0.5288  1.1808
13762TIP3    H162777   5.047   3.931   0.985 -1.0833 -0.4061  0.7464
13762TIP3    H262778   4.927   4.006   1.038 -0.2332  0.5627  1.3357
13763TIP3   OH262779   1.657   4.922  17.243  0.0415 -0.6682  0.4730
13763TIP3    H162780   1.602   4.998  17.226  1.2139  0.5800  1.8915
13763TIP3    H262781   1.597   4.847  17.241 -0.7139 -0.2022 -3.8661
13764TIP3   OH262782   6.603   1.456  12.553  0.5262  0.5614 -0.0450
13764TIP3    H162783   6.541   1.507  12.500  0.2394  2.3899  1.9104
13764TIP3    H262784   6.548   1.400  12.607  0.7224  0.1140 -0.3061
13765TIP3   OH262785   2.484   1.593  11.146  0.5112 -0.9183  0.1250
13765TIP3    H162786   2.408   1.563  11.096  0.6793 -0.0807 -0.6591
13765TIP3    H262787   2.555   1.535  11.120  0.6281 -0.4139 -0.7315
13766TIP3   OH262788   1.472   0.783  16.846 -0.2532  0.5501 -0.0443
13766TIP3    H162789   1.420   0.852  16.887  1.1167  0.7571  1.4375
13766TIP3    H262790   1.519   0.742  16.918 -0.0337 -1.0758 -1.0678
13767TIP3   OH262791   5.741   4.497   6.148 -0.7472  0.1179 -0.1028
13767TIP3    H162792   5.836   4.497   6.158 -0.7816 -1.0381  0.5095
13767TIP3    H262793   5.714   4.586   6.171 -0.0382 -0.2503  2.5454
13768TIP3   OH262794   4.974   2.033   5.790  0.5631 -0.5832 -0.1344
13768TIP3    H162795   5.011   2.084   5.863 -1.3954  1.6342 -0.5760
13768TIP3    H262796   5.038   2.042   5.720  0.3738  1.2002 -0.1355
13769TIP3   OH262797   4.851   1.205   1.106 -0.3652 -0.5024 -0.2449
13769TIP3    H162798   4.811   1.253   1.179  2.5036 -2.1344  2.6230
13769TIP3    H262799   4.850   1.114   1.133  3.1932 -0.8795 -0.9530
13770TIP3   OH262800   2.496   0.541   5.212  0.0355  0.6103  0.2329
13770TIP3    H162801   2.533   0.488   5.282 -0.1229 -0.2811 -0.3369
13770TIP3    H262802   2.434   0.599   5.256 -1.9237 -1.6025  0.6044
13771TIP3   OH262803   5.291   4.144   5.064  0.0999 -0.2119  0.7224
13771TIP3    H162804   5.283   4.238   5.077  1.5700  0.2446 -1.2018
13771TIP3    H262805   5.218   4.106   5.113 -0.5655  1.9244  1.4577
13772TIP3   OH262806   0.730   6.776  10.940 -0.1845 -0.0497  0.1850
13772TIP3    H162807   0.649   6.769  10.890  0.6168  1.3274 -1.4358
13772TIP3    H262808   0.745   6.689  10.975 -1.5961 -0.6909 -0.7349
13773TIP3   OH262809   0.882   5.680   2.799  0.0217  0.2775 -0.3042
13773TIP3    H162810   0.906   5.772   2.788 -0.2971  0.4632  0.4948
13773TIP3    H262811   0.787   5.679   2.792  0.0189  0.0138 -0.2405
13774TIP3   OH262812   0.516   2.750  17.272 -0.7316  0.1952  0.0804
13774TIP3    H162813   0.568   2.688  17.222 -0.4284 -0.3740  1.0663
13774TIP3    H262814   0.502   2.824  17.213 -1.3113 -0.9001 -1.2097
13775TIP3   OH262815   5.046   5.523   6.073 -0.0841  0.0471  0.4593
13775TIP3    H162816   5.058   5.534   6.167 -0.4314  1.1672  0.3967
13775TIP3    H262817   4.998   5.440   6.064  2.1538 -1.3875  1.0660
13776TIP3   OH262818   6.588   4.622   3.386 -0.2235  0.3075 -0.1809
13776TIP3    H162819   6.576   4.684   3.314  1.5775  0.3606 -0.4735
13776TIP3    H262820   6.668   4.651   3.430 -0.0667 -1.0423  0.4756
13777TIP3   OH262821   2.022   4.548   1.662  0.5349  0.3958 -0.2810
13777TIP3    H162822   1.970   4.623   1.635  1.4059  0.0430 -3.3613
13777TIP3    H262823   2.060   4.515   1.580  1.6409 -2.2994  1.1989
13778TIP3   OH262824   5.838   6.125   1.870  0.3606  0.4153 -0.6843
13778TIP3    H162825   5.762   6.091   1.917  1.5366 -0.6138  0.5576
13778TIP3    H262826   5.801   6.187   1.807 -1.6636 -1.3511 -1.3809
13779TIP3   OH262827   3.182   3.976   3.150 -0.1582  0.7502 -0.0111
13779TIP3    H162828   3.249   3.984   3.218  1.2760  0.9519 -1.3910
13779TIP3    H262829   3.122   3.909   3.183  1.5398 -0.5283  0.6165
13780TIP3   OH262830   6.081   1.908  12.587 -0.1284 -0.2174 -0.6647
13780TIP3    H162831   6.132   1.962  12.526  0.2732 -2.0792 -2.0804
13780TIP3    H262832   6.106   1.818  12.566 -0.0751 -0.9682  2.2283
13781TIP3   OH262833   4.632   4.575   3.359 -0.4683 -0.0419 -0.3774
13781TIP3    H162834   4.673   4.646   3.309 -0.4865 -0.0100 -0.3482
13781TIP3    H262835   4.542   4.604   3.373 -0.9775 -0.8494 -1.8491
13782TIP3   OH262836   3.329   5.967  14.131  0.1772 -0.2579  0.0854
13782TIP3    H162837   3.370   5.920  14.204  0.1069  0.1480  0.3904
13782TIP3    H262838   3.368   6.055  14.135 -0.6112  0.0852  0.2836
13783TIP3   OH262839   2.013   5.776  13.608  0.1113  0.1108 -0.4086
13783TIP3    H162840   1.932   5.790  13.657  0.8068 -1.5120  1.3811
13783TIP3    H262841   1.985   5.758  13.519 -1.4907 -0.1960  0.1294
13784TIP3   OH262842   6.381   1.556  11.498 -1.0839  0.5569  0.4281
13784TIP3    H162843   6.437   1.626  11.531 -1.7904  1.7001 -0.7585
13784TIP3    H262844   6.294   1.594  11.493 -1.7319 -0.7747  0.8908
13785TIP3   OH262845   4.340   2.582   5.088 -0.0055 -0.3260 -0.0818
13785TIP3    H162846   4.310   2.512   5.030  1.4400 -1.5286  0.5541
13785TIP3    H262847   4.434   2.587   5.073  0.3606 -0.4348  1.8636
13786TIP3   OH262848   5.733   0.184  14.421 -0.5350  0.1926 -0.0160
13786TIP3    H162849   5.746   0.131  14.499 -0.0979  0.2494 -0.0480
13786TIP3    H262850   5.769   0.131  14.350  0.4100  0.7586  0.0267
13787TIP3   OH262851   2.748   2.660   4.747  0.4025  0.0890  0.7602
13787TIP3    H162852   2.829   2.641   4.700  0.5235 -0.1184  1.0474
13787TIP3    H262853   2.770   2.645   4.839  0.7263  2.3689  1.1009
13788TIP3   OH262854   3.768   2.430   0.800 -0.3027 -0.1598 -0.3114
13788TIP3    H162855   3.789   2.364   0.734 -1.2026 -1.2432  0.4457
13788TIP3    H262856   3.848   2.441   0.850  0.2824  0.4141 -1.3467
13789TIP3   OH262857   2.859   4.013  14.910 -0.9020  0.3613 -0.5548
13789TIP3    H162858   2.914   3.995  14.834 -0.7015  0.9708 -0.5631
13789TIP3    H262859   2.771   4.028  14.874 -0.7235  1.0535 -0.7128
13790TIP3   OH262860   1.865   4.096   4.683 -0.4880  0.4767  0.0737
13790TIP3    H162861   1.808   4.049   4.623  0.5643 -0.6254 -0.1095
13790TIP3    H262862   1.882   4.180   4.640 -0.2808 -0.0296 -0.8570
13791TIP3   OH262863   5.891   2.484   0.655  0.3816 -0.2368  1.0903
13791TIP3    H162864   5.966   2.502   0.599  0.0864 -2.0823  0.0148
13791TIP3    H262865   5.831   2.557   0.639  0.5899 -0.3775 -0.5121
13792TIP3   OH262866   3.017   3.475   1.941 -0.7016  0.4054 -0.5361
13792TIP3    H162867   3.004   3.567   1.918  1.0278  0.4971 -1.3042
13792TIP3    H262868   2.997   3.471   2.035 -1.1176  1.4970 -0.5706
13793TIP3   OH262869   3.551   5.144  12.559 -0.1047  0.2332  0.0605
13793TIP3    H162870   3.591   5.096  12.632  0.8937 -0.8745 -1.1519
13793TIP3    H262871   3.576   5.235  12.574  3.3987 -0.4241 -0.8223
13794TIP3   OH262872   0.246   1.853   6.053  0.2629  0.4693  0.4554
13794TIP3    H162873   0.339   1.869   6.073  0.2237  1.3775 -0.0773
13794TIP3    H262874   0.247   1.820   5.963  0.3699 -2.9072  1.5516
13795TIP3   OH262875   3.900   5.658  11.243 -0.3531  0.2498  0.1666
13795TIP3    H162876   3.983   5.623  11.274  0.8026  2.5676 -0.1575
13795TIP3    H262877   3.898   5.748  11.274 -2.3101  0.5478 -0.6728
13796TIP3   OH262878   4.702   5.540   2.378  0.3161  0.2752  0.7833
13796TIP3    H162879   4.722   5.628   2.411  0.6624 -0.2685  2.0596
13796TIP3    H262880   4.723   5.544   2.285 -0.2015  1.7056  0.6976
13797TIP3   OH262881   4.278   1.387  14.564  0.2816 -0.5278  0.0417
13797TIP3    H162882   4.270   1.437  14.645 -0.8476 -1.7824  0.7558
13797TIP3    H262883   4.347   1.431  14.515  1.6198 -0.2419  2.0602
13798TIP3   OH262884   6.302   3.180   2.579 -0.0799 -0.3178  0.1660
13798TIP3    H162885   6.216   3.207   2.610  0.0988  0.7477 -0.2222
13798TIP3    H262886   6.308   3.216   2.490 -0.4623 -3.0301 -1.0637
13799TIP3   OH262887   4.865   0.593  13.776 -0.5364  0.1593  0.0297
13799TIP3    H162888   4.781   0.556  13.748 -0.2983  0.0587 -0.5816
13799TIP3    H262889   4.881   0.664  13.713 -0.8884  1.1732  1.0581
13800TIP3   OH262890   2.003   0.357   3.961 -0.3823 -0.5896 -0.5128
13800TIP3    H162891   1.912   0.328   3.949 -0.8715  0.8120 -0.3805
13800TIP3    H262892   2.006   0.444   3.921  0.0126  0.8248  2.3332
13801TIP3   OH262893   3.749   0.519   1.142  0.3238  0.5641 -0.4857
13801TIP3    H162894   3.721   0.511   1.051 -1.4605  0.3074  0.0448
13801TIP3    H262895   3.756   0.613   1.157 -1.2500  0.6829 -0.3806
13802TIP3   OH262896   4.184   3.695  14.128 -0.3715 -0.5841 -0.5915
13802TIP3    H162897   4.172   3.601  14.113  0.1887 -0.7738  0.0650
13802TIP3    H262898   4.215   3.729  14.044 -1.8137 -0.7366 -1.2183
13803TIP3   OH262899   5.499   2.132   0.400  0.7101  0.6912  0.4016
13803TIP3    H162900   5.487   2.222   0.368  2.1547  1.0196  0.7158
13803TIP3    H262901   5.417   2.111   0.443  0.2615  1.7814  0.1223
13804TIP3   OH262902   0.088   3.646   4.176  0.2036 -0.9607  0.6275
13804TIP3    H162903   0.003   3.657   4.218 -0.1201  0.6973 -0.3539
13804TIP3    H262904   0.085   3.559   4.136 -0.9115 -1.0367  0.8691
13805TIP3   OH262905   0.219   0.530   0.365 -0.0100 -0.5017  0.6054
13805TIP3    H162906   0.291   0.476   0.332  0.9664 -0.1461  2.0501
13805TIP3    H262907   0.181   0.477   0.436 -3.3653 -2.1542 -2.1565
13806TIP3   OH262908   4.871   1.946  16.049  0.6919  0.3600  0.0216
13806TIP3    H162909   4.890   2.002  16.124 -3.5083  1.0261  0.8779
13806TIP3    H262910   4.834   1.866  16.088  2.3712 -1.1341 -1.3137
13807TIP3   OH262911   1.218   3.351   4.148 -0.1965 -0.2936 -0.0324
13807TIP3    H162912   1.230   3.432   4.197  0.9021 -0.7790  0.5425
13807TIP3    H262913   1.147   3.306   4.193 -1.7419  0.9036 -1.1446
13808TIP3   OH262914   5.949   2.124  14.205 -0.2749 -0.0394 -0.4008
13808TIP3    H162915   5.926   2.216  14.192  1.1462  0.2536 -0.9498
13808TIP3    H262916   6.041   2.118  14.181 -0.4365 -1.6917 -0.7138
13809TIP3   OH262917   5.340   6.158   3.752  0.1299 -0.4796 -0.1711
13809TIP3    H162918   5.392   6.239   3.752 -1.5739  0.7599  2.1287
13809TIP3    H262919   5.277   6.170   3.680 -1.0776  1.0338  1.0531
13810TIP3   OH262920   2.083   2.958  16.115 -0.3548 -0.1115 -0.3202
13810TIP3    H162921   2.136   2.923  16.043 -1.8256 -0.1298 -1.4455
13810TIP3    H262922   2.078   3.052  16.097  0.2291  0.0739  0.4318
13811TIP3   OH262923   1.861   2.581   3.453 -0.5157 -0.0021  0.0996
13811TIP3    H162924   1.818   2.496   3.444 -2.8446  1.0479  0.5958
13811TIP3    H262925   1.825   2.617   3.534  0.8914  1.2249  0.2127
13812TIP3   OH262926   1.620   4.958   1.198  0.0152  0.0611  0.1406
13812TIP3    H162927   1.659   4.961   1.286 -0.2663 -1.3495  0.3368
13812TIP3    H262928   1.608   4.865   1.181 -0.6575  0.3608 -1.0860
13813TIP3   OH262929   0.408   0.140  11.654  0.1327 -0.2110  0.2197
13813TIP3    H162930   0.406   0.171  11.564  0.2534  1.2743  0.7022
13813TIP3    H262931   0.501   0.126  11.672  0.5652  3.0292  1.1964
13814TIP3   OH262932   2.683   3.569  12.464 -0.4455  0.2089 -0.1599
13814TIP3    H162933   2.708   3.639  12.525 -1.6805 -0.3352  1.0221
13814TIP3    H262934   2.614   3.608  12.410 -1.5111 -0.2233  0.8519
13815TIP3   OH262935   1.820   3.516  15.825 -0.2475  0.5823 -0.8434
13815TIP3    H162936   1.783   3.497  15.739 -0.0747  3.1475 -1.5594
13815TIP3    H262937   1.912   3.490  15.819 -0.3145  0.4646 -1.3348
13816TIP3   OH262938   6.346   6.093   4.626  0.3380  0.1208  0.0417
13816TIP3    H162939   6.285   6.024   4.653 -0.1664 -0.3693 -2.1417
13816TIP3    H262940   6.432   6.061   4.653 -0.0609 -0.5737  0.5129
13817TIP3   OH262941   5.631   0.687   6.019 -0.0542 -0.2554  0.5624
13817TIP3    H162942   5.611   0.658   6.108  3.6146 -1.4708  1.1710
13817TIP3    H262943   5.692   0.621   5.986  0.0786  1.1267 -2.1943
13818TIP3   OH262944   0.969   4.594  10.724  0.1253 -0.4315 -0.0499
13818TIP3    H162945   0.997   4.506  10.747  0.9870  0.1869  1.4189
13818TIP3    H262946   0.882   4.603  10.764  0.4515 -0.2883  0.6294
13819TIP3   OH262947   1.985   6.513   4.460 -0.2921 -0.3308  0.3582
13819TIP3    H162948   1.981   6.427   4.418 -1.2057 -0.0485 -0.1770
13819TIP3    H262949   1.934   6.503   4.540  1.0267 -0.7316  1.1804
13820TIP3   OH262950   0.494   5.631  12.732  0.1661  0.0398  0.5755
13820TIP3    H162951   0.501   5.678  12.815  0.2361 -0.9508  1.1310
13820TIP3    H262952   0.406   5.654  12.700 -0.5500 -0.9203  1.7626
13821TIP3   OH262953   1.721   5.670  13.949 -0.1302  0.5526 -0.1172
13821TIP3    H162954   1.736   5.715  13.866  1.2964 -1.0254 -0.7894
13821TIP3    H262955   1.641   5.619  13.936  1.3682 -1.6221 -1.5042
13822TIP3   OH262956   0.685   2.963   0.713  0.3753  0.3418  1.2154
13822TIP3    H162957   0.745   3.034   0.736  0.0097  0.6960  1.0894
13822TIP3    H262958   0.601   3.007   0.699  0.6873  0.2527 -1.4272
13823TIP3   OH262959   3.309   1.895  12.489 -0.4729 -0.2626  0.1749
13823TIP3    H162960   3.213   1.899  12.486 -0.5197 -1.4428 -1.4361
13823TIP3    H262961   3.328   1.846  12.570 -1.2121  0.1379  0.6030
13824TIP3   OH262962   6.382   5.940   0.858  0.3018  0.0326 -0.2475
13824TIP3    H162963   6.349   5.859   0.818  0.9368 -1.8189  2.6188
13824TIP3    H262964   6.383   6.003   0.787 -1.4601 -2.1048 -2.3714
13825TIP3   OH262965   0.476   5.195   4.054  0.6948 -0.1329  0.3827
13825TIP3    H162966   0.505   5.107   4.031 -2.2938 -1.1676  0.0974
13825TIP3    H262967   0.448   5.189   4.146 -0.6812  0.1338  0.0103
13826TIP3   OH262968   4.350   5.424   0.568 -0.2537 -0.1307  0.2672
13826TIP3    H162969   4.418   5.383   0.515  0.7416  2.0710 -0.3185
13826TIP3    H262970   4.364   5.392   0.657 -0.9271 -2.6414 -0.4654
13827TIP3   OH262971   6.379   2.232  12.587 -0.1133  0.2960  0.6183
13827TIP3    H162972   6.433   2.245  12.665  1.6978  2.5805 -0.8961
13827TIP3    H262973   6.289   2.241  12.620  0.4904 -0.5284  2.6949
13828TIP3   OH262974   2.975   6.049  10.641 -0.4633  0.9120 -0.3178
13828TIP3    H162975   2.987   5.957  10.667  0.2254  0.8297 -0.8733
13828TIP3    H262976   3.065   6.082  10.633 -0.6550  1.0826 -2.0195
13829TIP3   OH262977   2.978   4.761   0.937 -0.4052  0.2252 -0.0614
13829TIP3    H162978   2.920   4.697   0.895 -0.8701  1.5670 -1.5541
13829TIP3    H262979   2.938   4.846   0.920 -0.0546  0.9472  2.2896
13830TIP3   OH262980   6.160   4.857  11.833  0.1387 -0.4188 -0.0730
13830TIP3    H162981   6.213   4.879  11.910 -1.1930 -0.7345  0.9881
13830TIP3    H262982   6.189   4.917  11.765  1.6855 -0.4423  0.5396
13831TIP3   OH262983   5.836   3.284  11.535  0.2954  0.8293 -0.4654
13831TIP3    H162984   5.797   3.197  11.541  2.8124 -0.3636 -0.2474
13831TIP3    H262985   5.763   3.344  11.549 -1.5971 -1.2103 -1.0716
13832TIP3   OH262986   3.747   5.932  15.971  0.0537  0.1449 -0.5597
13832TIP3    H162987   3.815   5.955  15.908  0.0865 -1.8224 -1.3337
13832TIP3    H262988   3.665   5.945  15.925  0.0674 -0.9831 -0.9439
13833TIP3   OH262989   2.742   1.646   5.496 -0.6501 -0.2369 -0.1163
13833TIP3    H162990   2.669   1.703   5.471  1.2120  2.3892  0.0749
13833TIP3    H262991   2.805   1.656   5.425 -0.0863 -1.8015  0.1354
13834TIP3   OH262992   5.564   5.144  12.461  0.1746  0.1591 -0.1084
13834TIP3    H162993   5.649   5.172  12.495 -0.0297 -0.0574  0.6044
13834TIP3    H262994   5.535   5.216  12.405  0.8936  0.1641 -0.4836
13835TIP3   OH262995   0.147   0.913   1.487 -0.2268  0.0023  0.0561
13835TIP3    H162996   0.098   0.953   1.414 -2.1012 -2.2316 -0.0292
13835TIP3    H262997   0.195   0.841   1.446  0.5188  0.1093  0.7221
13836TIP3   OH262998   3.843   6.155   3.893  0.6141  0.1587 -0.6416
13836TIP3    H162999   3.792   6.161   3.974 -0.5895  1.7167 -1.4526
13836TIP3    H263000   3.870   6.063   3.889 -1.1334 -0.4703  0.4601
13837TIP3   OH263001   0.502   5.975  15.669 -0.1455  0.3627 -0.4978
13837TIP3    H163002   0.413   6.009  15.674 -0.9527 -1.6732 -0.4829
13837TIP3    H263003   0.526   5.956  15.759 -0.5656 -1.1860 -0.6935
13838TIP3   OH263004   3.705   3.058   5.728 -0.1068 -0.1647  0.2831
13838TIP3    H163005   3.758   3.116   5.784  0.0198  0.3748 -0.3832
13838TIP3    H263006   3.770   3.005   5.682 -0.1924 -0.2471  0.2581
13839TIP3   OH263007   6.255   4.128  17.102  0.0511 -0.2916 -0.0671
13839TIP3    H163008   6.274   4.166  17.188 -2.0494 -0.0108  0.3142
13839TIP3    H263009   6.269   4.034  17.114 -3.8435 -0.7977  1.7700
13840TIP3   OH263010   6.400   0.437   5.738  0.0018 -0.0560  0.4682
13840TIP3    H163011   6.453   0.512   5.765  1.7760 -1.4099  0.9732
13840TIP3    H263012   6.381   0.453   5.646 -0.5631  1.5052  0.8251
13841TIP3   OH263013   0.871   4.561   0.445  0.0596 -0.1104 -0.1928
13841TIP3    H163014   0.962   4.582   0.424  0.0409  0.1560 -0.0122
13841TIP3    H263015   0.873   4.533   0.536 -0.0646  0.0553 -0.1398
13842TIP3   OH263016   5.051   0.100   5.110  0.3259 -0.5448  0.2905
13842TIP3    H163017   5.000   0.056   5.041 -2.1533  2.0655  0.2810
13842TIP3    H263018   4.994   0.098   5.187  0.8214  1.1402  0.7392
13843TIP3   OH263019   3.210   0.620   6.026  0.4039  0.2030 -0.2063
13843TIP3    H163020   3.262   0.560   5.972  1.0139  0.6777 -0.1519
13843TIP3    H263021   3.196   0.573   6.108  0.6341  0.0173 -0.2734
13844TIP3   OH263022   5.863   6.292  13.040 -0.1964  0.3395  0.0477
13844TIP3    H163023   5.788   6.331  13.085 -0.1209 -0.8400  1.2587
13844TIP3    H263024   5.876   6.208  13.083  1.7380  0.4352 -0.2516
13845TIP3   OH263025   3.939   0.176   0.653 -0.0798  0.4908 -0.1875
13845TIP3    H163026   4.000   0.106   0.629 -0.0505  0.3354  0.3207
13845TIP3    H263027   3.861   0.130   0.685 -0.4530  0.6884 -0.7898
13846TIP3   OH263028   0.253   6.246   0.278  0.7202 -0.1384  0.1576
13846TIP3    H163029   0.343   6.269   0.300  0.8755 -0.7661  0.1851
13846TIP3    H263030   0.243   6.155   0.306 -0.1532  0.1534  0.8483
13847TIP3   OH263031   2.092   6.743   4.370  0.0577 -0.1879 -0.4274
13847TIP3    H163032   2.054   6.659   4.396  1.0488  0.0641  2.0925
13847TIP3    H263033   2.177   6.746   4.414  0.5877  1.6151 -1.4663
13848TIP3   OH263034   1.434   2.964   0.012 -0.3736 -0.0010  0.1620
13848TIP3    H163035   1.384   2.945   0.091  1.6442  0.1763  1.5168
13848TIP3    H263036   1.447   2.878  -0.029 -2.0558 -0.0192 -0.4502
13849TIP3   OH263037   4.238   2.684  11.066 -0.4902 -0.8748 -0.3034
13849TIP3    H163038   4.306   2.714  11.005 -0.5300  0.7966  0.4204
13849TIP3    H263039   4.285   2.631  11.130  0.3720  1.0899  0.7782
13850TIP3   OH263040   6.451   5.422   6.119  0.2307 -0.1180 -0.3476
13850TIP3    H163041   6.515   5.471   6.170 -1.0539  1.0460  0.2096
13850TIP3    H263042   6.432   5.478   6.044 -1.8211  0.6643  0.6904
13851TIP3   OH263043   4.856   0.182  14.152  0.6900 -0.1105  0.4125
13851TIP3    H163044   4.856   0.278  14.159 -1.5644  0.0298 -0.6087
13851TIP3    H263045   4.804   0.153  14.227 -0.5020 -0.3417 -0.4651
13852TIP3   OH263046   1.758   3.071   5.088 -0.4884  0.3129 -0.6024
13852TIP3    H163047   1.760   3.095   4.996  2.2821 -1.4326 -1.0989
13852TIP3    H263048   1.838   3.107   5.124 -2.0816  2.0250  1.5271
13853TIP3   OH263049   2.430   0.941  16.552 -0.1738 -0.1108 -0.2367
13853TIP3    H163050   2.364   0.916  16.488  0.1171  0.8099 -0.8984
13853TIP3    H263051   2.428   1.036  16.554  1.2188 -0.0551 -0.3678
13854TIP3   OH263052   6.158   3.418   4.523 -0.0678  0.7518 -0.9282
13854TIP3    H163053   6.098   3.403   4.596  0.7397  0.5228 -0.2847
13854TIP3    H263054   6.147   3.510   4.500 -1.5605  0.4145 -1.6603
13855TIP3   OH263055   0.330   6.073  12.279 -0.5888 -0.9259 -0.4970
13855TIP3    H163056   0.262   6.120  12.230  0.2103  1.3795  0.4461
13855TIP3    H263057   0.408   6.079  12.225  0.1192  1.0275  0.6239
13856TIP3   OH263058   6.461   0.168   1.653  0.3268  0.2255 -0.2200
13856TIP3    H163059   6.473   0.189   1.560  0.1173  1.3088 -0.0124
13856TIP3    H263060   6.370   0.139   1.660  0.2232  0.5329 -0.2871
13857TIP3   OH263061   2.851   0.487   4.887 -0.7433 -0.2487 -0.6691
13857TIP3    H163062   2.814   0.404   4.917  1.0055 -0.6012  0.6492
13857TIP3    H263063   2.792   0.553   4.922 -0.5887 -0.8222  0.7387
13858TIP3   OH263064   6.078   3.846  13.072  0.4588 -0.3313  0.7490
13858TIP3    H163065   6.098   3.778  13.008 -0.2598 -1.6554  1.8888
13858TIP3    H263066   6.074   3.800  13.156 -0.8255  0.9631  1.4430
13859TIP3   OH263067   4.513   5.147   1.148 -0.1325  0.2385  0.1456
13859TIP3    H163068   4.505   5.138   1.053 -2.6898  1.1474  0.2090
13859TIP3    H263069   4.489   5.060   1.182 -0.8566  0.3792  0.0038
13860TIP3   OH263070   0.772   0.528   4.814  0.1551 -0.4080 -0.2884
13860TIP3    H163071   0.707   0.501   4.750 -0.6339  1.0344 -0.1378
13860TIP3    H263072   0.743   0.488   4.896 -1.0026  0.8312 -0.0619
13861TIP3   OH263073   2.815   2.024   4.845 -0.0230  0.3921  0.9968
13861TIP3    H163074   2.778   1.987   4.925 -1.3624 -2.3226 -0.7065
13861TIP3    H263075   2.869   1.953   4.809 -1.4870  0.5136 -1.6986
13862TIP3   OH263076   5.993   4.744   0.347  0.2150  0.2062  0.3257
13862TIP3    H163077   5.988   4.651   0.366  0.0460  0.2165  0.3359
13862TIP3    H263078   5.901   4.772   0.340  0.2492 -0.0985 -1.9609
13863TIP3   OH263079   5.833   1.937   6.230 -0.0815  0.0282  0.1197
13863TIP3    H163080   5.872   1.872   6.289  2.0959  0.6400 -0.5577
13863TIP3    H263081   5.743   1.946   6.261  0.1554 -1.7699  1.5284
13864TIP3   OH263082   3.780   4.935   2.101 -0.1367 -0.3620  0.0840
13864TIP3    H163083   3.775   5.030   2.090 -0.9673 -0.4753 -0.5864
13864TIP3    H263084   3.739   4.919   2.186 -0.7412 -0.2020 -0.1776
13865TIP3   OH263085   5.025   5.164   5.612 -0.1530  0.1435 -0.1378
13865TIP3    H163086   5.020   5.211   5.529 -0.9664  0.0954 -0.1282
13865TIP3    H263087   5.016   5.071   5.587 -0.4509  0.1327  0.0017
13866TIP3   OH263088   3.523   4.400   5.536  0.5291 -0.3286 -0.3504
13866TIP3    H163089   3.558   4.482   5.572 -0.4633 -0.3407  0.6873
13866TIP3    H263090   3.466   4.427   5.464 -0.2141 -0.0535  0.3271
13867TIP3   OH263091   0.845   1.535  12.009 -0.1495 -0.5200  0.0136
13867TIP3    H163092   0.887   1.449  12.008 -1.1034 -0.9996  0.0096
13867TIP3    H263093   0.871   1.574  12.093  0.4216 -0.7421 -0.0592
13868TIP3   OH263094   0.340   0.476   2.087  0.0052  0.7312  0.3008
13868TIP3    H163095   0.292   0.435   2.158  1.9291 -1.4384  0.4481
13868TIP3    H263096   0.314   0.428   2.009 -1.8792  2.9162 -0.5459
13869TIP3   OH263097   5.545   2.997  15.895  0.3463  0.5135 -0.4921
13869TIP3    H163098   5.635   3.002  15.862  0.7117 -0.7915  0.2233
13869TIP3    H263099   5.554   3.000  15.990 -0.5068  1.8527 -0.4259
13870TIP3   OH263100   5.994   4.761   5.794  0.4351  1.0800 -0.1754
13870TIP3    H163101   5.981   4.854   5.781  0.7798  1.2020  0.3063
13870TIP3    H263102   5.956   4.743   5.880 -0.6469  0.5520 -0.7396
13871TIP3   OH263103   5.449   3.303   6.808  0.7234 -0.2197  0.5498
13871TIP3    H163104   5.484   3.241   6.872 -0.8117 -3.7897 -1.7342
13871TIP3    H263105   5.373   3.341   6.851  1.2639 -0.4863  1.7801
13872TIP3   OH263106   3.096   5.922   1.650 -0.5488 -0.2509  0.0644
13872TIP3    H163107   3.034   5.994   1.654  0.1103  0.4334 -1.2916
13872TIP3    H263108   3.109   5.906   1.556  0.3137 -1.2548  0.3269
13873TIP3   OH263109   5.993   6.703  15.315 -0.3857  0.8473 -0.1144
13873TIP3    H163110   5.928   6.678  15.382  0.1014  0.1290  0.1033
13873TIP3    H263111   6.035   6.781  15.351  1.5202 -0.8440  1.5951
13874TIP3   OH263112   5.228   0.732  11.157  0.2708 -0.2136  0.1824
13874TIP3    H163113   5.235   0.827  11.146  1.8211  0.0510  2.4841
13874TIP3    H263114   5.309   0.698  11.120 -0.4142 -0.6922 -0.9023
13875TIP3   OH263115   3.987   0.780  14.540  0.0243 -0.1624  0.0885
13875TIP3    H163116   4.008   0.829  14.619  0.6728  1.4110 -1.0104
13875TIP3    H263117   3.934   0.840  14.487 -0.8496 -1.3719 -0.4608
13876TIP3   OH263118   0.043   4.178  16.227 -0.2641  0.1229  0.4154
13876TIP3    H163119   0.090   4.122  16.289  0.1514 -0.2987 -0.2688
13876TIP3    H263120   0.106   4.243  16.199 -1.0909  1.7636  2.1537
13877TIP3   OH263121   0.993   6.124   1.602 -0.5425 -0.4388 -0.4101
13877TIP3    H163122   0.909   6.103   1.562 -1.4037 -0.0833  1.1174
13877TIP3    H263123   1.038   6.178   1.538 -1.6608 -0.2779 -1.0845
13878TIP3   OH263124   4.311   1.359   4.436 -0.1445 -0.1249  0.0955
13878TIP3    H163125   4.245   1.301   4.472 -0.4599  0.2583  0.1310
13878TIP3    H263126   4.279   1.381   4.348  0.2234 -0.4096 -0.1126
13879TIP3   OH263127   5.589   4.242  12.935 -0.4168  0.0452  0.0851
13879TIP3    H163128   5.681   4.268  12.934 -0.0165 -1.2610 -1.1225
13879TIP3    H263129   5.575   4.206  13.022  0.1383  0.4851  0.3650
13880TIP3   OH263130   2.736   6.609   4.370 -0.2085  0.5236 -0.0558
13880TIP3    H163131   2.720   6.692   4.415  0.0473  0.4822  0.1154
13880TIP3    H263132   2.801   6.565   4.424 -2.6572 -1.2241  1.7199
13881TIP3   OH263133   5.497   0.677  12.235 -0.3652  0.3536  0.9700
13881TIP3    H163134   5.553   0.604  12.263 -0.2518  0.4818  1.0808
13881TIP3    H263135   5.428   0.680  12.302 -1.1318 -0.5024  0.2381
13882TIP3   OH263136   3.933   4.635  12.008 -0.0489  0.6725 -0.1556
13882TIP3    H163137   3.898   4.601  11.925  1.4020  0.2092 -0.6104
13882TIP3    H263138   3.857   4.671  12.053 -1.0162  0.1473 -1.3082
13883TIP3   OH263139   6.111   3.608   5.188 -0.6067 -0.3294  0.8750
13883TIP3    H163140   6.064   3.684   5.155 -1.1166  0.2770  2.9101
13883TIP3    H263141   6.052   3.534   5.170 -1.7836  0.2487  2.1522
13884TIP3   OH263142   4.404   0.473   3.068 -0.3663 -0.2986  0.3564
13884TIP3    H163143   4.432   0.479   2.977  0.6930 -1.5488  0.5648
13884TIP3    H263144   4.430   0.557   3.107 -0.2279 -0.0166 -0.3373
13885TIP3   OH263145   4.035   3.033   1.462 -0.1352  0.2842  0.4479
13885TIP3    H163146   3.986   2.979   1.401 -1.7170  1.4366  0.6052
13885TIP3    H263147   4.048   2.978   1.539 -3.5250  0.6306  1.4363
13886TIP3   OH263148   4.131   2.402   5.985  0.0044 -0.2535 -0.9696
13886TIP3    H163149   4.067   2.471   6.003  1.5639  1.3265 -1.1845
13886TIP3    H263150   4.141   2.357   6.069 -1.3023 -0.4864 -0.9136
13887TIP3   OH263151   0.561   1.323   0.628  0.1978  0.3460 -0.4005
13887TIP3    H163152   0.510   1.364   0.698  0.2690 -0.3891  0.0971
13887TIP3    H263153   0.618   1.260   0.674 -0.1847 -0.5857 -1.1660
13888TIP3   OH263154   1.859   4.889  16.495  0.4325 -0.0841 -0.4694
13888TIP3    H163155   1.872   4.981  16.470  1.1014  0.2012  0.8564
13888TIP3    H263156   1.934   4.843  16.456  2.0005  0.5119  1.6464
13889TIP3   OH263157   2.329   3.017   2.373  0.0170 -0.4743 -0.5038
13889TIP3    H163158   2.292   3.097   2.409  0.9281 -0.6101  0.7896
13889TIP3    H263159   2.351   3.039   2.282 -0.6019  0.4419 -0.4399
13890TIP3   OH263160   3.844   1.523   4.551 -0.3650 -0.8259  0.0388
13890TIP3    H163161   3.820   1.581   4.478 -1.2810 -1.0475  0.1529
13890TIP3    H263162   3.838   1.435   4.514  0.4859 -0.8851  0.0209
13891TIP3   OH263163   0.909   1.804  12.517 -0.2916  1.4801  0.5394
13891TIP3    H163164   1.002   1.783  12.523 -0.0936  2.2656  0.3105
13891TIP3    H263165   0.899   1.884  12.569 -0.7189  1.7461  0.0607
13892TIP3   OH263166   5.406   2.117  15.736 -1.1006 -0.6904  0.0137
13892TIP3    H163167   5.406   2.178  15.662  0.7156 -0.7532 -0.0884
13892TIP3    H263168   5.354   2.161  15.803 -3.8156 -1.1455 -1.6413
13893TIP3   OH263169   0.902   5.409  15.531 -0.4354  0.1058  0.0355
13893TIP3    H163170   0.911   5.348  15.604 -0.7771  0.7814  0.6605
13893TIP3    H263171   0.963   5.378  15.465  0.3177 -0.1768  0.8514
13894TIP3   OH263172   6.091   4.667  15.586  0.0833 -0.3449  0.2591
13894TIP3    H163173   6.007   4.657  15.631  0.8023 -2.5663  1.2708
13894TIP3    H263174   6.100   4.587  15.535  1.4291  0.0263 -0.1246
13895TIP3   OH263175   0.806   2.097  13.295 -0.1540 -0.0919 -0.8493
13895TIP3    H163176   0.715   2.076  13.273  0.0516 -0.8087 -1.0618
13895TIP3    H263177   0.838   2.149  13.222 -0.1604 -0.5284 -1.1689
13896TIP3   OH263178   4.798   4.099   4.999 -0.7965 -0.1700  0.2244
13896TIP3    H163179   4.743   4.145   5.063  0.6216  1.6748  0.1788
13896TIP3    H263180   4.875   4.073   5.048 -1.5323 -2.5627  0.2319
13897TIP3   OH263181   1.722   0.009   3.363  0.3183 -0.7883  0.6340
13897TIP3    H163182   1.672  -0.030   3.434  0.5305 -3.0434 -0.3762
13897TIP3    H263183   1.789  -0.056   3.341  2.0548  1.0485  0.2203
13898TIP3   OH263184   2.172   0.187  16.173  0.1118  0.4991 -0.1459
13898TIP3    H163185   2.141   0.169  16.085 -0.7797 -3.1112  0.7545
13898TIP3    H263186   2.096   0.172  16.229  1.4183 -0.3948  1.4661
13899TIP3   OH263187   1.113   3.132   0.566  0.5253 -0.0546 -0.2522
13899TIP3    H163188   1.091   3.207   0.511  0.6844 -0.5880 -1.0732
13899TIP3    H263189   1.047   3.066   0.543  0.7736 -0.3882 -0.0113
13900TIP3   OH263190   3.387   0.937   5.578  0.1053 -0.5297  0.3951
13900TIP3    H163191   3.438   0.947   5.497 -0.1148 -1.5089  0.1320
13900TIP3    H263192   3.303   0.904   5.549 -0.7179  1.0576  0.8321
13901TIP3   OH263193   4.013   3.612   1.950  0.5585  0.0831 -0.0223
13901TIP3    H163194   3.956   3.651   2.017  1.2881  0.4663  0.3825
13901TIP3    H263195   4.062   3.545   1.996  0.8891  0.1799 -0.2297
13902TIP3   OH263196   0.274   4.144  14.075  0.6860  0.1368 -0.2307
13902TIP3    H163197   0.267   4.146  13.980  0.8688  1.9702 -0.2325
13902TIP3    H263198   0.285   4.051  14.096  1.2314 -0.2433 -2.0256
13903TIP3   OH263199   5.992   2.024   2.911 -0.5269  0.1873  0.3920
13903TIP3    H163200   6.080   2.036   2.874 -0.1188 -0.1906  1.2190
13903TIP3    H263201   5.976   2.104   2.960  0.0658 -0.4222  1.6304
13904TIP3   OH263202   1.625   4.602  15.032 -0.2882 -0.5928  0.2647
13904TIP3    H163203   1.613   4.555  14.949 -2.1953  1.2035 -0.5589
13904TIP3    H263204   1.673   4.682  15.007  0.6528 -0.8302  1.2164
13905TIP3   OH263205   5.626   4.727   3.502 -0.2633  0.4193  0.1476
13905TIP3    H163206   5.720   4.708   3.499 -0.4821 -0.7944  0.5292
13905TIP3    H263207   5.585   4.648   3.468 -1.1436  1.1431 -0.5329
13906TIP3   OH263208   1.531   4.643  12.892 -0.0587  0.0253  0.0485
13906TIP3    H163209   1.560   4.633  12.983 -1.4418 -0.6270  0.4469
13906TIP3    H263210   1.566   4.566  12.847 -0.6691 -0.4628  0.3942
13907TIP3   OH263211   0.469   0.445  12.493 -0.1350 -0.1277  0.1678
13907TIP3    H163212   0.492   0.503  12.421  0.7107  0.3947  0.8379
13907TIP3    H263213   0.535   0.375  12.490  1.8028  1.4622  2.1991
13908TIP3   OH263214   2.930   3.632   2.583 -0.2542  0.0141  0.1176
13908TIP3    H163215   2.930   3.649   2.678 -0.0336  1.6508 -0.1404
13908TIP3    H263216   2.966   3.712   2.545  1.5708 -1.3709 -1.2452
13909TIP3   OH263217   3.554   0.151  16.350 -0.5079  0.0657 -0.2170
13909TIP3    H163218   3.469   0.108  16.341 -1.0603  1.0725  0.0880
13909TIP3    H263219   3.580   0.170  16.260 -0.2307 -0.9342 -0.3600
13910TIP3   OH263220   0.287   2.050  14.266  0.2712 -0.4906 -0.0921
13910TIP3    H163221   0.292   2.111  14.340  0.5406  0.3591 -0.8029
13910TIP3    H263222   0.318   2.100  14.191  0.1145 -1.3838 -0.7680
13911TIP3   OH263223   1.375   2.890   2.547 -0.1085 -0.2303 -0.3414
13911TIP3    H163224   1.382   2.940   2.466 -0.1613 -0.0471 -0.2324
13911TIP3    H263225   1.336   2.807   2.520 -1.5030  0.3800 -0.2907
13912TIP3   OH263226   2.005   1.233  17.217 -0.0592 -0.3308  0.6490
13912TIP3    H163227   2.003   1.162  17.282 -1.5255 -1.1131 -0.2021
13912TIP3    H263228   2.097   1.258  17.213  0.5961 -2.4957  0.6718
13913TIP3   OH263229   5.202   1.787   1.641  0.2284  0.3092  0.0554
13913TIP3    H163230   5.177   1.877   1.623  2.4174  0.9194 -0.2584
13913TIP3    H263231   5.227   1.787   1.734  3.0160  0.8345 -0.5931
13914TIP3   OH263232   5.491   5.069   6.553  0.1045 -0.5287  0.2497
13914TIP3    H163233   5.566   5.015   6.527 -0.9604 -2.4753  1.0032
13914TIP3    H263234   5.446   5.088   6.471  1.5003  0.8678 -0.2451
13915TIP3   OH263235   6.139   2.491  12.688  0.1404 -0.2547  0.0508
13915TIP3    H163236   6.142   2.412  12.743  0.7768 -0.3959 -0.1665
13915TIP3    H263237   6.224   2.533  12.703  0.7903 -0.8693 -1.6188
13916TIP3   OH263238   1.065   4.755   2.080  0.5397  0.5879  0.6945
13916TIP3    H163239   1.134   4.777   2.018 -1.0683  0.9352 -1.0701
13916TIP3    H263240   1.076   4.817   2.152  0.8899  1.9367 -0.4765
13917TIP3   OH263241   4.068   1.427   2.310 -0.0589  0.8683 -0.3668
13917TIP3    H163242   4.129   1.455   2.378  0.6064 -1.2333 -0.0430
13917TIP3    H263243   3.989   1.402   2.359  0.4324 -0.6772 -0.3128
13918TIP3   OH263244   6.283   5.496   0.602 -0.4430  0.0455  0.0033
13918TIP3    H163245   6.343   5.440   0.552 -0.7039 -0.2471  0.0151
13918TIP3    H263246   6.215   5.437   0.633  0.6164 -0.1011  2.2023
13919TIP3   OH263247   5.015   4.196   6.257  0.5875  0.4365  0.1484
13919TIP3    H163248   5.070   4.131   6.301  0.5935  0.4230  0.1214
13919TIP3    H263249   5.072   4.272   6.246  0.8295  0.1689 -0.5343
13920TIP3   OH263250   0.127   3.778   0.525 -0.3548  0.5058  0.3046
13920TIP3    H163251   0.066   3.755   0.455 -0.4184  2.1551 -0.2310
13920TIP3    H263252   0.093   3.860   0.561  0.8420  0.7998  0.8343
13921TIP3   OH263253   5.146   1.623  14.455 -0.0289 -0.1325 -0.0606
13921TIP3    H163254   5.194   1.701  14.429  0.8052 -0.4699  0.4036
13921TIP3    H263255   5.143   1.569  14.375  0.1918 -0.0117 -0.1526
13922TIP3   OH263256   6.560   3.450   2.839 -0.1729 -0.1746  0.2535
13922TIP3    H163257   6.519   3.459   2.925 -1.4679 -0.6907 -0.2952
13922TIP3    H263258   6.521   3.520   2.786 -1.3269 -1.4267 -0.6235
13923TIP3   OH263259   3.897   3.471   0.296  0.4917  0.3237 -0.0462
13923TIP3    H163260   3.810   3.506   0.316  1.7056  2.4519  2.0120
13923TIP3    H263261   3.918   3.504   0.209  0.3751  2.3164  0.6461
13924TIP3   OH263262   6.226   1.833   4.535  0.1000 -0.2960 -0.2791
13924TIP3    H163263   6.229   1.743   4.502  0.0256 -0.3103 -0.2456
13924TIP3    H263264   6.317   1.852   4.560  0.0173 -0.5648  0.2463
13925TIP3   OH263265   3.195   6.657  16.382  0.3717 -0.1285  0.3688
13925TIP3    H163266   3.221   6.748  16.398  2.1099 -0.3080 -1.1699
13925TIP3    H263267   3.184   6.621  16.470 -0.7207  1.6361  1.0140
13926TIP3   OH263268   2.729   5.110   4.422  0.4221 -0.2447  0.5720
13926TIP3    H163269   2.805   5.160   4.451  1.1504 -0.0696 -1.4644
13926TIP3    H263270   2.709   5.145   4.335 -1.0595 -1.3231  0.4354
13927TIP3   OH263271   1.990   4.333  13.998  0.6314 -0.0079  0.3220
13927TIP3    H163272   2.040   4.369  13.925 -0.5196  1.4703  0.2286
13927TIP3    H263273   1.972   4.243  13.972  1.3922  0.0901 -0.5986
13928TIP3   OH263274   1.778   1.682  14.211 -0.2594 -0.1548  0.0541
13928TIP3    H163275   1.746   1.679  14.120  0.9864 -1.6212 -0.3796
13928TIP3    H263276   1.871   1.703  14.202 -0.3298  0.6555  1.0787
13929TIP3   OH263277   6.726   2.376   2.479 -0.1304  0.2861 -0.1312
13929TIP3    H163278   6.809   2.338   2.511  0.3859  1.8067  0.4481
13929TIP3    H263279   6.743   2.395   2.387  0.7051  1.8866  0.3144
13930TIP3   OH263280   1.635   5.816  16.771  0.2946 -0.2001  0.1461
13930TIP3    H163281   1.726   5.836  16.792  0.0904  0.4888  0.3781
13930TIP3    H263282   1.599   5.898  16.737 -0.4429 -0.2650  0.7473
13931TIP3   OH263283   2.062   2.591   0.015 -0.0361  0.3877 -0.5676
13931TIP3    H163284   1.995   2.651  -0.017  0.0538 -0.1741 -1.8769
13931TIP3    H263285   2.018   2.541   0.084 -0.8632  0.2904 -1.1489
13932TIP3   OH263286   4.787   3.767   5.706 -0.2056 -0.5233 -0.4748
13932TIP3    H163287   4.863   3.720   5.673  0.1557 -0.0773 -0.2878
13932TIP3    H263288   4.821   3.852   5.735 -0.5141 -0.8360  0.9089
13933TIP3   OH263289   1.009   5.389   6.104 -0.0845  0.4780 -1.0594
13933TIP3    H163290   1.030   5.384   6.010  1.9261 -0.6432 -0.6049
13933TIP3    H263291   1.080   5.342   6.147 -0.9495  0.9975  1.0594
13934TIP3   OH263292   2.075   3.517  16.350  0.2156  0.6367 -0.0162
13934TIP3    H163293   2.137   3.453  16.316  0.2482  0.6209  0.0718
13934TIP3    H263294   1.995   3.501  16.301  0.9970  2.3397 -2.0051
13935TIP3   OH263295   3.076   0.205  12.591 -0.6436  0.2770 -0.1593
13935TIP3    H163296   3.165   0.174  12.578 -0.3784  1.0461 -0.2492
13935TIP3    H263297   3.063   0.269  12.520 -0.4002  1.9609  1.2542
13936TIP3   OH263298   2.276   6.585   6.399 -0.1007 -0.0089 -0.2106
13936TIP3    H163299   2.191   6.581   6.443  0.4234 -0.4948  0.8127
13936TIP3    H263300   2.317   6.664   6.434  1.0385 -1.3221  1.6361
13937TIP3   OH263301   6.366   3.579  16.726  0.3658  0.2593 -0.0315
13937TIP3    H163302   6.391   3.489  16.706  0.9560  1.0292 -3.4596
13937TIP3    H263303   6.294   3.598  16.666 -1.3154  1.4525  2.2023
13938TIP3   OH263304   5.028   4.576   1.395  0.4862 -0.5805 -0.1599
13938TIP3    H163305   4.973   4.580   1.317  0.1652 -0.3763  0.0713
13938TIP3    H263306   4.970   4.541   1.463  0.6464 -0.3795  0.0829
13939TIP3   OH263307   2.620   0.715   2.803  0.0496  0.3677 -0.0930
13939TIP3    H163308   2.605   0.791   2.860  1.2553  0.6600 -0.1512
13939TIP3    H263309   2.534   0.697   2.764 -0.1762  1.9220 -0.3551
13940TIP3   OH263310   6.480   0.664   3.246 -0.1485 -0.3475  0.2910
13940TIP3    H163311   6.559   0.627   3.206  0.0287 -0.3609  0.6433
13940TIP3    H263312   6.481   0.756   3.220  1.1821  0.2047  2.0731
13941TIP3   OH263313   2.308   5.222  15.871  0.2876 -0.0519  0.4530
13941TIP3    H163314   2.359   5.267  15.804  0.7625 -0.7918  0.3050
13941TIP3    H263315   2.297   5.133  15.837 -3.1592  0.6497 -0.6407
13942TIP3   OH263316   4.360   3.313  13.701 -0.4834 -0.1431  0.4256
13942TIP3    H163317   4.439   3.279  13.660 -0.0780 -0.3086  1.3194
13942TIP3    H263318   4.291   3.298  13.636 -0.2778 -2.4044  0.6294
13943TIP3   OH263319   1.742   6.020   1.870 -0.2321  0.2085 -0.2741
13943TIP3    H163320   1.778   6.097   1.826  0.8615  0.4886  1.0706
13943TIP3    H263321   1.749   6.039   1.963 -3.5778  0.1282  0.1218
13944TIP3   OH263322   5.743   2.408   6.745 -0.2525 -0.2467 -0.6974
13944TIP3    H163323   5.655   2.445   6.753 -0.1049 -0.1235  0.7151
13944TIP3    H263324   5.728   2.317   6.722 -0.8104 -0.4554  0.3966
13945TIP3   OH263325   3.460   5.057   4.739 -0.4253  0.0445 -0.0662
13945TIP3    H163326   3.393   4.994   4.711 -0.9682  1.1085 -1.2643
13945TIP3    H263327   3.532   5.002   4.770 -1.1741 -1.1566 -0.3613
13946TIP3   OH263328   0.440   6.189  12.523  0.6709 -0.3444 -0.1870
13946TIP3    H163329   0.383   6.133  12.470  0.5375  0.9769 -1.4981
13946TIP3    H263330   0.432   6.154  12.612  2.1058 -3.6076 -1.2188
13947TIP3   OH263331   3.024   0.493  13.101  0.0960 -0.2883  0.4042
13947TIP3    H163332   3.070   0.415  13.131 -1.1426 -1.9325 -1.7394
13947TIP3    H263333   2.939   0.489  13.143  0.4377  0.5840  1.2140
13948TIP3   OH263334   4.519   6.189  14.408 -0.3372 -0.4710  0.3345
13948TIP3    H163335   4.470   6.265  14.376  2.3137  0.6020 -1.5751
13948TIP3    H263336   4.519   6.198  14.503 -2.2724  0.4365  0.2879
13949TIP3   OH263337   5.991   3.661  16.413  0.2387 -0.6187  0.1469
13949TIP3    H163338   5.991   3.754  16.435 -0.2241 -0.5248 -0.2408
13949TIP3    H263339   5.955   3.657  16.324 -1.6428 -1.3413  0.8902
13950TIP3   OH263340   5.387   3.763  15.695 -0.7981 -0.4031  0.0917
13950TIP3    H163341   5.342   3.747  15.778 -0.1127  0.6976  0.6904
13950TIP3    H263342   5.407   3.856  15.696  1.0932 -0.7616 -0.3425
13951TIP3   OH263343   0.990   3.042   5.607 -0.0645  0.7618  0.3086
13951TIP3    H163344   1.080   3.023   5.633 -0.2575 -1.0394 -0.1716
13951TIP3    H263345   0.937   2.984   5.662 -0.6997 -0.4082 -1.4471
13952TIP3   OH263346   1.833   4.352   0.945  0.1196  0.2312  0.8859
13952TIP3    H163347   1.813   4.426   0.888 -2.7012 -1.7287 -0.9354
13952TIP3    H263348   1.796   4.376   1.030 -0.7780  0.9232  0.3149
13953TIP3   OH263349   6.162   3.202   1.429 -0.7655 -0.3190 -0.1415
13953TIP3    H163350   6.126   3.166   1.510 -1.9184  2.7815  0.8618
13953TIP3    H263351   6.087   3.207   1.369 -0.2426 -1.1438 -0.8975
13954TIP3   OH263352   6.685   0.753   5.274 -0.2783 -0.3971 -0.5332
13954TIP3    H163353   6.703   0.682   5.336  0.8480 -0.1769 -0.5835
13954TIP3    H263354   6.734   0.828   5.308  1.2672 -0.5592 -2.2414
13955TIP3   OH263355   5.757   6.445  14.224  0.3092  0.2771  0.2880
13955TIP3    H163356   5.756   6.400  14.309 -2.1952 -1.0834 -0.3736
13955TIP3    H263357   5.679   6.500  14.225  0.6624  0.8256 -0.8698
13956TIP3   OH263358   1.099   1.239   1.259  0.1142  0.0942  0.0268
13956TIP3    H163359   1.118   1.217   1.350  1.4853  0.9501 -0.0240
13956TIP3    H263360   1.185   1.242   1.217 -0.1728  2.8043 -0.5604
13957TIP3   OH263361   5.018   2.613   1.658 -0.7716 -0.1621  0.3187
13957TIP3    H163362   5.035   2.706   1.672 -0.8795  0.2358 -1.7915
13957TIP3    H263363   5.101   2.578   1.624 -0.9417 -0.6817  0.4206
13958TIP3   OH263364   0.974   2.295   2.486 -0.1418  0.4406  0.2890
13958TIP3    H163365   0.931   2.360   2.431 -0.3948 -0.3166 -0.4324
13958TIP3    H263366   0.984   2.218   2.429 -0.2658 -0.3097  1.2503
13959TIP3   OH263367   4.557   1.509   2.485  0.0622  0.5658  0.2626
13959TIP3    H163368   4.572   1.417   2.460  0.1559  0.3644  1.0270
13959TIP3    H263369   4.572   1.558   2.405  0.5294 -0.0420 -0.0343
13960TIP3   OH263370   4.466   3.489  13.339 -0.6496  0.4677 -0.4029
13960TIP3    H163371   4.414   3.427  13.390 -2.7387  0.9630 -1.8191
13960TIP3    H263372   4.523   3.435  13.285 -0.0812 -0.0971  0.7214
13961TIP3   OH263373   0.996   1.359  14.655 -0.3596  0.0891  0.2326
13961TIP3    H163374   0.954   1.425  14.709 -1.5665 -0.6273  0.1880
13961TIP3    H263375   1.013   1.403  14.572 -0.0627  0.6795  0.5994
13962TIP3   OH263376   3.332   3.422  11.288 -0.0573 -0.0160  0.0881
13962TIP3    H163377   3.283   3.504  11.297  0.8374  0.5122  0.2623
13962TIP3    H263378   3.358   3.399  11.377 -0.8349 -0.8428  0.1230
13963TIP3   OH263379   2.905   5.319  12.240 -0.2923  0.4098 -0.0142
13963TIP3    H163380   2.830   5.378  12.244 -0.3485  0.4380 -1.3079
13963TIP3    H263381   2.866   5.233  12.225 -0.0437  0.5471 -1.5863
13964TIP3   OH263382   5.264   6.438   2.536  0.5892 -0.2940  0.8122
13964TIP3    H163383   5.229   6.440   2.626 -1.0477 -1.0037  0.2293
13964TIP3    H263384   5.186   6.432   2.481  1.5076  1.2937 -0.7333
13965TIP3   OH263385   2.111   3.036   6.434 -0.1006  0.1479  0.4391
13965TIP3    H163386   2.066   3.001   6.510  0.6314 -0.3050  0.6781
13965TIP3    H263387   2.185   2.976   6.420  0.6918  1.1052  0.3456
13966TIP3   OH263388   2.667   2.195  15.633  0.1281  1.0328 -0.2840
13966TIP3    H163389   2.608   2.149  15.692  0.5629 -0.2839 -0.8303
13966TIP3    H263390   2.734   2.234  15.690  0.9164 -0.7702  0.0920
13967TIP3   OH263391   3.393   5.728   4.154 -0.5238 -0.0419 -0.2399
13967TIP3    H163392   3.461   5.725   4.087  0.1807 -0.6170  0.4873
13967TIP3    H263393   3.361   5.638   4.160 -1.4001  0.2351 -0.6172
13968TIP3   OH263394   6.245   6.411  16.928  0.1577  0.5108 -0.1759
13968TIP3    H163395   6.250   6.446  17.017 -1.3067  0.5326 -0.0889
13968TIP3    H263396   6.160   6.368  16.923  1.0167 -1.1958 -0.9706
13969TIP3   OH263397   5.189   2.950  12.150  0.2770  0.5503  0.2502
13969TIP3    H163398   5.120   2.968  12.214  0.1191 -1.5805  0.7723
13969TIP3    H263399   5.266   2.997  12.183 -0.1830  0.6362  1.2288
13970TIP3   OH263400   5.193   3.397  16.020  0.3190 -0.6040 -0.7684
13970TIP3    H163401   5.168   3.331  15.956  3.7128 -1.7522 -1.1189
13970TIP3    H263402   5.289   3.399  16.017  0.5156  1.6053  2.0050
13971TIP3   OH263403   5.358   2.320  15.540  0.0851  0.2724  0.0358
13971TIP3    H163404   5.351   2.268  15.460 -0.3252  1.2046 -0.5441
13971TIP3    H263405   5.310   2.400  15.521  4.1343  2.8514 -0.7223
13972TIP3   OH263406   4.047   5.492  14.012  0.6225 -0.3532 -0.4457
13972TIP3    H163407   4.029   5.574  13.965  0.4810 -0.3133 -0.3245
13972TIP3    H263408   3.980   5.431  13.980 -0.7314  0.2204  1.1082
13973TIP3   OH263409   1.060   1.329  16.306  0.5336  0.1275  0.4360
13973TIP3    H163410   1.005   1.321  16.384 -1.2895 -1.2561 -0.8774
13973TIP3    H263411   1.121   1.400  16.326 -0.2585  0.2104  2.8595
13974TIP3   OH263412   5.279   3.442  14.598  0.1173 -0.6841 -0.1162
13974TIP3    H163413   5.318   3.508  14.656  1.6838 -0.9294 -0.8389
13974TIP3    H263414   5.348   3.378  14.584 -0.2178 -0.6549 -2.2109
13975TIP3   OH263415   4.446   4.234   6.306 -0.9777  0.3014  0.5216
13975TIP3    H163416   4.351   4.240   6.313 -1.3531  2.5419 -3.2480
13975TIP3    H263417   4.473   4.323   6.282  1.7216 -0.8070 -0.9375
13976TIP3   OH263418   2.133   6.653   2.757  0.4556  0.8859 -0.1105
13976TIP3    H163419   2.133   6.612   2.671 -0.7513 -0.5674  0.5383
13976TIP3    H263420   2.223   6.641   2.790  0.4369 -0.1867 -0.4267
13977TIP3   OH263421   6.036   5.150  16.341 -0.3543  0.1742 -0.2789
13977TIP3    H163422   5.952   5.181  16.373 -0.1738 -1.3952  1.9002
13977TIP3    H263423   6.100   5.208  16.381 -0.3438  1.5058 -2.1105
13978TIP3   OH263424   5.294   4.598  16.317  0.1595 -0.2892  0.3598
13978TIP3    H163425   5.354   4.600  16.391  1.1696 -2.0740 -0.3493
13978TIP3    H263426   5.320   4.520  16.267 -1.0468  0.3727 -1.3985
13979TIP3   OH263427   1.485   1.645   0.491  0.1601  0.1938  0.3492
13979TIP3    H163428   1.521   1.560   0.517 -1.0417 -0.9974 -1.6471
13979TIP3    H263429   1.552   1.683   0.434  1.5153  1.5243  2.6265
13980TIP3   OH263430   0.324   6.784   3.114  0.1979  0.0297 -0.0322
13980TIP3    H163431   0.264   6.824   3.177  2.7498 -0.4444  2.9190
13980TIP3    H263432   0.299   6.692   3.111 -0.4684  0.2142 -0.4425
13981TIP3   OH263433   6.719   1.616  12.721  0.0401  0.2022 -0.4249
13981TIP3    H163434   6.685   1.553  12.657 -2.0899  0.9543 -0.1267
13981TIP3    H263435   6.732   1.565  12.801  0.5635 -0.2952 -0.8184
13982TIP3   OH263436   5.345   1.659   6.893  0.5011 -0.2680  0.1877
13982TIP3    H163437   5.435   1.686   6.876 -0.1248  1.6618 -0.2770
13982TIP3    H263438   5.322   1.603   6.818  0.8900  0.3282 -0.3872
13983TIP3   OH263439   3.765   0.704   3.376 -0.2727 -0.5608 -0.1321
13983TIP3    H163440   3.738   0.746   3.458  0.1866 -0.7955  0.1465
13983TIP3    H263441   3.860   0.698   3.383 -0.1805 -0.0698 -0.9362
13984TIP3   OH263442   0.412   5.305  10.601  0.0566  0.0613  0.2725
13984TIP3    H163443   0.422   5.230  10.542  2.0253  1.7603 -1.7519
13984TIP3    H263444   0.378   5.375  10.545  1.8364  1.6978  1.1142
13985TIP3   OH263445   0.628   6.778  15.549 -0.4622  0.4197 -0.2846
13985TIP3    H163446   0.612   6.685  15.565 -2.6040  0.5043 -1.5001
13985TIP3    H263447   0.707   6.780  15.495 -0.1135 -0.6310  0.1517
13986TIP3   OH263448   5.611   3.368   1.898 -0.2543 -0.0393 -0.1679
13986TIP3    H163449   5.634   3.442   1.842 -1.7153  0.1333 -0.5793
13986TIP3    H263450   5.673   3.299   1.874 -1.0015 -0.0496 -2.1875
13987TIP3   OH263451   1.306   2.262   2.190  0.5781 -1.0226  0.1066
13987TIP3    H163452   1.270   2.348   2.213  0.1654 -1.1558 -0.0376
13987TIP3    H263453   1.355   2.278   2.109  1.4679 -0.6921  0.6935
13988TIP3   OH263454   4.135   1.306  13.926  0.2604 -0.2030 -0.1960
13988TIP3    H163455   4.195   1.244  13.884  0.2930 -0.5947  0.4134
13988TIP3    H263456   4.149   1.388  13.879 -1.2226 -1.0990 -2.3717
13989TIP3   OH263457   6.279   0.760  10.944  0.4878 -0.0572  0.3127
13989TIP3    H163458   6.256   0.852  10.937 -1.2277 -0.5153 -0.7258
13989TIP3    H263459   6.211   0.722  10.999  0.2557 -0.9707 -0.5677
13990TIP3   OH263460   0.505   1.117  16.523  1.0516 -0.0283  0.1451
13990TIP3    H163461   0.499   1.042  16.463  1.1232  1.2498 -1.5299
13990TIP3    H263462   0.415   1.142  16.540  0.9107 -1.9266  2.6802
13991TIP3   OH263463   4.405   5.576   1.087  0.6793 -0.2359  0.0444
13991TIP3    H163464   4.413   5.570   0.992  0.4059  1.4704 -0.1122
13991TIP3    H263465   4.380   5.488   1.115  0.6599 -0.7275 -1.4718
13992TIP3   OH263466   2.816   6.312   2.084 -0.2110 -0.0180 -0.0158
13992TIP3    H163467   2.750   6.253   2.048 -1.2278  0.7930  0.4754
13992TIP3    H263468   2.873   6.332   2.010 -1.0985  0.0571 -0.6960
13993TIP3   OH263469   5.638   4.589   0.577  0.6426 -0.0155  0.3302
13993TIP3    H163470   5.663   4.498   0.568 -1.8091 -0.6818 -0.3675
13993TIP3    H263471   5.542   4.588   0.578  0.4940  2.6840 -1.3661
13994TIP3   OH263472   6.340   2.716  14.829 -0.4552 -0.4788 -0.4784
13994TIP3    H163473   6.276   2.646  14.815 -0.9818 -0.3101  0.9312
13994TIP3    H263474   6.390   2.688  14.905 -2.6907  1.9937  2.1154
13995TIP3   OH263475   4.009   6.392   1.407  0.1802 -0.4392 -0.5641
13995TIP3    H163476   4.073   6.457   1.435 -1.1177  0.6486 -0.0370
13995TIP3    H263477   4.050   6.308   1.427  0.9327  0.2472  0.9356
13996TIP3   OH263478   5.162   3.831  12.058 -0.5437  0.0602  0.0848
13996TIP3    H163479   5.091   3.894  12.072  1.1350  1.8025  1.2973
13996TIP3    H263480   5.163   3.815  11.964 -1.8906  0.7755 -0.0652
13997TIP3   OH263481   2.435   0.972  15.572  0.7810 -0.2967  0.3110
13997TIP3    H163482   2.452   1.008  15.484 -0.5983 -0.2409  0.0395
13997TIP3    H263483   2.502   0.905  15.584 -0.3912 -1.9669 -1.7931
13998TIP3   OH263484   6.564   0.862   4.154  0.0188 -0.2604  0.4307
13998TIP3    H163485   6.587   0.770   4.142  0.1179 -0.2349  0.4211
13998TIP3    H263486   6.495   0.878   4.089 -1.6860 -0.9343  2.0077
13999TIP3   OH263487   6.189   0.978   2.614  0.0145  0.6627 -0.7743
13999TIP3    H163488   6.200   0.979   2.709 -1.4740 -1.2297 -0.5197
13999TIP3    H263489   6.171   0.887   2.593  1.1138  0.8917 -3.0168
14000TIP3   OH263490   3.667   2.523   2.357 -0.1232  0.2383  0.0115
14000TIP3    H163491   3.763   2.517   2.358 -0.1169 -0.9012 -1.9131
14000TIP3    H263492   3.638   2.454   2.417  0.2956 -1.8034 -1.9725
14001TIP3   OH263493   1.053   3.641  17.126 -0.3239  0.2376 -0.0981
14001TIP3    H163494   1.134   3.691  17.121 -1.1592  1.5366 -1.5146
14001TIP3    H263495   1.081   3.549  17.128  1.1741  0.6739 -0.4249
14002TIP3   OH263496   1.882   4.240   3.601  0.3487  0.4969  0.2546
14002TIP3    H163497   1.834   4.242   3.684 -0.1647 -2.4601  0.1421
14002TIP3    H263498   1.959   4.186   3.619 -0.0674 -0.6828 -1.2883
14003TIP3   OH263499   6.435   3.245   6.252 -0.0083 -0.0248 -0.2588
14003TIP3    H163500   6.520   3.235   6.210 -0.6712 -0.4769 -1.5627
14003TIP3    H263501   6.444   3.200   6.336  1.2828  0.6716 -0.0029
14004TIP3   OH263502   6.053   6.097   5.409 -1.0287  0.0182  0.1941
14004TIP3    H163503   6.114   6.030   5.440 -1.2404 -0.6509 -0.7841
14004TIP3    H263504   5.991   6.049   5.354 -0.5673  1.1484 -1.3895
14005TIP3   OH263505   3.081   1.917   2.099 -0.1254  0.2961 -0.1228
14005TIP3    H163506   2.991   1.945   2.080 -0.3906  0.0889  0.8217
14005TIP3    H263507   3.109   1.872   2.019 -0.2459  1.8426 -1.0787
14006TIP3   OH263508   6.720   4.075   4.003  0.4273  0.5278 -0.4357
14006TIP3    H163509   6.681   4.025   4.074  1.4369 -0.2882 -0.4362
14006TIP3    H263510   6.764   4.148   4.046  0.4840  0.4005 -0.2773
14007TIP3   OH263511   5.336   5.771  12.280  0.1727  0.2084 -0.3182
14007TIP3    H163512   5.264   5.739  12.335  0.7114 -1.0322 -0.3178
14007TIP3    H263513   5.391   5.821  12.340 -0.4941  0.8898 -0.2515
14008TIP3   OH263514   0.603   0.785   3.340 -0.6202  0.1155  0.2595
14008TIP3    H163515   0.535   0.755   3.281  0.2110  0.9731 -1.2050
14008TIP3    H263516   0.654   0.847   3.288  1.1603 -0.3596  1.3505
14009TIP3   OH263517   5.512   4.120   5.904 -0.2473 -0.6651 -0.2068
14009TIP3    H163518   5.507   4.031   5.867 -1.8154 -0.3265 -0.8805
14009TIP3    H263519   5.605   4.131   5.926  0.2560 -1.9107 -1.5107
14010TIP3   OH263520   3.441   2.044   5.070  0.0784  0.5831  0.2931
14010TIP3    H163521   3.422   2.020   5.161  1.4798 -1.9656  0.0003
14010TIP3    H263522   3.367   2.099   5.044 -1.8102 -0.9363  2.1125
14011TIP3   OH263523   0.374   3.836   2.501 -0.0984  0.5751 -0.3733
14011TIP3    H163524   0.289   3.799   2.480 -0.2305  0.7349 -0.1208
14011TIP3    H263525   0.429   3.813   2.426  0.8140 -3.2721  1.2000
14012TIP3   OH263526   5.953   1.207   1.484  0.5368  0.5789 -0.6078
14012TIP3    H163527   5.927   1.281   1.539  0.1772 -0.7613  1.1143
14012TIP3    H263528   6.028   1.168   1.529 -0.1151 -0.8919 -0.7146
14013TIP3   OH263529   6.309   0.943   1.221 -0.7059 -0.2868 -0.0123
14013TIP3    H163530   6.317   0.853   1.251  1.4594 -0.2885 -0.4913
14013TIP3    H263531   6.368   0.950   1.147 -0.3859  1.6704  0.3668
14014TIP3   OH263532   0.973   0.819  11.322 -0.0081  0.0085 -1.0690
14014TIP3    H163533   0.951   0.906  11.289  0.5701  0.9589  0.8917
14014TIP3    H263534   0.992   0.768  11.244 -1.0333  1.4330 -2.3227
14015TIP3   OH263535   2.006   1.061   2.388  0.0445  0.6734  0.4393
14015TIP3    H163536   2.091   1.016   2.383 -0.4683 -0.4415  1.2561
14015TIP3    H263537   1.948   1.010   2.332 -0.0063  1.6743 -0.4473
14016TIP3   OH263538   2.983   4.798   4.376  0.3876 -0.2773 -0.6801
14016TIP3    H163539   2.984   4.826   4.468 -2.2322 -1.9938 -0.0369
14016TIP3    H263540   3.019   4.873   4.328 -1.7123  2.2325  1.3869
14017TIP3   OH263541   1.029   6.300  10.475 -0.0817  0.2861 -0.4492
14017TIP3    H163542   1.113   6.338  10.502  0.4894  0.2852 -2.0641
14017TIP3    H263543   1.010   6.234  10.540  0.2496  1.5162  0.9566
14018TIP3   OH263544   6.509   0.971   4.382  0.4325  0.3327 -0.3706
14018TIP3    H163545   6.519   0.912   4.308 -0.8376 -1.0873  0.5346
14018TIP3    H263546   6.591   0.962   4.431  0.0355 -1.1785  0.0712
14019TIP3   OH263547   1.407   5.651   0.179  0.5131 -0.0112  0.1515
14019TIP3    H163548   1.404   5.598   0.099  0.0835 -1.2023  0.9154
14019TIP3    H263549   1.492   5.695   0.176  0.7632 -0.5267 -0.6592
14020TIP3   OH263550   3.211   3.558  14.741 -0.3231  0.5900  0.3279
14020TIP3    H163551   3.126   3.600  14.732 -0.2695  0.8154  0.8094
14020TIP3    H263552   3.194   3.479  14.793 -0.4326 -0.0209 -0.6221
14021TIP3   OH263553   4.185   6.821   5.384 -0.3571  0.2458 -0.4437
14021TIP3    H163554   4.102   6.855   5.415 -0.8841 -2.2156  1.1225
14021TIP3    H263555   4.162   6.747   5.328  0.7417 -0.6925  0.2851
14022TIP3   OH263556   6.472   5.651   5.913 -0.4243  0.3682 -0.0744
14022TIP3    H163557   6.505   5.565   5.887  1.1125  1.3324 -1.5691
14022TIP3    H263558   6.407   5.672   5.846 -0.2841  0.6687 -0.1150
14023TIP3   OH263559   6.003   4.632  11.971  0.3070 -0.2146  0.0580
14023TIP3    H163560   5.999   4.728  11.965  2.7936  0.2685  3.1059
14023TIP3    H263561   5.923   4.607  12.017  0.2832  0.5756  0.4614
14024TIP3   OH263562   1.665   5.808   0.020  0.6112  0.2989  0.0092
14024TIP3    H163563   1.601   5.842  -0.042  0.3519 -1.6643 -0.8715
14024TIP3    H263564   1.738   5.871   0.016  0.1311  0.8056 -1.4408
14025TIP3   OH263565   6.217   2.398  16.902 -0.0194 -0.6642 -0.6135
14025TIP3    H163566   6.146   2.378  16.962  0.4587  0.8063  0.5027
14025TIP3    H263567   6.267   2.317  16.895 -2.0342 -1.8782 -1.8191
14026TIP3   OH263568   3.647   2.732   1.671  0.4593 -0.2734  0.2382
14026TIP3    H163569   3.733   2.692   1.661  1.3327  1.4774  0.2355
14026TIP3    H263570   3.615   2.744   1.582 -0.5418 -2.3638  0.2707
14027TIP3   OH263571   6.420   6.503   0.901  0.2895 -0.4519 -0.6333
14027TIP3    H163572   6.507   6.465   0.888  0.9071  0.6980 -0.0027
14027TIP3    H263573   6.362   6.449   0.846  1.4340 -1.0618 -1.2844
14028TIP3   OH263574   6.415   0.463  16.148 -0.1246  0.2241  0.1291
14028TIP3    H163575   6.342   0.454  16.087  0.9282  1.2926 -1.3527
14028TIP3    H263576   6.466   0.383  16.136 -0.0886  0.2911 -0.1870
14029TIP3   OH263577   1.903   4.775   5.713  0.1944  0.2927  0.4194
14029TIP3    H163578   1.899   4.864   5.678  1.3196 -0.1665 -0.9367
14029TIP3    H263579   1.988   4.770   5.756  0.4503 -0.3609 -0.1598
14030TIP3   OH263580   5.764   3.668   0.654  0.4768 -0.1504 -0.0981
14030TIP3    H163581   5.826   3.599   0.632  1.1209  0.2947  0.3099
14030TIP3    H263582   5.795   3.703   0.738 -1.3612 -1.1411  1.0714
14031TIP3   OH263583   6.232   6.367  15.593 -0.1337 -0.9608 -0.6043
14031TIP3    H163584   6.232   6.351  15.687  0.2651 -2.7241 -0.8794
14031TIP3    H263585   6.229   6.280  15.553  1.4584 -0.3281 -2.2308
14032TIP3   OH263586   4.312   0.896   2.031 -0.0668  0.1212  0.0917
14032TIP3    H163587   4.376   0.879   1.962  1.4609 -0.1489  1.5130
14032TIP3    H263588   4.230   0.859   1.998  0.2598  1.1764 -2.1252
14033TIP3   OH263589   1.085   2.421  14.551 -0.0329  0.2118  0.2105
14033TIP3    H163590   1.109   2.511  14.574  0.0195  0.2575 -0.0253
14033TIP3    H263591   1.091   2.418  14.456  0.5937 -0.2195  0.2572
14034TIP3   OH263592   2.266   2.820  11.739 -0.4672  0.7976  0.1597
14034TIP3    H163593   2.240   2.824  11.648 -2.0371  0.8497  0.5807
14034TIP3    H263594   2.207   2.755  11.778  0.1692  0.7841  1.1309
14035TIP3   OH263595   6.337   1.220  14.316 -0.5968 -0.2608  0.3150
14035TIP3    H163596   6.242   1.227  14.309 -0.4393 -0.0523 -2.5028
14035TIP3    H263597   6.360   1.145  14.261  0.9844  0.4647 -0.0649
14036TIP3   OH263598   5.884   3.988   1.499  0.1670 -0.1402  0.0716
14036TIP3    H163599   5.835   4.063   1.534 -0.1910 -1.2316  2.0368
14036TIP3    H263600   5.891   4.007   1.405 -0.6936  1.9032  0.3505
14037TIP3   OH263601   6.184   3.475   1.980 -0.1860 -0.2301 -0.2940
14037TIP3    H163602   6.095   3.450   1.955 -0.0681 -0.8277 -0.1360
14037TIP3    H263603   6.236   3.396   1.964  0.3835  0.2323 -0.7369
14038TIP3   OH263604   6.318   4.767   0.012  0.3665 -0.2129 -0.2705
14038TIP3    H163605   6.267   4.836  -0.031 -1.7020 -1.9044 -0.7051
14038TIP3    H263606   6.296   4.777   0.105  1.3848  0.7116 -0.1112
14039TIP3   OH263607   1.278   4.497  10.295 -0.2267  0.1082 -0.8841
14039TIP3    H163608   1.249   4.544  10.373  0.7725 -0.0415 -0.4011
14039TIP3    H263609   1.352   4.548  10.262  1.6193 -1.6365  0.2951
14040TIP3   OH263610   3.047   3.293   6.354 -0.1320  0.0368  0.0091
14040TIP3    H163611   3.051   3.277   6.448 -1.9539 -0.6774  0.0019
14040TIP3    H263612   3.138   3.313   6.329  0.6198 -1.0961  1.6707
14041TIP3   OH263613   1.915   3.988   2.218  0.1457 -0.1292  0.0911
14041TIP3    H163614   1.897   4.014   2.128  1.3282 -1.9599 -0.7183
14041TIP3    H263615   1.874   4.057   2.271 -0.6420  0.9471 -1.8135
14042TIP3   OH263616   2.380   1.027  14.545 -0.2994 -0.1551  0.2521
14042TIP3    H163617   2.407   1.096  14.605  1.3843  1.5278 -2.2408
14042TIP3    H263618   2.457   0.969  14.540 -0.7157 -0.7165  0.3310
14043TIP3   OH263619   0.745   4.773  17.025  0.7159 -0.5302  0.0695
14043TIP3    H163620   0.664   4.773  17.077 -2.1447 -0.8931 -3.9185
14043TIP3    H263621   0.785   4.858  17.044  0.0440 -0.7518  2.9400
14044TIP3   OH263622   5.550   5.237   1.226  0.1326 -0.0780 -0.1695
14044TIP3    H163623   5.473   5.269   1.273 -1.7678 -2.7042 -1.1816
14044TIP3    H263624   5.625   5.272   1.274 -1.6741  1.6151  1.6063
14045TIP3   OH263625   0.339   4.416   6.674 -0.8859 -0.1345  0.0898
14045TIP3    H163626   0.322   4.332   6.717  0.5679  0.4465  1.9150
14045TIP3    H263627   0.270   4.423   6.608 -0.5127 -3.1497 -0.7495
14046TIP3   OH263628   3.084   1.420  13.671 -0.2355  0.3102 -0.2053
14046TIP3    H163629   3.018   1.357  13.642 -0.0624 -0.2396  0.5725
14046TIP3    H263630   3.135   1.438  13.592 -0.0883 -0.7675 -0.3747
14047TIP3   OH263631   2.943   2.660  16.385 -0.5833 -0.6040  0.4305
14047TIP3    H163632   2.904   2.684  16.468  1.6746 -0.8492  1.6472
14047TIP3    H263633   2.875   2.610  16.339 -1.2569 -2.2120  2.9778
14048TIP3   OH263634   2.085   6.429   1.724  0.6320  0.7242  0.0611
14048TIP3    H163635   2.088   6.452   1.631  2.6070  1.0093  0.1352
14048TIP3    H263636   2.154   6.483   1.763  0.7288 -0.3687  1.4562
14049TIP3   OH263637   2.404   3.458  16.391  0.3404 -0.1615 -0.0315
14049TIP3    H163638   2.418   3.544  16.431  1.3701  0.4415 -1.5833
14049TIP3    H263639   2.417   3.473  16.297  3.9720 -2.6125 -0.1222
14050TIP3   OH263640   3.655   1.075  17.122 -0.1932 -0.8010  0.3125
14050TIP3    H163641   3.737   1.098  17.165 -0.0047 -0.6586 -0.1173
14050TIP3    H263642   3.679   1.004  17.062 -0.0775  0.2083 -0.8835
14051TIP3   OH263643   3.602   3.490   4.880 -0.7346  0.0505  0.2061
14051TIP3    H163644   3.620   3.398   4.897 -3.1713 -0.6713 -0.6711
14051TIP3    H263645   3.682   3.524   4.840 -0.6951 -2.4466 -2.1123
14052TIP3   OH263646   6.286   6.157  16.329  0.1655  0.3007 -0.8200
14052TIP3    H163647   6.373   6.127  16.304  0.1149 -0.1300 -0.4868
14052TIP3    H263648   6.296   6.251  16.345  0.7018  0.1491 -0.2192
14053TIP3   OH263649   6.462   5.200   5.682 -0.5211 -0.8351  0.3293
14053TIP3    H163650   6.397   5.129   5.676  0.4241 -1.7278  0.3963
14053TIP3    H263651   6.465   5.237   5.594 -1.2104 -0.6841  0.3567
14054TIP3   OH263652   4.659   6.611  16.968 -0.0660  0.1517  0.1756
14054TIP3    H163653   4.632   6.695  16.930 -0.2130  1.0417  2.1333
14054TIP3    H263654   4.729   6.580  16.911 -0.5994  1.1585 -1.0804
14055TIP3   OH263655   0.091   5.547   2.399 -0.5556 -0.2874  0.7564
14055TIP3    H163656   0.153   5.530   2.328  0.3720 -2.9671  2.0349
14055TIP3    H263657   0.104   5.639   2.421 -0.8346  0.6392 -2.3948
14056TIP3   OH263658   1.171   0.438  16.934 -0.7815  0.3565 -0.3817
14056TIP3    H163659   1.246   0.408  16.985 -0.4508  2.5398  0.5133
14056TIP3    H263660   1.195   0.423  16.843 -0.4191 -1.4489 -0.0345
14057TIP3   OH263661   0.223   5.344  15.671 -0.4547  0.1873 -0.0386
14057TIP3    H163662   0.231   5.250  15.654  0.0438 -0.0049  1.1275
14057TIP3    H263663   0.129   5.362  15.665 -0.7612 -0.7666  1.4889
14058TIP3   OH263664   5.460   0.600   4.680  0.0727  0.1863 -0.4896
14058TIP3    H163665   5.538   0.595   4.734  0.5906 -0.4813 -1.2686
14058TIP3    H263666   5.480   0.668   4.615  0.2705 -0.4339 -1.0844
14059TIP3   OH263667   4.196   2.180  11.082 -0.2982  0.0887  0.3516
14059TIP3    H163668   4.106   2.179  11.050 -0.4271 -1.3632  0.6957
14059TIP3    H263669   4.249   2.164  11.004 -0.4960 -1.3523  0.4792
14060TIP3   OH263670   3.466   6.317  11.750  0.1221 -0.1173  0.3194
14060TIP3    H163671   3.508   6.231  11.741 -1.0535 -0.5988 -0.9494
14060TIP3    H263672   3.375   6.297  11.772 -0.6978  0.6903 -2.0461
14061TIP3   OH263673   6.616   1.020  11.837  0.1518 -0.6404  0.5191
14061TIP3    H163674   6.708   1.008  11.862  0.3145 -0.9229 -0.1910
14061TIP3    H263675   6.615   1.102  11.788 -0.0144 -0.5179  0.7295
14062TIP3   OH263676   1.451   3.131  13.551 -0.1004  0.3868 -0.0577
14062TIP3    H163677   1.489   3.218  13.535  2.4180 -0.5048  0.6058
14062TIP3    H263678   1.418   3.136  13.640 -1.4314  1.1082 -0.5627
14063TIP3   OH263679   0.729   1.884  12.141  0.0293 -0.3921 -0.2504
14063TIP3    H163680   0.660   1.822  12.165 -0.8519  0.4093 -0.6492
14063TIP3    H263681   0.720   1.955  12.204  0.3263 -0.1649 -0.4615
14064TIP3   OH263682   2.059   0.503  15.642 -0.2871 -0.1914  0.1814
14064TIP3    H163683   2.118   0.564  15.686 -0.9834  0.4270  0.2746
14064TIP3    H263684   2.059   0.532  15.551 -1.0716  0.3238  0.3370
14065TIP3   OH263685   3.471   0.336  15.291 -0.2184  0.3683 -0.4620
14065TIP3    H163686   3.466   0.431  15.284  1.1878  0.3797 -2.0780
14065TIP3    H263687   3.432   0.316  15.376  0.0545  2.4406  0.2100
14066TIP3   OH263688   2.446   2.658  17.111 -0.6464 -0.3119 -0.0820
14066TIP3    H163689   2.355   2.643  17.086 -0.7035 -0.3667  0.1562
14066TIP3    H263690   2.444   2.738  17.163 -0.5325 -0.2137 -0.2278
14067TIP3   OH263691   3.051   0.639  15.857 -0.0594 -0.4003 -0.1657
14067TIP3    H163692   3.088   0.551  15.848  1.7169  0.4260 -1.3601
14067TIP3    H263693   3.099   0.678  15.930 -0.4607 -0.2148  0.0042
14068TIP3   OH263694   4.100   0.906  17.006  0.5289 -0.0432  0.0272
14068TIP3    H163695   4.103   0.826  17.057  2.3870  0.0023  0.0710
14068TIP3    H263696   4.053   0.969  17.062  0.6508 -0.5873  0.7569
14069TIP3   OH263697   5.980   3.983  14.388  0.2725 -0.7506  0.1253
14069TIP3    H163698   6.071   3.963  14.411  0.1554 -0.2784  1.0524
14069TIP3    H263699   5.929   3.914  14.430  0.2049 -1.1457 -0.5809
14070TIP3   OH263700   3.708   6.765  16.430  0.5684  0.7645  0.4710
14070TIP3    H163701   3.769   6.765  16.356 -0.3005  1.2190 -0.2667
14070TIP3    H263702   3.660   6.847  16.421  0.8245  1.0824  1.8720
14071TIP3   OH263703   6.036   5.828  15.969 -0.2162 -0.3842  0.3884
14071TIP3    H163704   6.053   5.864  15.882  2.3828 -0.9942  0.5676
14071TIP3    H263705   6.066   5.895  16.030 -1.2626 -0.2994  0.8330
14072TIP3   OH263706   4.105   6.261   5.750  0.3418 -0.1899  0.2608
14072TIP3    H163707   4.191   6.267   5.792 -0.2949  0.2284  1.5493
14072TIP3    H263708   4.102   6.337   5.690  0.4637  0.4108  1.0055
14073TIP3   OH263709   6.229   0.409   5.140  0.7150 -0.6402 -0.5090
14073TIP3    H163710   6.286   0.443   5.071 -0.0142  0.7440 -0.4638
14073TIP3    H263711   6.190   0.487   5.180  1.6338 -1.3327  1.9575
14074TIP3   OH263712   4.886   6.324  15.285  0.4254  0.2505 -0.1049
14074TIP3    H163713   4.935   6.257  15.238 -0.7285 -0.2590 -0.6274
14074TIP3    H263714   4.927   6.407  15.259  1.8519 -0.2182  0.5345
14075TIP3   OH263715   6.362   6.327  14.794  0.0032 -0.0247  0.3915
14075TIP3    H163716   6.314   6.308  14.875 -0.2766  0.4508  0.3362
14075TIP3    H263717   6.359   6.245  14.745 -1.3458  0.1934  0.0827
14076TIP3   OH263718   1.100   6.498  13.730 -0.5777 -0.1445 -0.0344
14076TIP3    H163719   1.009   6.517  13.707 -0.6868 -0.8850 -0.2307
14076TIP3    H263720   1.140   6.468  13.649 -0.0970  0.3714  0.0044
14077TIP3   OH263721   0.595   2.006  11.327  0.1803  0.0802  0.3103
14077TIP3    H163722   0.682   2.040  11.349  1.2348 -1.6717 -0.9042
14077TIP3    H263723   0.563   2.065  11.258  0.0283  1.2042  1.3161
14078TIP3   OH263724   5.872   4.651   2.414 -0.1976 -0.0375  0.4944
14078TIP3    H163725   5.893   4.611   2.329  0.1367  0.2235  0.4547
14078TIP3    H263726   5.957   4.679   2.449 -0.6046  2.4754 -0.3706
14079TIP3   OH263727   0.106   3.342  12.992  0.1860  0.3591  0.2674
14079TIP3    H163728   0.079   3.406  12.926 -0.1136 -0.0175  0.0241
14079TIP3    H263729   0.171   3.389  13.044  0.7497  0.5243 -0.5562
14080TIP3   OH263730   3.802   3.420  14.571 -0.2513  0.1225  0.3381
14080TIP3    H163731   3.851   3.389  14.495 -0.2988  0.9092 -0.0228
14080TIP3    H263732   3.856   3.489  14.609 -0.5964  0.2874  0.5421
14081TIP3   OH263733   6.441   1.958   3.722  0.2289  0.2329 -0.4772
14081TIP3    H163734   6.514   1.976   3.782 -0.5085 -0.6842  0.7400
14081TIP3    H263735   6.376   1.914   3.776 -0.0318 -1.6128 -2.1704
14082TIP3   OH263736   6.488   1.226   2.005 -0.3831 -0.4175  0.6017
14082TIP3    H163737   6.458   1.290   2.069 -1.4060  0.5850 -0.8131
14082TIP3    H263738   6.416   1.163   1.998  0.3297 -1.3514  1.4746
14083TIP3   OH263739   1.432   3.687  11.355  1.0061 -0.7081  0.7984
14083TIP3    H163740   1.347   3.667  11.394 -0.5641 -0.7459 -2.3488
14083TIP3    H263741   1.449   3.778  11.379 -1.0976  0.0430 -0.3700
14084TIP3   OH263742   1.843   3.995   5.556  0.0796  0.4390  0.3851
14084TIP3    H163743   1.842   4.065   5.621  0.4402  1.3321 -0.5422
14084TIP3    H263744   1.853   4.040   5.472  2.3986 -0.7985 -0.1039
14085TIP3   OH263745   4.228   0.049   3.926 -0.1103  0.2548  0.1362
14085TIP3    H163746   4.311   0.050   3.974  0.0573 -1.6742 -0.0703
14085TIP3    H263747   4.253   0.067   3.835  0.1589 -0.7332  0.0019
14086TIP3   OH263748   4.682   3.212  14.720 -0.1768 -0.1782  0.9003
14086TIP3    H163749   4.710   3.272  14.651 -1.2817 -1.1074 -0.3958
14086TIP3    H263750   4.613   3.261  14.766 -2.3265 -0.9868 -1.2492
14087TIP3   OH263751   1.906   6.100   0.462 -0.3915  0.6610 -0.3875
14087TIP3    H163752   1.926   6.180   0.511 -1.2374  0.2201  0.7004
14087TIP3    H263753   1.864   6.042   0.526  2.5158 -1.7075 -0.3933
14088TIP3   OH263754   3.111   4.004   0.217  0.0160 -0.0142 -0.5870
14088TIP3    H163755   3.185   4.029   0.272 -0.2980  1.2205 -0.6972
14088TIP3    H263756   3.151   3.975   0.135  0.4370 -0.9183 -0.0799
14089TIP3   OH263757   2.237   2.789   6.275  0.0359  0.1949 -0.4032
14089TIP3    H163758   2.291   2.769   6.352 -0.5655  0.9023  0.2253
14089TIP3    H263759   2.178   2.715   6.266  0.3572 -0.0614 -0.4068
14090TIP3   OH263760   5.948   6.812  13.711 -0.5613  0.4384  0.4035
14090TIP3    H163761   5.854   6.809  13.690 -1.1022  0.6324  2.5976
14090TIP3    H263762   5.951   6.838  13.803  1.6446 -0.1828  0.5516
14091TIP3   OH263763   6.583   1.785   2.394  0.5362  0.2432 -0.0813
14091TIP3    H163764   6.659   1.839   2.412  1.0712 -0.7458  0.7988
14091TIP3    H263765   6.610   1.696   2.420  0.4206 -0.8872 -3.3585
14092TIP3   OH263766   0.303   5.725  14.333  0.1620 -0.5177  0.2142
14092TIP3    H163767   0.264   5.697  14.415  0.4077 -1.4852  0.0180
14092TIP3    H263768   0.276   5.659  14.270  0.3058 -0.0034 -0.3966
14093TIP3   OH263769   1.222   2.536   2.190  0.0722 -0.4797 -0.2310
14093TIP3    H163770   1.216   2.601   2.120  2.0406 -0.5643 -0.5484
14093TIP3    H263771   1.258   2.584   2.264 -1.4320 -0.5311  0.5524
14094TIP3   OH263772   1.164   3.366   5.177 -0.2824  0.4749 -0.4271
14094TIP3    H163773   1.211   3.449   5.188  0.0749  0.2007  0.2277
14094TIP3    H263774   1.207   3.306   5.239 -0.8623 -0.0596 -0.5282
14095TIP3   OH263775   2.632   1.466   3.340 -0.2074  0.3315 -0.4081
14095TIP3    H163776   2.551   1.425   3.310 -1.4418  0.8691  1.9115
14095TIP3    H263777   2.681   1.394   3.379 -0.8697  0.4424  0.6774
14096TIP3   OH263778   0.954   0.529   0.482  0.0388 -0.1499  0.1537
14096TIP3    H163779   0.861   0.506   0.489  0.2443 -0.5822  2.5951
14096TIP3    H263780   1.000   0.445   0.486  0.5500  0.1348  0.4520
14097TIP3   OH263781   5.501   5.515   4.111 -0.4300 -0.3579 -0.1300
14097TIP3    H163782   5.442   5.446   4.081 -2.0112  1.5604 -1.6643
14097TIP3    H263783   5.464   5.545   4.193 -2.7577  1.9582 -1.8599
14098TIP3   OH263784   1.452   5.099  17.183  0.2734  0.6896  0.2275
14098TIP3    H163785   1.364   5.136  17.186 -1.2387 -2.5666  1.5041
14098TIP3    H263786   1.509   5.168  17.218 -2.0541  2.2029  1.2711
14099TIP3   OH263787   1.619   3.797  15.146  0.3554  0.2016  0.6661
14099TIP3    H163788   1.676   3.776  15.072  1.9528 -1.6191  2.3024
14099TIP3    H263789   1.634   3.726  15.209 -2.3696  0.6536  1.9653
14100TIP3   OH263790   1.892   2.517  13.302  0.4220  0.1702  0.0592
14100TIP3    H163791   1.888   2.541  13.394  0.9657 -1.1604  0.4520
14100TIP3    H263792   1.945   2.587  13.262 -0.3455  1.0984  0.6034
14101TIP3   OH263793   3.979   3.484   6.487 -0.4605 -0.5489  0.0162
14101TIP3    H163794   4.044   3.442   6.543  0.9516  0.4086 -0.8440
14101TIP3    H263795   4.027   3.509   6.408 -1.5628  1.3137 -0.1293
14102TIP3   OH263796   2.455   4.214  13.830 -0.0846  0.1568  0.3600
14102TIP3    H163797   2.466   4.301  13.790 -3.5753  0.0805 -1.0970
14102TIP3    H263798   2.445   4.231  13.923 -0.5631  1.3109  0.1132
14103TIP3   OH263799   5.742   6.193   5.626 -0.4178 -0.2247  0.1573
14103TIP3    H163800   5.678   6.129   5.657 -0.4438  0.1594  0.9148
14103TIP3    H263801   5.745   6.260   5.694 -2.0013  1.7566 -1.5694
14104TIP3   OH263802   6.513   2.079  12.818 -0.3251  0.3066  0.3818
14104TIP3    H163803   6.430   2.043  12.789  0.1987 -0.0680 -0.7252
14104TIP3    H263804   6.491   2.135  12.892 -1.8201  1.7765 -1.0967
14105TIP3   OH263805   6.032   5.092  16.075 -0.4189 -0.6125 -0.2066
14105TIP3    H163806   6.053   5.115  16.165 -0.3650  0.5339 -0.4985
14105TIP3    H263807   5.940   5.117  16.065 -0.3326 -0.4301 -0.5622
14106TIP3   OH263808   2.296   6.338   5.380 -0.2376  0.0991 -0.3398
14106TIP3    H163809   2.228   6.274   5.403  1.2002 -1.8912 -1.2383
14106TIP3    H263810   2.342   6.297   5.306  0.1432  2.6848 -1.6268
14107TIP3   OH263811   2.427   3.978   3.706 -0.2910  0.0855 -0.1579
14107TIP3    H163812   2.396   4.055   3.753 -1.6346 -0.5887  0.1226
14107TIP3    H263813   2.477   4.014   3.632  2.4707  1.1625  2.0510
14108TIP3   OH263814   5.875   1.576   0.447  0.2074 -0.1223  0.1246
14108TIP3    H163815   5.914   1.653   0.406  1.0967 -0.6380 -0.0176
14108TIP3    H263816   5.797   1.558   0.393 -1.6893  2.3317  1.8299
14109TIP3   OH263817   4.948   2.614   3.329  0.0606  0.2518 -0.1419
14109TIP3    H163818   4.864   2.577   3.356 -0.6803  1.3375 -0.8825
14109TIP3    H263819   4.987   2.548   3.271 -0.2915 -0.2312  0.1652
14110TIP3   OH263820   1.592   1.158   4.810 -0.1097 -0.2282 -0.0410
14110TIP3    H163821   1.613   1.247   4.840 -1.0512  0.3083 -0.8885
14110TIP3    H263822   1.545   1.118   4.882  2.4888 -0.9709  1.3592
14111TIP3   OH263823   4.482   1.325   6.043  0.4783 -0.2613  0.0697
14111TIP3    H163824   4.395   1.349   6.075 -0.4128 -0.7607 -1.8163
14111TIP3    H263825   4.480   1.348   5.950  1.9603 -1.3588 -0.2637
14112TIP3   OH263826   2.829   5.410   1.303 -0.4184 -0.5187 -0.0429
14112TIP3    H163827   2.777   5.345   1.256 -0.1151 -1.7301  1.2407
14112TIP3    H263828   2.915   5.370   1.313  0.5838  1.1258 -1.4084
14113TIP3   OH263829   5.905   2.713   0.357 -0.0546  0.2125  0.1373
14113TIP3    H163830   5.988   2.670   0.374 -0.0842  0.2926  0.4928
14113TIP3    H263831   5.883   2.757   0.439  0.0999  1.1226 -0.3037
14114TIP3   OH263832   2.684   6.728   1.965  0.0649 -0.5198  0.1601
14114TIP3    H163833   2.605   6.700   2.012 -0.9683  1.9186  0.0519
14114TIP3    H263834   2.693   6.821   1.987  2.7318 -0.6306 -0.1478
14115TIP3   OH263835   4.568   3.952   5.274  0.2690 -0.4401 -0.2440
14115TIP3    H163836   4.544   3.945   5.367  0.2907 -0.2909 -0.2273
14115TIP3    H263837   4.491   3.921   5.227  0.4121 -0.9175 -0.1643
14116TIP3   OH263838   5.406   6.473  11.930  0.9909  0.0515  0.0307
14116TIP3    H163839   5.415   6.537  12.000  1.0646 -2.2792  2.2855
14116TIP3    H263840   5.374   6.394  11.974 -2.0756 -0.6658 -3.0372
14117TIP3   OH263841   2.509   1.102   1.039  0.5986  0.0658  0.0258
14117TIP3    H163842   2.492   1.176   1.097  0.0640 -0.1812  0.1930
14117TIP3    H263843   2.530   1.030   1.097  0.1360 -0.1643 -0.0855
14118TIP3   OH263844   0.305   2.258   4.349 -0.5747  0.0898 -0.4639
14118TIP3    H163845   0.255   2.176   4.354 -1.1092  0.4169 -0.3556
14118TIP3    H263846   0.331   2.265   4.257 -0.9907  0.0613 -0.5888
14119TIP3   OH263847   6.770   5.970  13.251 -0.1083 -0.0894 -0.2803
14119TIP3    H163848   6.806   6.041  13.305  3.1892 -1.4897 -0.4287
14119TIP3    H263849   6.691   6.008  13.211  1.0652  3.2332  0.2562
14120TIP3   OH263850   0.162   1.093  15.393 -0.2538  0.0053  0.3540
14120TIP3    H163851   0.102   1.022  15.374 -0.2461 -0.3650  1.6279
14120TIP3    H263852   0.248   1.059  15.369 -0.2913 -0.2779  0.6301
14121TIP3   OH263853   4.164   4.396   1.307  0.1743  0.5748 -0.1788
14121TIP3    H163854   4.079   4.389   1.264  0.6074  0.1181 -0.9702
14121TIP3    H263855   4.143   4.432   1.394 -1.0471 -1.2209  0.3463
14122TIP3   OH263856   3.773   2.483  11.449  0.0279 -0.3367  0.5250
14122TIP3    H163857   3.742   2.573  11.462  0.9588 -0.0381  0.8004
14122TIP3    H263858   3.862   2.494  11.414 -0.0916 -1.1551 -0.0664
14123TIP3   OH263859   3.353   2.977   5.159  0.2979  0.3172  0.3513
14123TIP3    H163860   3.320   3.052   5.210  0.4645  1.2803 -0.9111
14123TIP3    H263861   3.282   2.914   5.161  0.4112  0.1758  2.0247
14124TIP3   OH263862   5.932   4.036   5.791 -0.0899 -0.2095  0.4327
14124TIP3    H163863   5.981   3.981   5.730 -0.6106  0.2377 -0.4055
14124TIP3    H263864   5.888   4.100   5.736 -1.3949 -0.4140  1.1928
14125TIP3   OH263865   2.832   4.435   5.777  0.4231 -0.2057 -0.4035
14125TIP3    H163866   2.852   4.429   5.871  2.5959  1.6528 -0.6737
14125TIP3    H263867   2.817   4.528   5.762 -1.3086 -0.6523 -1.6960
14126TIP3   OH263868   4.085   1.165   0.200 -0.1553 -0.2085  0.3363
14126TIP3    H163869   4.064   1.255   0.177 -1.0656 -0.6020 -0.4940
14126TIP3    H263870   4.174   1.151   0.168 -0.6067 -0.0772 -1.0612
14127TIP3   OH263871   3.656   6.163   2.089  0.1600 -0.3691  0.0523
14127TIP3    H163872   3.688   6.253   2.089  0.6947 -0.5449 -1.1871
14127TIP3    H263873   3.562   6.171   2.105  0.0513  0.4727 -0.9554
14128TIP3   OH263874   4.656   4.751  11.438  0.3180 -0.4048 -0.2848
14128TIP3    H163875   4.634   4.829  11.388  0.5550 -0.2379 -0.1282
14128TIP3    H263876   4.709   4.783  11.511 -0.2168 -0.6178  0.2014
14129TIP3   OH263877   1.775   0.552  15.730  0.5127 -0.6208 -0.0461
14129TIP3    H163878   1.725   0.587  15.657  0.8252 -0.2355 -0.0821
14129TIP3    H263879   1.865   0.583  15.714  0.3148  0.7342  1.2768
14130TIP3   OH263880   0.194   1.458   0.925 -0.0261  0.1153  0.3313
14130TIP3    H163881   0.149   1.480   1.007 -1.5321 -0.1701 -0.3816
14130TIP3    H263882   0.141   1.389   0.886  1.9722 -1.4396  0.2099
14131TIP3   OH263883   1.972   3.445  13.245  0.2317 -0.3096 -0.5972
14131TIP3    H163884   1.945   3.391  13.320 -0.5154  0.7941 -0.0309
14131TIP3    H263885   2.030   3.511  13.284 -0.5080  0.5329 -0.9053
14132TIP3   OH263886   6.150   5.226  11.154 -0.0000 -0.2265  0.0676
14132TIP3    H163887   6.162   5.146  11.103  1.1995 -0.2878  0.4166
14132TIP3    H263888   6.192   5.208  11.238 -0.4822  0.4723  0.4790
14133TIP3   OH263889   0.818   5.676   4.049 -0.0410  0.3478 -0.6258
14133TIP3    H163890   0.843   5.584   4.053  1.7533  0.7941  3.2085
14133TIP3    H263891   0.754   5.686   4.119  0.2855  2.1221 -0.5398
14134TIP3   OH263892   2.797   4.377  12.239  0.1745  0.7503  0.1309
14134TIP3    H163893   2.748   4.386  12.321  1.2715  2.2307  0.6658
14134TIP3    H263894   2.797   4.283  12.222 -2.1322  0.6103  0.5230
14135TIP3   OH263895   1.023   6.264   5.972 -0.2229  0.0248  0.9738
14135TIP3    H163896   1.013   6.264   6.067 -0.2490  0.0972  0.9712
14135TIP3    H263897   1.073   6.344   5.954 -0.7667  0.3405  0.8677
14136TIP3   OH263898   1.546   1.695  15.222 -0.3254  1.0101 -0.0753
14136TIP3    H163899   1.491   1.627  15.182 -0.2951  0.3638  0.9320
14136TIP3    H263900   1.574   1.749  15.149 -1.2730  0.5985 -0.7656
14137TIP3   OH263901   6.252   4.996   0.805  0.5713 -0.3389  0.1517
14137TIP3    H163902   6.263   5.091   0.811  0.6540 -0.1111 -2.5528
14137TIP3    H263903   6.339   4.961   0.826  0.5756  0.1481  1.0131
14138TIP3   OH263904   1.279   4.257   1.224  0.2251  0.5156 -0.0793
14138TIP3    H163905   1.357   4.311   1.210  1.0016 -0.2349  1.1451
14138TIP3    H263906   1.284   4.190   1.156 -0.0941  1.2592 -0.8490
14139TIP3   OH263907   5.267   2.496  16.234  0.0574  0.3020 -0.0235
14139TIP3    H163908   5.305   2.580  16.258 -1.0759  0.6287  0.7329
14139TIP3    H263909   5.292   2.484  16.142  0.4822  1.3170 -0.0578
14140TIP3   OH263910   0.738   2.747  12.033  0.1912  0.5958  0.5833
14140TIP3    H163911   0.803   2.816  12.043  0.2748  0.4463  1.1299
14140TIP3    H263912   0.752   2.713  11.945 -0.0905  1.5132  0.1753
14141TIP3   OH263913   6.207   1.074  15.604 -0.4436 -0.5785 -0.2972
14141TIP3    H163914   6.130   1.053  15.656 -1.1602  0.0387 -1.0925
14141TIP3    H263915   6.258   1.134  15.659 -0.7316 -0.6590  0.0585
14142TIP3   OH263916   6.256   0.797  13.117  0.0567  0.4990 -0.2093
14142TIP3    H163917   6.308   0.871  13.147  0.7275  0.2689 -0.7937
14142TIP3    H263918   6.305   0.720  13.145  0.1123  0.2816 -0.8805
14143TIP3   OH263919   1.390   6.644   3.755  0.1150 -0.0440  0.3558
14143TIP3    H163920   1.421   6.713   3.814 -1.1757  1.0593 -0.1943
14143TIP3    H263921   1.418   6.563   3.797  2.3414  0.7998  0.6502
14144TIP3   OH263922   4.094   5.759  15.814 -0.6434  0.1302  0.3955
14144TIP3    H163923   4.044   5.810  15.751 -0.4827  0.9630  0.9339
14144TIP3    H263924   4.185   5.787  15.802 -0.0639 -2.1385 -1.3326
14145TIP3   OH263925   5.810   5.584  12.479  0.3048 -0.0701  0.5348
14145TIP3    H163926   5.798   5.489  12.470 -0.0415 -0.3068  2.8226
14145TIP3    H263927   5.722   5.617  12.497  0.7124  0.3748  1.8180
14146TIP3   OH263928   1.708   5.559  15.684  0.0619  0.0764 -0.6017
14146TIP3    H163929   1.756   5.616  15.744 -1.9376 -0.5869  1.8080
14146TIP3    H263930   1.618   5.560  15.717 -0.5096 -2.7018 -1.8096
14147TIP3   OH263931   1.657   1.794   5.365 -0.3324  0.0799  0.3353
14147TIP3    H163932   1.692   1.882   5.380  0.9550 -0.2806 -0.3957
14147TIP3    H263933   1.653   1.755   5.453  0.0147  0.5447  0.5642
14148TIP3   OH263934   2.496   2.336   1.020 -0.5779  0.4197 -0.3618
14148TIP3    H163935   2.515   2.243   1.021 -0.7863  0.3297  2.2846
14148TIP3    H263936   2.582   2.378   1.021 -0.2683  0.0890  3.6018
14149TIP3   OH263937   0.619   2.179   1.776  0.1939  0.2518 -0.1596
14149TIP3    H163938   0.680   2.209   1.844 -0.0376 -0.4821  0.3914
14149TIP3    H263939   0.661   2.202   1.694  0.6727  0.7965  0.2295
14150TIP3   OH263940   4.687   4.849   6.331  0.2948 -0.0014 -0.1516
14150TIP3    H163941   4.663   4.938   6.305  2.3478  0.5831 -0.2197
14150TIP3    H263942   4.626   4.793   6.283 -0.8636  1.3418 -0.3157
14151TIP3   OH263943   6.734   0.639  15.267  0.5073 -0.6332 -0.1983
14151TIP3    H163944   6.816   0.670  15.227 -0.0254  0.5504 -0.4178
14151TIP3    H263945   6.673   0.712  15.256 -0.5101 -1.3990  0.1950
14152TIP3   OH263946   0.939   2.879   1.486 -0.4188 -0.8604 -0.7185
14152TIP3    H163947   0.909   2.943   1.421  0.2275 -0.0066 -0.1920
14152TIP3    H263948   0.863   2.824   1.502 -1.4854  0.7532 -0.0014
14153TIP3   OH263949   0.171   1.822   0.448  0.1707 -1.4050 -0.3381
14153TIP3    H163950   0.130   1.767   0.381 -0.8741 -1.4563  0.3345
14153TIP3    H263951   0.107   1.827   0.518 -0.6517  2.3511 -1.1715
14154TIP3   OH263952   1.239   1.535  16.330  0.4531  0.1931  0.4773
14154TIP3    H163953   1.252   1.576  16.244  0.6096 -0.8851 -0.0299
14154TIP3    H263954   1.236   1.608  16.391 -1.1172  1.0821 -0.6074
14155TIP3   OH263955   2.390   3.260  15.260  0.3422 -0.5281 -0.7804
14155TIP3    H163956   2.407   3.252  15.353  0.5235 -1.8876 -0.9070
14155TIP3    H263957   2.473   3.290  15.222  0.3646 -0.2935 -0.5434
14156TIP3   OH263958   4.718   0.122  15.440 -0.3184 -0.1986  0.0528
14156TIP3    H163959   4.685   0.091  15.525 -1.0025 -0.9626 -0.4742
14156TIP3    H263960   4.644   0.113  15.381  0.6409 -1.3449 -1.0224
14157TIP3   OH263961   5.569   1.458   2.614  0.4302 -0.4493  0.1389
14157TIP3    H163962   5.528   1.445   2.699  0.5393  2.0662  0.6629
14157TIP3    H263963   5.632   1.386   2.606 -2.9727 -3.6850 -0.1379
14158TIP3   OH263964   5.835   0.316   3.178 -0.2612  0.3465 -0.4196
14158TIP3    H163965   5.812   0.393   3.230  0.8664  1.2389 -1.1990
14158TIP3    H263966   5.885   0.260   3.237  0.2673  0.9477 -0.2974
14159TIP3   OH263967   1.872   2.725  15.497  0.2949 -0.8747 -0.2695
14159TIP3    H163968   1.960   2.746  15.464  0.1929 -0.4050 -0.2492
14159TIP3    H263969   1.848   2.801  15.550 -0.2793 -0.8296 -0.5871
14160TIP3   OH263970   6.411   2.487   2.682  0.3417 -0.0933 -0.0031
14160TIP3    H163971   6.395   2.581   2.671 -0.3449  0.0197  1.6397
14160TIP3    H263972   6.498   2.482   2.721  0.1163 -0.0853  0.5122
14161TIP3   OH263973   6.389   2.837  12.656  0.0393 -0.6100  0.1377
14161TIP3    H163974   6.299   2.839  12.688 -0.7780  1.6029 -1.9549
14161TIP3    H263975   6.430   2.915  12.694 -0.3644  0.9242 -2.3249
14162TIP3   OH263976   1.352   5.475  17.246  0.1440  0.5313  0.0575
14162TIP3    H163977   1.285   5.540  17.221  1.5367  1.8717 -0.3474
14162TIP3    H263978   1.396   5.454  17.164  0.6821  0.2165  0.4246
14163TIP3   OH263979   3.593   5.385   5.383  0.0232  0.4330 -0.3380
14163TIP3    H163980   3.664   5.449   5.381  0.4990 -0.1025 -2.1857
14163TIP3    H263981   3.556   5.387   5.295 -2.1644  0.5515  0.5182
14164TIP3   OH263982   1.026   3.156  14.374 -0.0161 -0.4619  0.3414
14164TIP3    H163983   1.096   3.220  14.390  0.0948 -0.9141  1.8000
14164TIP3    H263984   0.950   3.191  14.420 -0.3467 -0.7051 -0.0082
14165TIP3   OH263985   3.523   1.539   1.829  0.1420  0.1350  0.5030
14165TIP3    H163986   3.519   1.458   1.778 -1.8667  0.4152  0.1408
14165TIP3    H263987   3.541   1.510   1.918 -0.8058 -0.7571  0.4213
14166TIP3   OH263988   1.016   3.393   1.657 -0.3925  0.3447  0.4862
14166TIP3    H163989   0.924   3.403   1.633 -0.5441  0.9682  1.3112
14166TIP3    H263990   1.045   3.317   1.607 -1.7013 -0.6577  1.1919
14167TIP3   OH263991   2.015   5.187  12.898  0.2707  0.3251  0.1757
14167TIP3    H163992   2.027   5.231  12.814  0.3738 -1.3421 -0.7238
14167TIP3    H263993   1.925   5.207  12.924  0.8737  2.5554  0.7416
14168TIP3   OH263994   5.440   6.060   4.288 -0.8848 -0.3827  0.0616
14168TIP3    H163995   5.429   6.136   4.346  0.1844 -0.3187  0.1932
14168TIP3    H263996   5.483   6.096   4.211 -1.6412 -0.6068 -0.4720
14169TIP3   OH263997   1.056   5.628  13.360 -0.1560  0.7336 -0.1698
14169TIP3    H163998   1.036   5.717  13.388 -0.0059  1.2183 -1.5337
14169TIP3    H263999   1.037   5.574  13.437  2.3566  2.1991  1.6349
14170TIP3   OH264000   3.231   3.644  12.291 -0.1627  0.6234  0.6578
14170TIP3    H164001   3.277   3.714  12.336 -0.8619  0.5340  1.5450
14170TIP3    H264002   3.274   3.637  12.206 -0.8260  2.9182  0.0578
14171TIP3   OH264003   2.535   3.261  10.786 -0.0400 -0.3261 -0.4575
14171TIP3    H164004   2.443   3.240  10.802  0.6159 -2.3927  1.1596
14171TIP3    H264005   2.573   3.180  10.753  1.4503  0.0854  0.1367
14172TIP3   OH264006   4.954   6.737   1.544  0.1057 -0.6076  0.1936
14172TIP3    H164007   4.989   6.818   1.582  2.3867 -1.5932  0.3811
14172TIP3    H264008   4.888   6.766   1.482  0.3865  1.3508  0.7373
14173TIP3   OH264009   4.595   6.478   1.774  0.4150 -0.2646 -0.1510
14173TIP3    H164010   4.630   6.415   1.837  0.7192  0.1587  0.1135
14173TIP3    H264011   4.588   6.560   1.824  0.6209  0.0672 -0.6571
14174TIP3   OH264012   5.937   0.536  15.913  0.3960 -0.1377 -0.0003
14174TIP3    H164013   5.877   0.558  15.841  1.2945 -1.5031 -1.2290
14174TIP3    H264014   5.900   0.458  15.953  0.4873 -0.0368  0.2816
14175TIP3   OH264015   3.932   2.631  16.812  0.3919  0.5190 -0.4531
14175TIP3    H164016   3.930   2.540  16.785 -0.8699  1.2422 -3.0646
14175TIP3    H264017   3.845   2.647  16.849 -0.3838  1.3015 -2.5085
14176TIP3   OH264018   2.324   0.123  12.343  0.2653 -0.2477 -0.1789
14176TIP3    H164019   2.360   0.077  12.267  0.7097  0.5478 -0.4585
14176TIP3    H264020   2.385   0.195  12.359  0.7290 -0.9606  1.5452
14177TIP3   OH264021   5.268   4.507  13.224 -0.6253  0.5812 -0.4447
14177TIP3    H164022   5.355   4.544  13.214 -0.2078 -0.3841 -0.4432
14177TIP3    H264023   5.240   4.486  13.135  0.0349 -1.0888 -0.2865
14178TIP3   OH264024   3.578   4.089  11.007  0.4979  0.1832 -0.0912
14178TIP3    H164025   3.653   4.030  11.015  0.1970 -0.5785 -2.0774
14178TIP3    H264026   3.504   4.030  10.989  0.0807  1.0900 -1.5097
14179TIP3   OH264027   1.973   3.901  14.238  0.2129 -0.4325 -0.5103
14179TIP3    H164028   1.946   3.854  14.317 -1.6955  2.7984  0.9658
14179TIP3    H264029   1.943   3.845  14.166 -0.6124 -2.1468  1.0686
14180TIP3   OH264030   0.907   3.466   5.783 -0.2665  0.2706  0.3796
14180TIP3    H164031   0.845   3.539   5.782  0.2129  0.7056  1.2121
14180TIP3    H264032   0.857   3.392   5.815 -1.5202 -0.5376 -3.0378
14181TIP3   OH264033   5.568   4.196   5.147 -0.1484 -0.5305  0.0949
14181TIP3    H164034   5.542   4.249   5.223  0.7919 -0.0240  0.0749
14181TIP3    H264035   5.486   4.161   5.113 -0.7917  0.9278  0.1022
14182TIP3   OH264036   5.409   3.260  11.595  0.2491 -0.7066 -0.4244
14182TIP3    H164037   5.373   3.348  11.603  0.3260 -0.7505  0.6057
14182TIP3    H264038   5.335   3.202  11.613  0.3744 -0.8281 -0.2857
14183TIP3   OH264039   1.184   1.210  16.722 -0.4852  0.1833 -0.2156
14183TIP3    H164040   1.216   1.139  16.667  1.1436  0.0485  0.8418
14183TIP3    H264041   1.106   1.175  16.764  0.5017 -1.1337  0.5722
14184TIP3   OH264042   4.351   5.746   1.591  0.1384  0.2613 -0.0556
14184TIP3    H164043   4.325   5.691   1.518 -0.9299  0.0633  0.4560
14184TIP3    H264044   4.415   5.806   1.554  1.0765 -1.0784 -0.7071
14185TIP3   OH264045   1.493   4.725  10.600 -0.2269  0.2525 -0.1909
14185TIP3    H164046   1.449   4.755  10.521  0.8585 -0.8359 -1.2670
14185TIP3    H264047   1.515   4.805  10.647  1.4277  1.1519 -2.3056
14186TIP3   OH264048   2.634   4.445  12.911 -0.5627  0.1438  0.7179
14186TIP3    H164049   2.673   4.512  12.968 -0.8873  1.6488 -0.7645
14186TIP3    H264050   2.701   4.428  12.845 -1.3198  0.6946 -0.2177
14187TIP3   OH264051   3.947   5.813  16.814 -0.5208  0.4560 -0.2241
14187TIP3    H164052   3.968   5.763  16.893  0.0931  1.4667  0.2794
14187TIP3    H264053   4.000   5.892  16.821  1.2794 -0.3935 -2.7691
14188TIP3   OH264054   2.309   0.089  11.327  0.4523  0.1191 -0.3484
14188TIP3    H164055   2.243   0.020  11.327  2.0627 -1.5081  0.7876
14188TIP3    H264056   2.284   0.146  11.400  0.5329 -0.7290  0.3549
14189TIP3   OH264057   5.460   2.915  12.780  0.0528  0.4859 -0.3114
14189TIP3    H164058   5.462   3.008  12.760 -0.3233  0.2514 -1.4658
14189TIP3    H264059   5.493   2.909  12.870  1.3960  1.5985 -0.7048
14190TIP3   OH264060   4.854   1.256   6.533 -0.4947 -0.0676  0.5434
14190TIP3    H164061   4.903   1.251   6.615  1.3505  0.8789 -0.4247
14190TIP3    H264062   4.911   1.213   6.469 -0.9802  0.9218 -0.6017
14191TIP3   OH264063   6.113   2.450   5.092 -0.1005 -0.1212  0.2834
14191TIP3    H164064   6.046   2.418   5.153 -1.8279 -1.0382 -1.9519
14191TIP3    H264065   6.128   2.377   5.033  0.4789  1.1667 -1.2186
14192TIP3   OH264066   0.885   5.714   4.569 -0.2516 -0.4450  0.9201
14192TIP3    H164067   0.874   5.647   4.501  1.5912  0.3235 -0.1935
14192TIP3    H264068   0.933   5.670   4.639 -0.0329 -0.5965  0.6768
14193TIP3   OH264069   5.396   0.565  11.963 -0.0237 -0.2210 -0.4106
14193TIP3    H164070   5.378   0.483  12.008 -0.1412  0.0690  0.0778
14193TIP3    H264071   5.438   0.620  12.029 -1.7464  0.8163 -0.1154
14194TIP3   OH264072   0.547   0.980  12.021  0.0585 -0.4023 -0.0279
14194TIP3    H164073   0.499   1.020  12.094  0.2199  0.0628 -0.1696
14194TIP3    H264074   0.568   1.054  11.964  0.6150 -0.6589 -0.1535
14195TIP3   OH264075   0.218   2.864  11.522  0.1417  0.2572  0.0197
14195TIP3    H164076   0.220   2.779  11.567  1.4499  0.2497 -0.0346
14195TIP3    H264077   0.238   2.843  11.431 -2.1323  0.3191 -0.5498
14196TIP3   OH264078   2.441   0.539  14.181 -0.2289  0.3096 -0.1086
14196TIP3    H164079   2.391   0.621  14.187 -0.6187 -0.0199  2.0224
14196TIP3    H264080   2.532   0.567  14.177 -0.3918  0.8586 -0.1938
14197TIP3   OH264081   3.300   2.187  15.224 -0.0537  0.3119  0.0474
14197TIP3    H164082   3.226   2.132  15.248 -0.4738  0.6640 -0.3939
14197TIP3    H264083   3.372   2.157  15.278  0.3068 -2.0645 -1.5829
14198TIP3   OH264084   0.599   1.716  13.190 -0.3273  0.2153 -0.2264
14198TIP3    H164085   0.637   1.729  13.104 -1.2573 -0.9032 -0.8379
14198TIP3    H264086   0.505   1.725  13.176 -0.4624  0.4615  0.7595
14199TIP3   OH264087   4.172   4.111   6.131 -0.7988  0.3380 -0.0255
14199TIP3    H164088   4.214   4.175   6.074 -0.7000  0.2836 -0.0135
14199TIP3    H264089   4.168   4.155   6.217  0.4249 -0.1477  0.3010
14200TIP3   OH264090   2.350   0.851   1.295  0.8742  0.3020  0.2851
14200TIP3    H164091   2.341   0.880   1.386  1.2542  1.6024 -0.0640
14200TIP3    H264092   2.278   0.896   1.250  1.0108  0.0805 -0.1529
14201TIP3   OH264093   4.220   2.568  15.525  0.3806  0.1213 -0.0256
14201TIP3    H164094   4.263   2.556  15.440 -0.5826  2.1378 -0.8720
14201TIP3    H264095   4.171   2.487  15.538 -0.5852  0.3058 -2.1093
14202TIP3   OH264096   3.189   2.676   2.514 -0.1819 -0.2514  0.2757
14202TIP3    H164097   3.270   2.726   2.509 -1.3230  1.6107 -0.5604
14202TIP3    H264098   3.189   2.622   2.434  0.6685 -1.0432  0.7836
14203TIP3   OH264099   2.131   3.246  12.850  0.0375 -0.1682 -0.7784
14203TIP3    H164100   2.051   3.219  12.895  0.2598 -1.2327 -0.9993
14203TIP3    H264101   2.193   3.175  12.866  1.4018  1.2526  0.5218
14204TIP3   OH264102   4.193   4.159  12.824 -0.2429 -0.0861  0.1411
14204TIP3    H164103   4.210   4.250  12.852  2.5549 -0.6145  0.5196
14204TIP3    H264104   4.235   4.153  12.738  0.3077 -1.1880  0.4658
14205TIP3   OH264105   3.846   1.092  13.625 -0.0252  0.1402  0.2980
14205TIP3    H164106   3.902   1.104  13.548  0.3998  0.9816  0.7297
14205TIP3    H264107   3.847   0.998  13.640  0.1694 -0.0006 -0.5116
14206TIP3   OH264108   6.096   3.279  14.450 -0.2832 -0.1606  0.4136
14206TIP3    H164109   6.079   3.185  14.443  1.9741 -0.6675  1.1536
14206TIP3    H264110   6.087   3.299  14.543  1.3611 -0.1196  0.5848
14207TIP3   OH264111   0.675   0.835   0.196 -0.3528 -0.3525  0.2938
14207TIP3    H164112   0.683   0.927   0.219  2.3535 -0.0828 -1.3132
14207TIP3    H264113   0.757   0.795   0.226 -1.8574 -2.5318  1.8760
14208TIP3   OH264114   5.783   4.098   6.011  0.1580 -0.1112 -0.1331
14208TIP3    H164115   5.829   4.060   5.937 -1.2338 -1.3025 -0.4347
14208TIP3    H264116   5.784   4.030   6.078 -0.3338  0.1947  0.1893
14209TIP3   OH264117   5.083   0.749   5.828 -0.0279  0.0433  0.4201
14209TIP3    H164118   5.075   0.662   5.789  0.6649  0.3268 -0.3823
14209TIP3    H264119   5.014   0.752   5.894 -0.9316 -0.6143 -0.4668
14210TIP3   OH264120   3.550   3.556  11.051 -0.2904 -0.5482 -0.2263
14210TIP3    H164121   3.625   3.545  10.992 -1.0208 -0.2671 -1.2411
14210TIP3    H264122   3.485   3.604  10.999  0.1706  2.5067  1.8131
14211TIP3   OH264123   5.258   1.616   2.813 -0.6124 -0.1243  0.2541
14211TIP3    H164124   5.279   1.648   2.901 -1.6392 -1.6556  1.1092
14211TIP3    H264125   5.291   1.526   2.812 -0.4854 -0.0721 -0.9784
14212TIP3   OH264126   5.654   6.653  14.704 -0.4167  0.1710  0.1869
14212TIP3    H164127   5.698   6.736  14.687  0.1465  0.2868  2.0322
14212TIP3    H264128   5.575   6.677  14.753  0.1935 -0.4081  1.5114
14213TIP3   OH264129   3.748   4.284   0.674  0.8226  0.0321  0.6855
14213TIP3    H164130   3.822   4.306   0.618  1.1876 -0.7043  0.8719
14213TIP3    H264131   3.781   4.216   0.732 -0.0437 -0.4198  0.6623
14214TIP3   OH264132   0.732   1.160  15.322 -0.5018  0.2306 -0.3459
14214TIP3    H164133   0.755   1.231  15.263 -0.7628 -0.0276 -0.7616
14214TIP3    H264134   0.758   1.080  15.277  0.9248  0.0967  0.6382
14215TIP3   OH264135   4.052   6.057  13.784  0.3034 -0.2110 -0.1887
14215TIP3    H164136   4.001   6.107  13.720 -0.3549 -3.1637 -2.1843
14215TIP3    H264137   4.008   6.074  13.868 -0.3718  1.7801 -0.8736
14216TIP3   OH264138   3.217   0.692   2.524 -0.0331 -0.2294  0.1571
14216TIP3    H164139   3.170   0.646   2.454 -1.2991  0.9086  0.2114
14216TIP3    H264140   3.265   0.623   2.570 -0.7303 -1.2807 -0.6329
14217TIP3   OH264141   0.875   4.021  12.271  0.7077  0.0425  0.0310
14217TIP3    H164142   0.959   3.977  12.268  0.0216 -1.3553  0.6946
14217TIP3    H264143   0.814   3.956  12.305 -0.3632  1.4845  1.0259
14218TIP3   OH264144   4.561   0.667   5.247 -0.3799 -0.0352  0.0488
14218TIP3    H164145   4.569   0.597   5.183 -0.8893  0.7789 -0.9379
14218TIP3    H264146   4.599   0.631   5.327 -0.6439 -1.4345 -0.4219
14219TIP3   OH264147   6.463   3.848  11.957 -0.2750 -0.5180 -0.4301
14219TIP3    H164148   6.380   3.800  11.959  0.0924 -1.1446  0.4609
14219TIP3    H264149   6.439   3.936  11.929 -1.5639 -0.0905  1.8227
14220TIP3   OH264150   3.793   1.535   4.090  0.2862 -0.0145  0.4666
14220TIP3    H164151   3.731   1.474   4.051  0.4516 -0.5956  1.0849
14220TIP3    H264152   3.752   1.561   4.173  1.5631 -1.6988  1.7031
14221TIP3   OH264153   3.755   0.190   5.368  0.3135  0.0684  0.1670
14221TIP3    H164154   3.844   0.163   5.388  0.1860 -0.0660  0.5666
14221TIP3    H264155   3.700   0.132   5.421 -0.0072  0.2264  0.0129
14222TIP3   OH264156   1.415   5.252  13.736 -0.1797 -0.4424  0.5540
14222TIP3    H164157   1.350   5.295  13.679  1.1504 -1.1425 -1.6038
14222TIP3    H264158   1.399   5.159  13.725  0.0959 -0.5962  1.3789
14223TIP3   OH264159   4.625   1.945   1.755 -0.3584  0.6296  0.1431
14223TIP3    H164160   4.571   1.954   1.834  1.1969  1.1141  1.1857
14223TIP3    H264161   4.715   1.940   1.787  0.3575  1.3166 -1.6212
14224TIP3   OH264162   3.507   1.784   4.080  0.6715  0.3303  0.0282
14224TIP3    H164163   3.498   1.731   4.001  1.1876  0.3024 -0.0170
14224TIP3    H264164   3.451   1.860   4.066  0.3513  0.0632 -0.1386
14225TIP3   OH264165   6.457   1.340   6.103 -0.5707 -0.3292 -0.1069
14225TIP3    H164166   6.497   1.279   6.040 -1.1957 -1.5848  0.6639
14225TIP3    H264167   6.482   1.305   6.189 -2.9754 -0.9800  0.4033
14226TIP3   OH264168   4.496   2.027   3.267  1.5787 -0.0112 -0.1806
14226TIP3    H164169   4.427   1.961   3.276  2.0549 -0.3627  1.2899
14226TIP3    H264170   4.577   1.975   3.260  2.4455  0.1990  4.8004
14227TIP3   OH264171   5.195   6.716   1.849  0.0499  0.4637  0.2702
14227TIP3    H164172   5.229   6.761   1.772  1.9792 -0.4372  0.5592
14227TIP3    H264173   5.260   6.733   1.917 -1.3556  0.7993  1.5905
14228TIP3   OH264174   6.786   0.179  14.624 -0.4254 -0.1688  0.1756
14228TIP3    H164175   6.798   0.145  14.712 -0.8021 -1.4990 -0.2644
14228TIP3    H264176   6.734   0.112  14.579  1.4736 -0.5396 -1.6430
14229TIP3   OH264177   1.486   0.215   4.862  0.6669 -0.2041  0.1134
14229TIP3    H164178   1.477   0.306   4.889 -2.0460  0.0703 -1.4493
14229TIP3    H264179   1.557   0.215   4.798  0.1536  0.9770 -0.4745
14230TIP3   OH264180   4.640   4.069  12.553  0.0193 -0.2238  1.1349
14230TIP3    H164181   4.643   4.055  12.647  2.7129 -1.6221  0.9153
14230TIP3    H264182   4.624   3.982  12.516 -0.5565  0.2367  0.2611
14231TIP3   OH264183   2.410   0.577  10.980 -0.3228 -0.2677 -0.7721
14231TIP3    H164184   2.465   0.596  10.904 -0.8704 -1.3100 -1.4480
14231TIP3    H264185   2.461   0.516  11.033 -0.8676 -1.4087 -1.5086
14232TIP3   OH264186   3.279   0.470   5.596  0.3049 -0.0031  0.1245
14232TIP3    H164187   3.256   0.548   5.545 -0.5529  0.1488  0.7260
14232TIP3    H264188   3.296   0.403   5.530 -1.1699  0.0875 -0.3799
14233TIP3   OH264189   0.433   2.487  16.540  0.2034  0.2807  0.1719
14233TIP3    H164190   0.349   2.492  16.587 -0.9339  2.6733 -1.8656
14233TIP3    H264191   0.409   2.457  16.452  1.3712  1.4481 -0.5821
14234TIP3   OH264192   5.642   3.495  11.563  0.0362 -0.1764  0.3969
14234TIP3    H164193   5.711   3.524  11.503  0.0282 -0.0412  0.4510
14234TIP3    H264194   5.570   3.557  11.548  0.1192 -0.0017  0.7069
14235TIP3   OH264195   3.513   3.742  14.109 -0.0264 -0.8223 -0.1752
14235TIP3    H164196   3.546   3.808  14.048 -0.8271 -0.4948 -0.2571
14235TIP3    H264197   3.453   3.790  14.166 -2.6111 -1.9393 -1.8223
14236TIP3   OH264198   1.751   2.068   1.900 -0.3754  0.1130  0.4590
14236TIP3    H164199   1.774   2.086   1.809  0.4733  0.5651  0.7532
14236TIP3    H264200   1.810   2.123   1.951 -0.8413 -0.1403  1.2843
14237TIP3   OH264201   4.380   6.754   4.332  0.1971  0.4194  0.1216
14237TIP3    H164202   4.387   6.674   4.383  0.5069  0.6352  0.4258
14237TIP3    H264203   4.292   6.752   4.295 -0.7251  1.1064  2.1230
14238TIP3   OH264204   4.511   4.801   5.059 -0.2146  0.3620  0.1718
14238TIP3    H164205   4.441   4.834   5.002 -0.1351  1.2784  0.6025
14238TIP3    H264206   4.491   4.835   5.146  0.4276  0.1169  0.4254
14239TIP3   OH264207   2.329   3.226  14.408 -0.9304  0.4746 -0.1994
14239TIP3    H164208   2.372   3.204  14.325 -0.7664  1.2894 -0.3419
14239TIP3    H264209   2.273   3.151  14.427 -0.4655 -0.0070 -0.7092
14240TIP3   OH264210   3.937   2.243  13.676 -0.0297  0.2693 -0.3606
14240TIP3    H164211   4.016   2.248  13.729 -0.8000  1.7112  0.7123
14240TIP3    H264212   3.963   2.279  13.591  1.2667 -2.2590 -1.1335
14241TIP3   OH264213   4.643   0.031   6.640  0.0107  0.1319  0.7076
14241TIP3    H164214   4.585   0.090   6.592 -0.8255 -0.6273  0.7465
14241TIP3    H264215   4.722   0.024   6.586  0.1281  1.2796  0.7155
14242TIP3   OH264216   1.205   4.734  12.137 -0.0402 -0.6708  0.4395
14242TIP3    H164217   1.143   4.716  12.208  0.1273  0.3679  0.8711
14242TIP3    H264218   1.278   4.674  12.153  0.9847  0.9706  2.4671
14243TIP3   OH264219   0.536   5.888   2.183  0.1371 -0.6797  0.2767
14243TIP3    H164220   0.521   5.927   2.269  1.4017  0.1106  0.1777
14243TIP3    H264221   0.569   5.800   2.202  3.9931  0.6836  0.8520
14244TIP3   OH264222   6.417   1.100   0.291 -0.0659  0.1218  0.3051
14244TIP3    H164223   6.386   1.183   0.327  0.1219  0.0920  0.5374
14244TIP3    H264224   6.376   1.033   0.345  2.2446  0.1047  2.1795
14245TIP3   OH264225   1.226   0.063   1.535  0.1650 -0.1537 -0.0600
14245TIP3    H164226   1.196   0.120   1.465 -0.4663  1.8755  1.7679
14245TIP3    H264227   1.293   0.008   1.494 -1.5934 -0.5069 -2.7181
14246TIP3   OH264228   0.459   0.486  16.484  0.1091 -0.0103 -0.1809
14246TIP3    H164229   0.389   0.424  16.504  0.2969 -0.4739 -0.9481
14246TIP3    H264230   0.536   0.432  16.468  0.8198  0.5127  1.2503
14247TIP3   OH264231   1.532   0.779  11.471  0.0576 -0.3837  0.1229
14247TIP3    H164232   1.475   0.704  11.488  1.5665 -0.8788  3.9008
14247TIP3    H264233   1.480   0.855  11.494 -0.3880 -0.4757 -0.5362
14248TIP3   OH264234   3.566   4.258   4.445  0.0668 -0.0154 -0.3291
14248TIP3    H164235   3.494   4.243   4.506  0.7629  0.0213  0.5158
14248TIP3    H264236   3.547   4.201   4.370 -0.7779 -0.0845 -0.0626
14249TIP3   OH264237   2.403   1.757  14.275  0.0003 -0.0680 -0.2014
14249TIP3    H164238   2.470   1.750  14.342 -0.3395  0.7564  0.2400
14249TIP3    H264239   2.323   1.727  14.318 -0.4993  1.7666  0.2257
14250TIP3   OH264240   2.925   1.271  12.376  0.0189  0.4198  0.0079
14250TIP3    H164241   2.840   1.306  12.352 -0.3044 -1.0555 -1.1728
14250TIP3    H264242   2.973   1.345  12.414 -1.7672  1.2658  0.6913
14251TIP3   OH264243   0.254   1.852   1.945  0.5150 -0.0740 -0.2950
14251TIP3    H164244   0.309   1.791   1.896  1.3413  0.3126  0.1340
14251TIP3    H264245   0.292   1.938   1.928 -1.2821  0.4992 -1.7798
14252TIP3   OH264246   5.635   6.098  11.626 -0.2858  0.1188  0.4424
14252TIP3    H164247   5.596   6.133  11.546 -1.7398 -0.5003  0.8307
14252TIP3    H264248   5.571   6.033  11.657  0.9643 -0.7763  1.2741
14253TIP3   OH264249   2.684   6.151   1.327 -0.3819  0.0416 -0.8287
14253TIP3    H164250   2.663   6.063   1.358 -0.5017  0.8870  1.7649
14253TIP3    H264251   2.610   6.205   1.356  1.3512  1.5949  1.0373
14254TIP3   OH264252   0.615   6.773   5.257  0.3902  0.0391 -0.1515
14254TIP3    H164253   0.705   6.775   5.290  1.0027 -0.5760 -1.6999
14254TIP3    H264254   0.596   6.863   5.232  1.4072 -0.2053 -1.8950
14255TIP3   OH264255   1.725   5.201   2.371  0.0033  0.9035 -0.1973
14255TIP3    H164256   1.746   5.291   2.396  1.2937  0.2876  1.0841
14255TIP3    H264257   1.722   5.153   2.453 -2.9184  0.1680 -0.6434
14256TIP3   OH264258   4.596   1.799  13.376  0.1239  0.2012  0.2525
14256TIP3    H164259   4.651   1.826  13.450  1.9450 -0.3952 -0.8084
14256TIP3    H264260   4.561   1.714  13.402  0.7488 -0.0030  0.4638
14257TIP3   OH264261   1.430   4.375   2.199  0.4512  0.6171 -0.6183
14257TIP3    H164262   1.407   4.315   2.128 -0.7899  0.8778 -0.4638
14257TIP3    H264263   1.515   4.411   2.174  1.7072 -1.8805 -0.2718
14258TIP3   OH264264   4.858   4.265  12.839  0.2188 -0.2001  0.5499
14258TIP3    H164265   4.793   4.319  12.795  1.0552  0.2438 -0.1768
14258TIP3    H264266   4.846   4.284  12.932 -0.0228  0.6362  0.3588
14259TIP3   OH264267   5.579   5.596  11.341  0.3148  0.6906  0.4199
14259TIP3    H164268   5.658   5.649  11.353  1.0157  0.5756 -2.7068
14259TIP3    H264269   5.600   5.537  11.268 -1.1284 -2.6172  2.4555
14260TIP3   OH264270   4.744   4.300  17.280  0.1643  0.2151 -0.1538
14260TIP3    H164271   4.828   4.280  17.240 -0.6471 -2.6037 -0.6671
14260TIP3    H264272   4.739   4.242  17.356 -2.6028 -2.3506 -2.0369
14261TIP3   OH264273   5.801   4.305   5.009 -0.3159 -0.2250 -0.4284
14261TIP3    H164274   5.845   4.327   5.091  1.2040  1.3158 -1.5839
14261TIP3    H264275   5.722   4.258   5.036  0.2471  0.0431  1.8896
14262TIP3   OH264276   2.203   1.298   6.517 -0.1738 -0.2869  0.4682
14262TIP3    H164277   2.208   1.292   6.422 -0.3819 -0.8896  0.4857
14262TIP3    H264278   2.130   1.358   6.534 -0.7872 -0.9504  0.2427
14263TIP3   OH264279   5.302   0.406  13.264 -0.0202 -0.0809 -0.1582
14263TIP3    H164280   5.231   0.404  13.200  1.2897 -0.1632 -1.6895
14263TIP3    H264281   5.326   0.498  13.270  0.4081 -0.1703 -0.4405
14264TIP3   OH264282   5.234   2.674   3.235  0.5273 -0.1709  1.1030
14264TIP3    H164283   5.238   2.749   3.177  1.9991 -0.5521  0.6573
14264TIP3    H264284   5.141   2.654   3.243  0.2799 -0.9108 -2.1766
14265TIP3   OH264285   1.947   4.849   2.210  0.0945  0.0168 -0.4315
14265TIP3    H164286   1.870   4.809   2.251  0.1069  0.0337 -0.3919
14265TIP3    H264287   1.924   4.941   2.200  0.1759  0.0570 -0.2600
14266TIP3   OH264288   3.510   2.145   3.029  0.4642  0.1578 -0.5188
14266TIP3    H164289   3.586   2.177   3.079 -0.5790  0.7894  0.7329
14266TIP3    H264290   3.486   2.063   3.071  0.8761 -0.4156 -1.3775
14267TIP3   OH264291   5.260   4.711  16.842  0.4049 -0.2675 -0.2577
14267TIP3    H164292   5.209   4.739  16.766  1.1964 -0.3953 -0.8535
14267TIP3    H264293   5.343   4.757  16.833 -0.2767  1.5580  1.7970
14268TIP3   OH264294   4.626   6.805  12.394  0.2983  0.2061 -0.2464
14268TIP3    H164295   4.692   6.777  12.331  0.4909 -0.0868  0.0775
14268TIP3    H264296   4.649   6.757  12.474 -1.4727 -1.4555 -0.6573
14269TIP3   OH264297   2.229   1.684   4.878  0.0247 -0.2343 -0.4590
14269TIP3    H164298   2.135   1.675   4.897 -0.1120  1.5955 -0.0967
14269TIP3    H264299   2.245   1.622   4.807 -0.9053 -2.3740  1.0713
14270TIP3   OH264300   5.591   4.118  11.745  0.4307 -0.1224  0.1564
14270TIP3    H164301   5.502   4.129  11.713 -0.1706  0.3738  1.9040
14270TIP3    H264302   5.646   4.141  11.670 -0.8859 -1.1744 -1.1778
14271TIP3   OH264303   5.874   0.390   1.695 -0.4265 -0.0357  0.1222
14271TIP3    H164304   5.914   0.310   1.729 -1.8723 -0.2492  1.4457
14271TIP3    H264305   5.947   0.443   1.665  0.7175 -1.0006  1.1145
14272TIP3   OH264306   1.882   3.094   4.815  0.2821  0.5908 -0.2207
14272TIP3    H164307   1.922   3.026   4.761 -0.6537 -1.3340  1.3829
14272TIP3    H264308   1.953   3.156   4.833  1.0633  0.2668 -2.0461
14273TIP3   OH264309   4.236   6.582  11.256  0.1734  0.4373  0.0555
14273TIP3    H164310   4.294   6.637  11.309 -1.1936  1.2352  0.7839
14273TIP3    H264311   4.215   6.636  11.180  0.7454 -0.0345 -0.4467
14274TIP3   OH264312   1.547   6.111  13.101  0.2802  0.1592 -0.0555
14274TIP3    H164313   1.615   6.123  13.167  0.0957  0.7639  0.0281
14274TIP3    H264314   1.513   6.023  13.117  0.9575 -0.1033 -0.0229
14275TIP3   OH264315   2.702   3.576  12.845  0.2618 -0.1800 -0.0861
14275TIP3    H164316   2.760   3.502  12.862  0.1597 -0.2678 -0.1120
14275TIP3    H264317   2.627   3.537  12.800  0.9610  0.1970 -1.6421
14276TIP3   OH264318   3.755   4.824   3.438  0.1835 -0.0295  0.2992
14276TIP3    H164319   3.801   4.898   3.479 -0.5657 -0.2781  1.6232
14276TIP3    H264320   3.666   4.855   3.426  0.7511  0.7124 -2.9433
14277TIP3   OH264321   5.811   6.588  12.667  0.1657  0.3133  0.0828
14277TIP3    H164322   5.844   6.583  12.757 -1.4896 -1.0376  0.6803
14277TIP3    H264323   5.744   6.656  12.670  0.3850  0.5430 -0.2300
14278TIP3   OH264324   2.279   2.162   0.234 -0.0721 -0.3895 -0.0753
14278TIP3    H164325   2.347   2.097   0.217 -0.4871 -0.7287 -0.4244
14278TIP3    H264326   2.241   2.181   0.149  0.2148  0.5057 -0.0198
14279TIP3   OH264327   4.696   6.666   4.303 -0.0792 -0.0865  0.0426
14279TIP3    H164328   4.710   6.760   4.293  0.9106 -0.1217  0.9497
14279TIP3    H264329   4.759   6.639   4.369 -0.6146 -1.3282  0.0764
14280TIP3   OH264330   4.010   0.851  12.646 -0.0393 -0.2798 -0.4935
14280TIP3    H164331   4.070   0.851  12.571 -2.4487  2.4523 -2.7010
14280TIP3    H264332   4.044   0.918  12.704  0.1901 -0.2320 -0.6799
14281TIP3   OH264333   2.978   0.553  11.929 -0.5243  0.1895  0.3365
14281TIP3    H164334   2.993   0.620  11.996 -0.1475  0.4763 -0.0209
14281TIP3    H264335   2.892   0.575  11.892 -0.1911  0.7921 -0.1164
14282TIP3   OH264336   1.183   4.315  12.081 -0.4445 -0.3738  0.4625
14282TIP3    H164337   1.100   4.361  12.096 -0.2692  0.3244 -0.6292
14282TIP3    H264338   1.158   4.222  12.079 -0.9643 -0.2749  1.5940
14283TIP3   OH264339   6.494   5.203  14.346  0.2211  0.1785  0.2661
14283TIP3    H164340   6.474   5.202  14.252 -1.3205 -1.2215  0.5657
14283TIP3    H264341   6.518   5.293  14.364 -0.0702  0.6216 -1.3576
14284TIP3   OH264342   0.047   3.123   1.047 -0.3049  0.3653  0.0740
14284TIP3    H164343  -0.004   3.053   1.087 -1.0504  0.2202 -1.0860
14284TIP3    H264344  -0.010   3.160   0.980  0.9602  0.4448 -1.0061
14285TIP3   OH264345   6.556   1.830   6.451 -0.1440 -0.6668  0.3185
14285TIP3    H164346   6.549   1.891   6.377 -0.8959 -0.2384  0.7387
14285TIP3    H264347   6.469   1.830   6.491 -0.3126 -2.4190  0.0186
14286TIP3   OH264348   2.084   1.702  10.846  0.2115  0.0697  0.0970
14286TIP3    H164349   2.162   1.696  10.789 -0.0083 -0.5064 -0.1513
14286TIP3    H264350   2.012   1.672  10.790  0.2906 -2.5820  1.2663
14287TIP3   OH264351   6.057   2.651  13.582 -0.2978  0.6342 -0.3754
14287TIP3    H164352   6.092   2.727  13.535 -0.9901  1.4638  0.3976
14287TIP3    H264353   6.053   2.582  13.517  0.9152  1.0831 -0.9575
14288TIP3   OH264354   2.865   0.148   2.606  0.0006 -0.1252 -0.6554
14288TIP3    H164355   2.938   0.092   2.581 -0.6339 -0.2571 -2.3716
14288TIP3    H264356   2.894   0.193   2.685  1.3193 -1.3182 -0.4311
14289TIP3   OH264357   2.313   2.279  12.133  0.3210 -0.0471 -0.0028
14289TIP3    H164358   2.271   2.194  12.119  0.7180 -0.2035 -0.2680
14289TIP3    H264359   2.256   2.325  12.194 -0.1325 -0.3318 -0.2119
14290TIP3   OH264360   5.548   1.538   2.107 -0.6266  1.0412 -0.1198
14290TIP3    H164361   5.594   1.460   2.076  1.0912  1.8514  0.2719
14290TIP3    H264362   5.546   1.528   2.202 -1.2964  1.0160 -0.1311
14291TIP3   OH264363   2.315   5.759  15.924 -0.0819  0.2285 -0.0986
14291TIP3    H164364   2.339   5.793  15.838 -0.1676  0.9635  0.1604
14291TIP3    H264365   2.389   5.782  15.980 -1.1196  2.0869  0.5987
14292TIP3   OH264366   5.449   6.141   1.612 -0.5771  0.1573  0.4916
14292TIP3    H164367   5.467   6.134   1.518  1.7486 -0.7412  0.9416
14292TIP3    H264368   5.408   6.227   1.621 -1.2550  0.0862 -1.3889
14293TIP3   OH264369   2.710   4.335   4.862 -0.3540  0.1372  0.1619
14293TIP3    H164370   2.731   4.358   4.771  0.4753 -1.3448 -0.0535
14293TIP3    H264371   2.627   4.378   4.879  0.3658  1.9608 -0.6846
14294TIP3   OH264372   4.503   2.501   4.298  0.0802  0.2244 -0.0683
14294TIP3    H164373   4.446   2.442   4.348 -0.9431 -0.9001 -2.3862
14294TIP3    H264374   4.540   2.445   4.229  1.3140  1.7120 -0.6787
14295TIP3   OH264375   4.841   2.695  15.326  0.0082 -0.3181 -0.3272
14295TIP3    H164376   4.748   2.713  15.312 -0.2399 -0.9821  0.4120
14295TIP3    H264377   4.881   2.706  15.240 -0.3358  2.3772 -0.2246
14296TIP3   OH264378   3.008   5.601   0.790  1.3322 -0.2726  0.1605
14296TIP3    H164379   2.959   5.555   0.722  2.6666 -2.2030  0.4283
14296TIP3    H264380   2.957   5.588   0.870  0.4033  0.9358 -0.2091
14297TIP3   OH264381   1.332   3.450   1.175  0.1656  0.5903 -0.5356
14297TIP3    H164382   1.244   3.422   1.197  0.5599  1.2491  2.4239
14297TIP3    H264383   1.389   3.388   1.220  1.1168  1.8010  0.0166
14298TIP3   OH264384   0.629   0.264   6.092 -0.0942  0.0027 -0.5029
14298TIP3    H164385   0.575   0.333   6.131 -0.2305 -0.0400 -0.6178
14298TIP3    H264386   0.596   0.183   6.129  1.8575  0.1455  1.8546
14299TIP3   OH264387   4.871   0.066   6.500 -0.5429 -0.0912 -0.5746
14299TIP3    H164388   4.910   0.014   6.431 -0.7340 -1.2974  0.1970
14299TIP3    H264389   4.943   0.084   6.561 -1.0453 -1.9925  0.6548
14300TIP3   OH264390   6.118   1.476   6.801 -0.2806  0.1505 -0.2770
14300TIP3    H164391   6.107   1.402   6.741 -1.2789  1.4410 -1.7293
14300TIP3    H264392   6.204   1.511   6.781  0.8232 -1.3940  1.3895
14301TIP3   OH264393   3.414   6.139  10.850 -0.1710  0.0127 -0.0697
14301TIP3    H164394   3.503   6.132  10.814 -1.4361  1.6333 -4.0846
14301TIP3    H264395   3.395   6.051  10.883  2.7883 -0.4283  0.8252
14302TIP3   OH264396   3.914   3.977  13.246  0.3000  0.4411  0.2304
14302TIP3    H164397   3.997   3.961  13.202 -0.9845  0.7504 -2.5426
14302TIP3    H264398   3.893   3.895  13.289  1.6871  0.1410  0.3747
14303TIP3   OH264399   2.411   1.131  13.851 -0.0198  0.3355 -0.0481
14303TIP3    H164400   2.329   1.181  13.843 -0.6999 -0.7975 -0.3765
14303TIP3    H264401   2.384   1.039  13.845  1.3151 -0.0526 -0.4543
14304TIP3   OH264402   5.176   1.018  12.653  0.0127 -0.1375 -0.7799
14304TIP3    H164403   5.180   0.927  12.682  0.0690 -0.0121 -0.3907
14304TIP3    H264404   5.253   1.059  12.691 -1.6540  0.8613  1.8461
14305TIP3   OH264405   0.815   6.183  11.811  0.2576 -0.0233 -0.0133
14305TIP3    H164406   0.753   6.207  11.880 -1.0889  1.0646 -1.5530
14305TIP3    H264407   0.796   6.090  11.794 -0.1107 -0.0209  0.3570
14306TIP3   OH264408   1.778   6.773  11.947  0.5123  0.2523  0.1763
14306TIP3    H164409   1.695   6.725  11.954  2.0554 -2.8497 -0.9347
14306TIP3    H264410   1.779   6.806  11.857  0.7664 -0.3063 -0.0279
14307TIP3   OH264411   3.118   0.215   1.413  0.2434 -0.2676 -0.3831
14307TIP3    H164412   3.185   0.175   1.358  1.1296  0.4660  0.1227
14307TIP3    H264413   3.130   0.309   1.401 -2.1249 -0.0734 -1.9494
14308TIP3   OH264414   5.262   5.851   1.167 -0.1420  0.1413 -0.1601
14308TIP3    H164415   5.349   5.813   1.180 -0.3348  0.3963  2.3805
14308TIP3    H264416   5.203   5.793   1.216 -1.1944  0.7463 -0.6814
14309TIP3   OH264417   1.919   0.530   0.529 -0.0608  0.1113 -0.8018
14309TIP3    H164418   1.872   0.477   0.465 -0.2099  0.9286 -1.3835
14309TIP3    H264419   1.912   0.619   0.496 -0.9890  0.6926  0.8571
14310TIP3   OH264420   5.286   5.829   4.278  0.3061  0.4103  0.7966
14310TIP3    H164421   5.335   5.911   4.275 -1.2463  1.4773  2.4071
14310TIP3    H264422   5.195   5.855   4.266 -0.1231 -1.2234  0.2403
14311TIP3   OH264423   1.362   0.725   2.424 -0.2719 -0.3671  0.3775
14311TIP3    H164424   1.426   0.675   2.475 -0.1072  1.8872  2.5763
14311TIP3    H264425   1.415   0.787   2.374 -0.6338  0.5507  1.1104
14312TIP3   OH264426   3.203   5.162  12.554 -1.0490  0.2021 -0.0930
14312TIP3    H164427   3.234   5.073  12.572 -3.8342 -1.1304 -1.3856
14312TIP3    H264428   3.218   5.209  12.636  0.5555 -1.4054  0.6007
14313TIP3   OH264429   4.757   2.513  13.092  0.7174 -0.2140 -0.1418
14313TIP3    H164430   4.729   2.486  13.005 -2.6106  1.6003  0.2058
14313TIP3    H264431   4.689   2.481  13.151 -0.3342  3.4669  0.9624
14314TIP3   OH264432   3.340   5.287  14.051 -0.2161 -0.3754 -0.3740
14314TIP3    H164433   3.302   5.374  14.043 -1.3932 -0.9503 -1.2886
14314TIP3    H264434   3.364   5.279  14.144  1.6434  1.5979 -0.6219
14315TIP3   OH264435   4.002   1.050  11.342 -0.4948 -0.5762 -0.2923
14315TIP3    H164436   3.995   1.092  11.428 -0.2837  1.5728 -1.2626
14315TIP3    H264437   4.027   0.959  11.362 -0.1533 -0.0673  1.8926
14316TIP3   OH264438   3.397   5.218   0.245 -0.0251  0.0303  0.2999
14316TIP3    H164439   3.487   5.214   0.277  0.2317  1.9200 -0.0202
14316TIP3    H264440   3.379   5.131   0.210  1.5750 -0.4602  0.6320
14317TIP3   OH264441   1.735   2.688   1.089 -0.0605  0.1654 -0.1506
14317TIP3    H164442   1.785   2.621   1.136 -0.8149 -0.4555 -0.2033
14317TIP3    H264443   1.690   2.639   1.020 -0.2024  0.8223 -0.5293
14318TIP3   OH264444   2.205   3.250  13.219 -0.6564 -0.1504 -0.3668
14318TIP3    H164445   2.164   3.337  13.224 -1.4998 -0.5695  0.1271
14318TIP3    H264446   2.214   3.233  13.126 -0.5719  0.4208 -0.4695
14319TIP3   OH264447   0.405   1.775   0.227  0.1610  0.4615 -0.5047
14319TIP3    H164448   0.469   1.847   0.222 -0.9992  1.5325 -0.4099
14319TIP3    H264449   0.331   1.812   0.274  0.6513 -1.6956  2.2318
14320TIP3   OH264450   4.570   0.747  15.993  0.5544 -0.0346 -0.2728
14320TIP3    H164451   4.649   0.728  15.942  0.0490 -0.8079 -0.7910
14320TIP3    H264452   4.499   0.704  15.945  0.1438 -1.3546  1.4134
14321TIP3   OH264453   1.617   2.883   2.681  0.2723 -0.2364 -0.2350
14321TIP3    H164454   1.612   2.818   2.751 -2.1636 -0.6106 -0.6616
14321TIP3    H264455   1.525   2.904   2.662  0.9308  2.6518 -0.7447
14322TIP3   OH264456   5.613   1.750  16.354 -0.4301  0.4724  0.1718
14322TIP3    H164457   5.644   1.666  16.387  2.7512  0.5932 -2.0756
14322TIP3    H264458   5.606   1.738  16.260  1.7170  3.0562 -0.4395
14323TIP3   OH264459   5.217   2.921   6.497  0.1109 -0.3400  0.5772
14323TIP3    H164460   5.168   2.979   6.438  0.5055 -0.8828 -0.2956
14323TIP3    H264461   5.303   2.963   6.506  0.5996 -1.0710 -0.5248
14324TIP3   OH264462   3.199   0.689  10.852 -0.8552  0.4358  0.1192
14324TIP3    H164463   3.108   0.672  10.824 -0.7789 -2.6828  1.3367
14324TIP3    H264464   3.252   0.649  10.783 -0.4061  1.3262 -0.0604
14325TIP3   OH264465   0.139   6.648   3.838  0.1310 -0.6702 -0.6151
14325TIP3    H164466   0.074   6.718   3.831  0.1141 -0.5972  0.1994
14325TIP3    H264467   0.104   6.590   3.906 -0.5810 -2.2569 -2.2373
14326TIP3   OH264468   3.342   2.056   0.791 -0.3234 -0.3017 -0.6167
14326TIP3    H164469   3.284   2.104   0.849 -0.5161 -0.4366 -0.6956
14326TIP3    H264470   3.291   2.045   0.710 -0.2747 -0.6202 -0.6057
14327TIP3   OH264471   5.174   3.853  16.739  0.4474 -0.9600  0.2291
14327TIP3    H164472   5.192   3.818  16.652  3.4517  1.0641 -0.1242
14327TIP3    H264473   5.261   3.861  16.780 -0.4866  1.6381  1.9669
14328TIP3   OH264474   5.131   5.908   0.863 -0.4891  0.0541 -0.1978
14328TIP3    H164475   5.104   5.851   0.936  0.7738  0.2098  0.4202
14328TIP3    H264476   5.111   5.996   0.894 -1.2765  0.0360 -0.6384
14329TIP3   OH264477   0.811   3.476   5.264  0.0479 -0.4103  0.2593
14329TIP3    H164478   0.735   3.522   5.299  0.9216  1.2752  0.0490
14329TIP3    H264479   0.776   3.420   5.196 -0.8172  2.1986 -1.6043
14330TIP3   OH264480   5.149   3.570   4.475  0.3168 -0.2597 -0.0185
14330TIP3    H164481   5.145   3.659   4.438 -0.3669 -1.1744 -2.3096
14330TIP3    H264482   5.057   3.542   4.478  0.5992 -1.2208 -0.1720
14331TIP3   OH264483   6.186   2.418  11.661  0.3419  0.4824  0.6471
14331TIP3    H164484   6.191   2.367  11.580  0.4629  0.8787  0.4066
14331TIP3    H264485   6.180   2.352  11.730 -0.3581  0.1461  0.2750
14332TIP3   OH264486   2.603   2.113   0.302  0.6948  0.3436 -0.6239
14332TIP3    H164487   2.689   2.125   0.262  1.0485 -0.1000 -0.0064
14332TIP3    H264488   2.588   2.192   0.353  1.2467 -0.0673  0.1916
14333TIP3   OH264489   1.897   3.822  13.148  0.5408 -0.5894  0.4048
14333TIP3    H164490   1.929   3.889  13.209  2.1131 -2.8288  2.2074
14333TIP3    H264491   1.807   3.806  13.176  0.4940  0.0510  0.6389
14334TIP3   OH264492   4.929   3.433   6.184 -0.4536  0.0909 -0.6028
14334TIP3    H164493   4.949   3.479   6.266 -1.1111  0.7953 -0.8270
14334TIP3    H264494   4.919   3.342   6.211  2.6817 -0.3304 -0.4163
14335TIP3   OH264495   1.632   2.406   3.417  0.2437 -0.1472  0.0169
14335TIP3    H164496   1.707   2.349   3.434  1.1548  0.5243 -1.4856
14335TIP3    H264497   1.582   2.360   3.350  0.4200  0.3313 -0.4474
14336TIP3   OH264498   4.224   1.175   3.209 -0.1036  0.1301 -0.3185
14336TIP3    H164499   4.269   1.218   3.136 -1.8438  0.6324 -1.1403
14336TIP3    H264500   4.292   1.164   3.275  1.2165  0.8886 -1.4791
14337TIP3   OH264501   1.770   2.282  11.940 -0.0358  0.4075 -0.2327
14337TIP3    H164502   1.695   2.340  11.951  0.3080  0.5763  1.4349
14337TIP3    H264503   1.840   2.338  11.906  0.6386  1.3133  2.4280
14338TIP3   OH264504   1.054   3.785   3.698 -0.1329  0.6841  0.1134
14338TIP3    H164505   1.099   3.701   3.688  3.1098  2.4404 -1.4407
14338TIP3    H264506   0.962   3.761   3.705  0.6865 -3.0330  0.6975
14339TIP3   OH264507   6.385   0.828   1.953 -0.3962  0.1516  0.0807
14339TIP3    H164508   6.365   0.910   1.997  1.9606  0.8317  0.0582
14339TIP3    H264509   6.480   0.816   1.967 -0.2445 -1.3914 -1.8287
14340TIP3   OH264510   0.438   3.498   3.593 -0.0293 -0.0415  0.9845
14340TIP3    H164511   0.394   3.496   3.678 -0.3036  0.6105  0.8653
14340TIP3    H264512   0.374   3.459   3.533 -0.8590  1.7108  0.6472
14341TIP3   OH264513   6.084   4.418   5.501 -0.1668 -0.0383 -0.2898
14341TIP3    H164514   6.040   4.339   5.472 -1.0707  0.4560 -0.2991
14341TIP3    H264515   6.100   4.404   5.594  2.0928 -1.3253 -0.8060
14342TIP3   OH264516   3.108   5.743  11.583 -0.1697 -0.6583  0.0363
14342TIP3    H164517   3.202   5.734  11.601 -0.3676 -1.4343  0.7244
14342TIP3    H264518   3.087   5.670  11.525 -0.2698 -0.2507 -0.4444
14343TIP3   OH264519   4.391   5.739   6.156  0.0962  0.9214  0.4892
14343TIP3    H164520   4.428   5.653   6.135 -1.9889  0.0810  0.0367
14343TIP3    H264521   4.349   5.727   6.241 -1.7146  0.9591 -0.3623
14344TIP3   OH264522   6.779   0.024  12.803  0.4486 -0.3084  0.2819
14344TIP3    H164523   6.808   0.098  12.750 -2.1046 -0.5520 -1.6297
14344TIP3    H264524   6.847   0.014  12.870  1.7642  2.5768 -0.4961
14345TIP3   OH264525   1.894   3.566  12.644 -0.3363  0.1934 -0.0143
14345TIP3    H164526   1.872   3.644  12.594  0.7994 -1.4781 -3.4885
14345TIP3    H264527   1.810   3.522  12.658 -0.7323  0.9192 -0.0941
14346TIP3   OH264528   5.311   5.523  13.798 -0.2609  0.6183 -0.2518
14346TIP3    H164529   5.333   5.539  13.890  0.4763  1.7664 -0.6066
14346TIP3    H264530   5.361   5.445  13.774  1.1518  1.4760 -0.2134
14347TIP3   OH264531   5.695   0.104  13.178 -0.3024 -0.2049 -0.4729
14347TIP3    H164532   5.731   0.135  13.262 -1.1058  1.5102 -0.7194
14347TIP3    H264533   5.733   0.163  13.113 -0.8752 -0.5597 -1.1428
14348TIP3   OH264534   1.652   0.392  11.739 -0.3720  0.3447 -0.5976
14348TIP3    H164535   1.742   0.370  11.762 -0.1829  1.2031 -0.4674
14348TIP3    H264536   1.658   0.431  11.652 -0.4685  1.3385 -0.1774
14349TIP3   OH264537   2.617   2.669   0.599 -0.2979  0.4529 -0.4721
14349TIP3    H164538   2.556   2.595   0.611 -0.7287  0.8908  0.0950
14349TIP3    H264539   2.562   2.739   0.563  0.5815 -0.2248 -3.4152
14350TIP3   OH264540   2.233   3.245  14.115  0.2638 -0.6095  0.5485
14350TIP3    H164541   2.297   3.182  14.083 -0.7287 -1.0981 -0.5800
14350TIP3    H264542   2.284   3.322  14.139  1.4112 -1.5632  1.2245
14351TIP3   OH264543   1.827   6.377   1.071  0.1259  0.1712  0.5807
14351TIP3    H164544   1.747   6.384   1.123 -1.1901  1.7044 -1.5028
14351TIP3    H264545   1.834   6.462   1.027  1.0012 -1.1160 -1.9249
14352TIP3   OH264546   4.462   1.690   6.251  0.4457  0.8119 -0.0667
14352TIP3    H164547   4.488   1.717   6.163  1.7457  0.5679  0.2262
14352TIP3    H264548   4.442   1.771   6.297  1.4698  1.0728 -0.0694
14353TIP3   OH264549   0.044   2.601  12.434  0.3359  0.8953 -0.4541
14353TIP3    H164550  -0.032   2.576  12.486  0.3059 -0.1947 -0.9967
14353TIP3    H264551   0.117   2.555  12.473  0.2969 -0.0144 -1.3968
14354TIP3   OH264552   1.353   3.611   2.451 -0.0624 -0.3672  0.7652
14354TIP3    H164553   1.422   3.546   2.439 -0.8923 -0.9246 -1.4265
14354TIP3    H264554   1.278   3.562   2.484 -0.2879 -0.2898  0.3726
14355TIP3   OH264555   5.739   1.360   4.779 -0.5716 -0.1212 -0.0760
14355TIP3    H164556   5.769   1.446   4.810  1.0515 -0.6836 -0.0108
14355TIP3    H264557   5.762   1.359   4.686 -1.0703 -0.2946 -0.2014
14356TIP3   OH264558   2.609   5.338   5.926 -0.0417  0.0397 -0.4711
14356TIP3    H164559   2.678   5.403   5.928  2.4380 -2.3935  1.6824
14356TIP3    H264560   2.541   5.373   5.983  1.4791  0.5678  1.1053
14357TIP3   OH264561   1.634   3.399   2.845  0.5355  0.3204  0.1848
14357TIP3    H164562   1.714   3.451   2.854  1.2592 -0.8575  0.8916
14357TIP3    H264563   1.564   3.458   2.871  1.1223  1.4804 -0.7389
14358TIP3   OH264564   0.694   0.026  11.714  0.0747 -0.1906 -0.1657
14358TIP3    H164565   0.678  -0.067  11.727 -1.2037 -0.3362 -2.3000
14358TIP3    H264566   0.752   0.031  11.638  1.0126  0.7491  0.5778
14359TIP3   OH264567   4.970   3.717   4.198 -0.3663  0.5640  0.2148
14359TIP3    H164568   4.917   3.660   4.144 -1.8175  1.0681  1.0584
14359TIP3    H264569   4.971   3.801   4.152 -2.5362  1.3285  1.4240
14360TIP3   OH264570   3.676   6.743  11.125  0.6344 -0.6401  0.2037
14360TIP3    H164571   3.612   6.814  11.117 -1.0139 -2.0784  0.1255
14360TIP3    H264572   3.719   6.740  11.039 -0.8106 -1.0884 -0.5505
14361TIP3   OH264573   3.733   2.904   2.949  0.1181  0.5072  0.0768
14361TIP3    H164574   3.656   2.951   2.983 -2.6377 -1.6646 -2.6046
14361TIP3    H264575   3.732   2.820   2.996  0.6157  0.3231 -0.2357
14362TIP3   OH264576   3.564   5.744   3.948  0.4317  0.5094 -0.1713
14362TIP3    H164577   3.566   5.663   3.898 -0.5936 -0.2210  0.8998
14362TIP3    H264578   3.576   5.814   3.883 -0.4804 -0.4116 -1.3640
14363TIP3   OH264579   5.992   0.198   3.733 -0.6166  0.2137 -0.0835
14363TIP3    H164580   5.998   0.163   3.822 -2.1945  2.2409  0.9032
14363TIP3    H264581   5.993   0.293   3.744 -0.0546  0.5168 -2.3235
14364TIP3   OH264582   5.511   1.395  14.883  0.2296  1.0549 -0.2889
14364TIP3    H164583   5.507   1.304  14.854 -0.5792  1.5059 -1.6770
14364TIP3    H264584   5.592   1.401  14.934  0.9487 -0.1380 -1.2452
14365TIP3   OH264585   3.749   6.579  12.048  0.0547  0.0390 -0.4323
14365TIP3    H164586   3.759   6.536  11.963 -2.1295 -0.0462 -0.7080
14365TIP3    H264587   3.820   6.543  12.101  0.4723 -1.1597 -1.7385
14366TIP3   OH264588   6.279   3.379  12.885  0.4305 -0.9189 -0.7806
14366TIP3    H164589   6.373   3.386  12.872  0.4061 -2.0394 -1.7961
14366TIP3    H264590   6.241   3.431  12.814  0.3065 -2.3471 -1.8076
14367TIP3   OH264591   6.752   6.406  17.278  0.3593  0.3576 -0.2491
14367TIP3    H164592   6.662   6.411  17.312  1.3651  2.6674  2.4352
14367TIP3    H264593   6.772   6.312  17.281 -1.2355 -0.0052  1.2712
14368TIP3   OH264594   1.052   1.919  14.720  0.0953  0.2406 -0.3332
14368TIP3    H164595   0.986   1.850  14.707 -1.1747  1.2928  0.3361
14368TIP3    H264596   1.050   1.936  14.814 -0.3703  1.8982 -0.6123
14369TIP3   OH264597   5.449   3.180  15.729  0.4266  0.1003 -0.3899
14369TIP3    H164598   5.491   3.114  15.784  0.6707 -0.6008 -1.4084
14369TIP3    H264599   5.461   3.262  15.778  3.1537 -0.0352 -0.6983
14370TIP3   OH264600   2.211   1.293   1.362  0.7241 -0.3721  0.5765
14370TIP3    H164601   2.161   1.368   1.329 -0.3047 -0.8118  1.0989
14370TIP3    H264602   2.206   1.301   1.457  0.0832 -1.4385  0.6418
14371TIP3   OH264603   2.419   5.198   0.995 -0.4128  0.2471 -0.2247
14371TIP3    H164604   2.438   5.138   0.923  0.4575  0.5924 -0.2967
14371TIP3    H264605   2.323   5.204   0.996 -0.4352  0.5530 -1.6171
14372TIP3   OH264606   5.866   2.022   1.713 -0.0140 -0.3123  0.2721
14372TIP3    H164607   5.845   2.089   1.778  1.7580  1.1736 -0.5884
14372TIP3    H264608   5.784   2.008   1.665 -0.5766  0.7901  0.8743
14373TIP3   OH264609   5.406   0.846  16.844  0.0076 -0.2853  0.2929
14373TIP3    H164610   5.331   0.862  16.788 -0.5934 -0.6939  0.9583
14373TIP3    H264611   5.404   0.916  16.909  0.7823  0.2697 -0.2615
14374TIP3   OH264612   3.052   4.478   2.605  0.1406  0.3609 -0.4802
14374TIP3    H164613   3.033   4.443   2.518  0.4959 -2.0720  0.3476
14374TIP3    H264614   2.966   4.490   2.645 -0.0489  1.9449 -1.2821
14375TIP3   OH264615   2.346   1.822   2.158 -0.3618 -0.3693 -0.6974
14375TIP3    H164616   2.358   1.852   2.068  0.2060  1.2412 -0.1243
14375TIP3    H264617   2.401   1.744   2.164 -1.6590 -1.4593 -2.1647
14376TIP3   OH264618   0.300   0.266   1.253 -0.1322  0.1939 -0.2790
14376TIP3    H164619   0.357   0.333   1.292 -1.0155 -0.2930  2.0025
14376TIP3    H264620   0.356   0.188   1.249  1.4273  1.2904 -4.4553
14377TIP3   OH264621   2.485   1.326   6.392  0.4481 -0.6887  0.0818
14377TIP3    H164622   2.448   1.294   6.474 -1.2648  1.1278  0.0877
14377TIP3    H264623   2.544   1.397   6.418  2.3218 -2.0998 -0.0995
14378TIP3   OH264624   5.574   6.488  11.476 -0.1472 -0.4670 -0.2556
14378TIP3    H164625   5.593   6.397  11.454 -3.0351 -0.9487 -1.2738
14378TIP3    H264626   5.594   6.537  11.396  1.9386 -0.0588  0.4697
14379TIP3   OH264627   0.190   0.117   5.684 -0.1269  0.2571 -0.3462
14379TIP3    H164628   0.255   0.112   5.754  0.8764  0.5982 -1.2263
14379TIP3    H264629   0.127   0.048   5.705 -1.5578  2.2167  2.5386
14380TIP3   OH264630   3.119   3.566  16.140 -0.0762  0.6003 -0.0042
14380TIP3    H164631   3.123   3.470  16.143 -2.0216  0.5071  2.3628
14380TIP3    H264632   3.025   3.585  16.144  0.0691  2.6469 -2.9489
14381TIP3   OH264633   6.286   4.696  14.933  0.1346 -0.1450  0.5843
14381TIP3    H164634   6.194   4.670  14.933 -0.9711  2.6917 -4.0733
14381TIP3    H264635   6.325   4.647  14.861  1.6491  0.4973  0.9310
14382TIP3   OH264636   4.074   4.418  14.536  0.2189  0.1560  0.4460
14382TIP3    H164637   4.024   4.419  14.618 -1.4968  1.3824 -0.5443
14382TIP3    H264638   4.118   4.503  14.533 -1.3708  1.0057 -0.7776
14383TIP3   OH264639   4.708   4.108   2.286  0.1320 -0.3142  0.7897
14383TIP3    H164640   4.707   4.203   2.270  0.4615 -0.4787 -0.2739
14383TIP3    H264641   4.655   4.097   2.365 -1.7376  0.5695 -0.2554
14384TIP3   OH264642   5.626   2.318   5.784  0.5464 -0.1251 -0.3957
14384TIP3    H164643   5.680   2.396   5.797  0.0864  0.0962  0.2472
14384TIP3    H264644   5.629   2.273   5.868 -1.2980  0.5548  0.0680
14385TIP3   OH264645   4.992   5.552  17.249  0.1420  0.1061  0.5221
14385TIP3    H164646   4.953   5.639  17.255  1.7826  0.8060  1.8501
14385TIP3    H264647   5.038   5.551  17.165 -0.3835  0.2950  0.2339
14386TIP3   OH264648   0.181   3.292   4.764  0.1573 -0.1549 -0.6248
14386TIP3    H164649   0.157   3.247   4.682  0.5720  1.4792 -1.6945
14386TIP3    H264650   0.211   3.379   4.736  1.3024  0.0923  1.1947
14387TIP3   OH264651   4.594   5.057  13.944 -0.1302 -0.1723 -0.4582
14387TIP3    H164652   4.630   5.062  13.856 -0.3707  1.1178 -0.5097
14387TIP3    H264653   4.558   4.969  13.951  1.5490 -0.9464 -0.9754
14388TIP3   OH264654   4.240   3.718   0.666 -0.4358  0.2208 -0.5914
14388TIP3    H164655   4.258   3.633   0.627 -0.6981 -0.8139  1.3878
14388TIP3    H264656   4.316   3.735   0.722 -0.8661  0.7929 -0.1709
14389TIP3   OH264657   5.283   1.906   6.165  0.7254 -0.0441  0.5713
14389TIP3    H164658   5.291   1.858   6.247  0.2404 -0.8675  0.1438
14389TIP3    H264659   5.293   1.998   6.190  1.4999 -0.3511  1.4140
14390TIP3   OH264660   6.042   5.516  12.933 -0.1277  0.2527  0.1079
14390TIP3    H164661   6.043   5.420  12.928 -0.5905  0.3170 -2.5874
14390TIP3    H264662   6.127   5.539  12.972  0.3726 -1.2307 -0.0434
14391TIP3   OH264663   2.480   6.040   2.534  0.3798 -0.0929  0.3303
14391TIP3    H164664   2.547   5.994   2.585 -1.0508 -1.8785  0.7056
14391TIP3    H264665   2.427   6.085   2.600  0.2111 -0.0542  0.1673
14392TIP3   OH264666   3.080   6.186   4.085 -0.3504 -0.1284 -0.1232
14392TIP3    H164667   2.992   6.149   4.077 -0.3914 -0.4990  1.5586
14392TIP3    H264668   3.075   6.270   4.040 -2.1804  0.8041  1.6314
14393TIP3   OH264669   4.285   2.150  14.907 -0.2818 -0.3581  0.4247
14393TIP3    H164670   4.254   2.230  14.864  0.4741 -0.5947 -0.5965
14393TIP3    H264671   4.205   2.101  14.928 -0.6686 -0.3368 -0.9279
14394TIP3   OH264672   6.561   2.464  16.352 -0.0948  0.0288  0.4047
14394TIP3    H164673   6.563   2.558  16.334  0.0909 -0.1513 -0.5580
14394TIP3    H264674   6.537   2.423  16.268  2.6896 -0.9672 -0.0303
14395TIP3   OH264675   6.570   4.541   3.737 -0.3448 -0.3007 -0.6748
14395TIP3    H164676   6.647   4.487   3.719  0.4550  1.4313 -2.8078
14395TIP3    H264677   6.497   4.490   3.700  0.3768 -0.0601 -2.5405
14396TIP3   OH264678   5.197   2.490   1.062 -0.5500  0.8737 -1.0887
14396TIP3    H164679   5.180   2.566   1.007 -0.1889  1.9767  0.2598
14396TIP3    H264680   5.116   2.475   1.110  0.0573  1.9075  0.3520
14397TIP3   OH264681   2.002   2.463   5.679  0.3728 -0.4614 -0.1545
14397TIP3    H164682   2.048   2.493   5.601 -0.0667  2.5575  0.6223
14397TIP3    H264683   2.054   2.495   5.752 -1.1652  0.1067  0.7459
14398TIP3   OH264684   2.818   2.488  14.711  0.2574 -0.4581 -0.1014
14398TIP3    H164685   2.844   2.401  14.680 -0.1839 -0.3395 -0.8293
14398TIP3    H264686   2.881   2.509  14.779 -0.5684 -2.0203  1.2013
14399TIP3   OH264687   6.535   1.794   4.453  0.0119 -0.3520  0.3066
14399TIP3    H164688   6.614   1.845   4.434 -0.4827  0.1899 -0.3672
14399TIP3    H264689   6.540   1.774   4.546  0.2633  0.8601  0.5614
14400TIP3   OH264690   4.246   2.549  15.274 -0.3211  0.0047  0.3243
14400TIP3    H164691   4.154   2.558  15.300 -0.3444  2.0622 -0.3378
14400TIP3    H264692   4.245   2.481  15.206 -1.4239  0.2956  0.0325
14401TIP3   OH264693   6.759   4.019   1.594  0.2664 -0.1167 -0.0888
14401TIP3    H164694   6.789   4.107   1.572 -2.4445  0.6361 -1.2319
14401TIP3    H264695   6.770   4.013   1.689 -1.9057  2.5531  0.4748
14402TIP3   OH264696   3.928   0.487   3.501  0.8211 -0.1527  0.0098
14402TIP3    H164697   3.977   0.561   3.466  1.2072  0.7191  2.2547
14402TIP3    H264698   3.839   0.520   3.512  1.0200  0.0329  1.1210
14403TIP3   OH264699   5.142   1.128   2.192 -0.6252 -0.3720 -0.5926
14403TIP3    H164700   5.164   1.140   2.100 -1.1337 -0.5515 -0.7423
14403TIP3    H264701   5.226   1.133   2.238 -0.2914 -0.8765 -1.1299
14404TIP3   OH264702   3.866   6.473  14.026 -0.4500  0.6069  0.1390
14404TIP3    H164703   3.893   6.462  13.935  0.8528  2.4181  0.2636
14404TIP3    H264704   3.772   6.452  14.025 -0.5686  1.0063 -1.7143
14405TIP3   OH264705   5.503   5.478   1.962  0.6193  0.7906  0.5538
14405TIP3    H164706   5.533   5.508   2.049  1.7132 -0.5569  0.6835
14405TIP3    H264707   5.475   5.388   1.977  0.3138  0.7258 -0.3951
14406TIP3   OH264708   2.912   2.382  13.352  0.0984 -0.4407  0.6727
14406TIP3    H164709   2.995   2.428  13.366 -0.9065  1.5921  0.3666
14406TIP3    H264710   2.887   2.351  13.439  0.6451 -0.1339  0.9501
14407TIP3   OH264711   4.575   5.012   0.173  0.4640 -0.1844  0.8662
14407TIP3    H164712   4.489   5.014   0.215  0.7776 -0.1847  1.5119
14407TIP3    H264713   4.629   5.072   0.225  0.9809 -0.5343  0.7396
14408TIP3   OH264714   6.104   2.751  15.754  0.2248  0.3934 -0.6150
14408TIP3    H164715   6.128   2.836  15.790 -0.8998 -0.4349  2.3615
14408TIP3    H264716   6.068   2.771  15.667 -1.7148  3.1757  0.6926
14409TIP3   OH264717   5.444   0.890  14.225  0.2115  0.2201  0.3173
14409TIP3    H164718   5.413   0.956  14.163 -0.9839  0.5868  1.2540
14409TIP3    H264719   5.412   0.807  14.189  1.2907  0.1792 -0.6038
14410TIP3   OH264720   6.499   1.021  14.993 -0.2930  0.8822  0.1618
14410TIP3    H164721   6.564   1.014  15.063 -1.0143 -0.8308  0.7131
14410TIP3    H264722   6.420   1.053  15.037 -0.7942 -0.3500  0.2071
14411TIP3   OH264723   5.014   4.699   2.830  0.1787  0.0146 -0.3427
14411TIP3    H164724   4.946   4.707   2.764 -1.6203 -0.5986  1.3373
14411TIP3    H264725   4.978   4.742   2.907  2.4339  1.2028  0.1470
14412TIP3   OH264726   0.388   0.888  12.670 -0.0837 -0.0355 -0.0564
14412TIP3    H164727   0.310   0.940  12.650 -0.9451 -0.5968  1.6368
14412TIP3    H264728   0.353   0.807  12.708  1.3078  0.5965  2.8693
14413TIP3   OH264729   6.614   0.932   3.228  0.1022 -0.0563 -0.5259
14413TIP3    H164730   6.634   0.896   3.141 -0.9446  0.6880 -1.0937
14413TIP3    H264731   6.606   1.026   3.214  0.7549  0.1819  0.5585
14414TIP3   OH264732   0.815   2.443   2.859 -0.4880 -0.0465 -0.0575
14414TIP3    H164733   0.808   2.404   2.946  1.0447  1.0398  0.6069
14414TIP3    H264734   0.903   2.419   2.829 -0.5392  0.6023 -0.7724
14415TIP3   OH264735   2.797   1.783  11.211  0.2634  0.1816 -0.3192
14415TIP3    H164736   2.729   1.733  11.165  0.3516 -0.0031 -0.2487
14415TIP3    H264737   2.856   1.812  11.141  0.3787 -0.0701 -0.3282
14416TIP3   OH264738   1.181   3.784   6.051  0.2234 -0.1811 -0.0652
14416TIP3    H164739   1.253   3.804   6.111  0.5919  0.5957 -0.7427
14416TIP3    H264740   1.188   3.850   5.982 -0.6657 -0.5766 -0.5553
14417TIP3   OH264741   3.433   5.189  14.294  0.1849 -0.6790 -0.5369
14417TIP3    H164742   3.457   5.105  14.256  0.9647 -0.3002 -0.9009
14417TIP3    H264743   3.357   5.170  14.349  0.6990 -1.7159 -0.1617
14418TIP3   OH264744   3.968   4.889  15.083 -0.0568 -0.1313 -0.5094
14418TIP3    H164745   3.986   4.969  15.133  0.2651 -0.1961 -0.5216
14418TIP3    H264746   4.041   4.830  15.105  0.4181  0.0554 -1.5322
14419TIP3   OH264747   3.777   0.977  12.765  0.0568 -0.3304  0.2146
14419TIP3    H164748   3.843   1.045  12.773  0.2056 -0.4446 -0.0394
14419TIP3    H264749   3.827   0.895  12.761 -0.0409 -0.3538 -0.9380
14420TIP3   OH264750   4.609   2.074  14.001  0.2783  0.1212  0.6993
14420TIP3    H164751   4.573   2.114  13.922  0.4850 -2.2549 -0.6687
14420TIP3    H264752   4.633   2.149  14.056 -1.2133  1.8268 -0.8363
14421TIP3   OH264753   5.720   5.457   4.712  0.1726  0.2104 -0.4446
14421TIP3    H164754   5.757   5.373   4.684 -0.4282 -0.8121  1.5891
14421TIP3    H264755   5.626   5.440   4.719  0.2426  0.4317  1.7717
14422TIP3   OH264756   5.394   6.366  16.045  0.1869  0.0849  0.3962
14422TIP3    H164757   5.464   6.428  16.069  0.7344 -0.7480  1.0143
14422TIP3    H264758   5.389   6.307  16.120 -0.8900 -0.1363  0.1594
14423TIP3   OH264759   5.138   5.224   6.652  0.1843  0.8874  0.0452
14423TIP3    H164760   5.139   5.129   6.664  2.1182  0.9320  0.4367
14423TIP3    H264761   5.061   5.240   6.596 -1.7252 -0.6091  2.0782
14424TIP3   OH264762   0.466   5.869   3.198  0.4874  0.0177  0.3151
14424TIP3    H164763   0.457   5.964   3.209  3.4251  0.6262 -1.2467
14424TIP3    H264764   0.404   5.846   3.129  1.4717  1.3493 -1.0790
14425TIP3   OH264765   5.081   0.335   3.631  0.3423 -0.4828 -0.5250
14425TIP3    H164766   4.993   0.349   3.597 -0.5874 -0.8562  1.5834
14425TIP3    H264767   5.133   0.313   3.554 -0.9179  1.6984 -2.1210
14426TIP3   OH264768   0.708   5.695  15.987  0.4940  0.1776  0.0645
14426TIP3    H164769   0.645   5.695  16.058 -1.2721 -3.0235 -1.3041
14426TIP3    H264770   0.677   5.763  15.927 -0.2593  0.2411  0.5188
14427TIP3   OH264771   2.131   0.506   3.075 -0.3010  0.0873 -0.4247
14427TIP3    H164772   2.071   0.578   3.058 -0.9994  0.8563  4.0725
14427TIP3    H264773   2.207   0.547   3.116  1.4351 -1.3509 -2.0211
14428TIP3   OH264774   5.014   2.145  13.093 -0.4241 -0.2693  0.3504
14428TIP3    H164775   5.055   2.231  13.085  0.6917 -0.9198 -2.0343
14428TIP3    H264776   5.040   2.113  13.179  0.4742  1.1210  0.6210
14429TIP3   OH264777   1.665   4.211  15.601  0.1136  0.5389 -0.0802
14429TIP3    H164778   1.699   4.281  15.546 -0.9233  0.3217 -1.0255
14429TIP3    H264779   1.635   4.145  15.540 -0.5444  0.0429  0.7643
14430TIP3   OH264780   1.832   1.709   1.574 -0.1165 -0.1319 -0.0396
14430TIP3    H164781   1.911   1.661   1.551  0.3711  0.1157  1.0506
14430TIP3    H264782   1.808   1.757   1.494  0.5755 -0.5541 -0.5045
14431TIP3   OH264783   1.185   5.467   4.460  0.1485 -0.5079 -0.6752
14431TIP3    H164784   1.092   5.446   4.451 -0.6290  1.6016  1.3557
14431TIP3    H264785   1.191   5.560   4.438  1.8124 -0.6378 -0.9048
14432TIP3   OH264786   2.194   4.482   2.348  0.4005  0.1978 -0.8708
14432TIP3    H164787   2.174   4.389   2.349  1.2555 -0.0484  2.1313
14432TIP3    H264788   2.112   4.524   2.374  0.5317  0.1140 -0.3094
14433TIP3   OH264789   5.858   1.369   5.669 -0.0947  0.2352 -0.5296
14433TIP3    H164790   5.920   1.393   5.738  0.9972 -1.8867 -0.6928
14433TIP3    H264791   5.774   1.358   5.714  0.5483 -0.8751  0.4517
14434TIP3   OH264792   6.583   6.027  17.165  0.0003 -0.0221 -0.4055
14434TIP3    H164793   6.671   6.030  17.203  0.6364 -0.1871 -1.7763
14434TIP3    H264794   6.598   6.039  17.071 -1.6091  1.7400 -0.4806
14435TIP3   OH264795   5.392   0.367  14.044  0.6624  0.0339 -0.3193
14435TIP3    H164796   5.297   0.378  14.057  0.8094  0.5276  0.4075
14435TIP3    H264797   5.399   0.301  13.976 -0.2140  0.1073 -0.4996
14436TIP3   OH264798   1.300   4.555  13.337  0.1151 -0.2878  0.4431
14436TIP3    H164799   1.273   4.490  13.272 -1.9449 -0.4177  1.3602
14436TIP3    H264800   1.330   4.504  13.412 -1.4960 -0.2106  1.1610
14437TIP3   OH264801   0.441   5.140   0.097  0.1109  0.0315 -0.1767
14437TIP3    H164802   0.532   5.135   0.125  0.1670 -0.1632 -0.3903
14437TIP3    H264803   0.404   5.055   0.121 -0.6512  0.9183  2.0818
14438TIP3   OH264804   3.415   1.413   5.029  0.6801 -0.3234  0.0891
14438TIP3    H164805   3.328   1.394   4.995  0.6544  0.6966 -0.4530
14438TIP3    H264806   3.400   1.464   5.109  0.7619  1.5034 -1.0116
14439TIP3   OH264807   1.682   4.554  16.969 -0.9528  0.1239 -0.4228
14439TIP3    H164808   1.624   4.532  17.043 -0.7684  1.1648  0.0507
14439TIP3    H264809   1.769   4.559  17.008 -0.4626 -1.6706 -1.1758
14440TIP3   OH264810   2.560   0.016  12.815  0.0722  0.1239  0.1088
14440TIP3    H164811   2.476   0.061  12.810  0.1313  0.2337  0.0979
14440TIP3    H264812   2.589   0.029  12.905  0.1418  0.2030  0.0756
14441TIP3   OH264813   2.341   0.974   4.956  0.2658 -0.0164  0.7012
14441TIP3    H164814   2.254   0.999   4.987 -0.2912 -0.2271 -0.6276
14441TIP3    H264815   2.398   0.983   5.033 -1.1706 -1.2704  1.9777
14442TIP3   OH264816   4.766   5.516   5.919 -0.2145  0.2705  0.1412
14442TIP3    H164817   4.825   5.553   5.985 -0.3198 -0.0106  0.3963
14442TIP3    H264818   4.823   5.494   5.846 -0.2280  1.4756 -0.2564
14443TIP3   OH264819   5.012   3.236  14.723 -0.2221  0.1588  0.6851
14443TIP3    H164820   5.078   3.278  14.668 -2.1332  1.2699 -0.8985
14443TIP3    H264821   4.933   3.235  14.669 -1.8884  0.1585  2.9789
14444TIP3   OH264822   1.435   1.453  16.553 -0.0542 -0.2693  0.1251
14444TIP3    H164823   1.381   1.529  16.533  0.6420  0.6852  1.6433
14444TIP3    H264824   1.497   1.447  16.481 -1.9241 -1.1966 -1.4835
14445TIP3   OH264825   4.545   1.832  14.126 -0.1676  0.0828 -0.3918
14445TIP3    H164826   4.489   1.777  14.072 -1.5036  1.6463 -0.6770
14445TIP3    H264827   4.545   1.917  14.082 -0.5371  1.1441  1.5403
14446TIP3   OH264828   4.077   6.226  12.428  0.5921  0.0528  0.7465
14446TIP3    H164829   4.099   6.298  12.369  0.8830  0.3341  1.1944
14446TIP3    H264830   4.136   6.237  12.503 -1.4129  1.1412  2.2440
14447TIP3   OH264831   2.305   1.392  14.569 -0.0126 -0.4604 -0.2127
14447TIP3    H164832   2.372   1.346  14.620 -0.2230 -1.4271 -0.7900
14447TIP3    H264833   2.232   1.403  14.630  0.6079  0.4815  0.3813
14448TIP3   OH264834   1.719   3.531  13.173  0.0550 -0.5466 -0.0122
14448TIP3    H164835   1.809   3.500  13.184  0.4303 -0.0846 -1.5522
14448TIP3    H264836   1.708   3.596  13.242  1.4752  0.5795 -0.8009
14449TIP3   OH264837   2.318   4.214   5.507  0.1102 -0.6079 -0.1696
14449TIP3    H164838   2.382   4.277   5.541 -0.0327 -1.6495  2.1558
14449TIP3    H264839   2.369   4.153   5.455  1.0236 -1.2479  1.4157
14450TIP3   OH264840   3.294   1.047  13.130 -0.1936 -0.4786 -0.2306
14450TIP3    H164841   3.373   1.001  13.101 -0.4269 -0.7481 -0.4285
14450TIP3    H264842   3.250   0.986  13.189  0.5243  0.2355  1.1077
14451TIP3   OH264843   2.964   6.534  13.854  0.1329 -0.4654 -0.1995
14451TIP3    H164844   3.019   6.487  13.917  0.4040  1.2226  0.8664
14451TIP3    H264845   3.003   6.513  13.769  2.0025  0.0912  0.4631
14452TIP3   OH264846   2.108   1.499   2.160 -0.6886 -0.0131 -0.1795
14452TIP3    H164847   2.176   1.471   2.222 -1.3097  0.7558  0.8782
14452TIP3    H264848   2.036   1.438   2.175 -1.2811  0.8729  0.7079
14453TIP3   OH264849   6.331   6.727  14.285  0.0451  0.1175 -0.4930
14453TIP3    H164850   6.243   6.755  14.260  0.1586  0.6629 -0.3118
14453TIP3    H264851   6.387   6.756  14.212  0.0113 -0.6585 -0.8334
14454TIP3   OH264852   5.255   4.698   4.138  0.5094 -0.7287 -0.0673
14454TIP3    H164853   5.223   4.775   4.185 -1.0665 -1.3345 -0.1000
14454TIP3    H264854   5.240   4.718   4.046 -1.5044 -1.7017 -0.0071
14455TIP3   OH264855   3.041   1.127   3.684  0.0676  0.7158 -0.1695
14455TIP3    H164856   2.998   1.095   3.605  1.9056  0.7726 -1.2360
14455TIP3    H264857   3.108   1.187   3.653 -0.9767  2.9645  1.6146
14456TIP3   OH264858   4.162   5.708  16.100 -0.2314 -0.0226 -0.2154
14456TIP3    H164859   4.247   5.668  16.081 -0.0346  0.7733 -1.1303
14456TIP3    H264860   4.122   5.722  16.014 -1.8995 -1.6086  0.2490
14457TIP3   OH264861   5.480   2.786   3.384 -0.0048  0.0034 -0.1064
14457TIP3    H164862   5.575   2.784   3.398  0.2235  0.7077 -1.3960
14457TIP3    H264863   5.468   2.850   3.313 -1.5005  0.4064  0.4834
14458TIP3   OH264864   0.975   6.737  17.060  0.1914 -0.4314 -0.2424
14458TIP3    H164865   0.969   6.649  17.098 -0.5125 -0.1646  0.2898
14458TIP3    H264866   0.917   6.790  17.114 -1.0838 -0.0991 -1.8485
14459TIP3   OH264867   6.675   4.943  12.766 -0.1530  0.2376 -0.0893
14459TIP3    H164868   6.761   4.983  12.769 -0.0962  0.2008 -1.0528
14459TIP3    H264869   6.667   4.909  12.677 -1.3772  0.7210 -0.1843
14460TIP3   OH264870   1.340   6.658  10.876  0.2245 -0.0603 -0.4785
14460TIP3    H164871   1.394   6.737  10.869 -0.2882  0.6584  2.3670
14460TIP3    H264872   1.400   6.586  10.856  0.8982  0.9382 -2.3405
14461TIP3   OH264873   2.004   0.902  15.245 -0.4212  0.1484  0.6394
14461TIP3    H164874   1.982   0.813  15.217 -0.6000  0.4132 -0.1016
14461TIP3    H264875   1.952   0.959  15.188  2.2820  0.8151 -1.3839
14462TIP3   OH264876   5.215   1.027   4.827 -0.0126  0.1017 -0.2618
14462TIP3    H164877   5.305   1.000   4.806  0.2958 -0.4529  1.6441
14462TIP3    H264878   5.172   0.947   4.859 -1.1613  0.3962 -1.0002
14463TIP3   OH264879   4.945   4.214  17.114 -0.1865 -0.2728  0.4506
14463TIP3    H164880   4.874   4.166  17.072  0.3075  1.0082 -2.0734
14463TIP3    H264881   5.003   4.146  17.149 -2.0301 -1.3385  1.5830
14464TIP3   OH264882   5.552   5.215  16.881 -0.5330 -0.3962  0.3596
14464TIP3    H164883   5.473   5.227  16.828  0.1581 -1.9503 -1.1257
14464TIP3    H264884   5.620   5.263  16.834 -0.1857 -0.6774  0.5706
14465TIP3   OH264885   4.371   5.647  11.042  0.0104  0.4906  0.5768
14465TIP3    H164886   4.385   5.624  11.133 -2.6201 -2.5221  0.3998
14465TIP3    H264887   4.293   5.703  11.042 -0.0701  0.3874  0.1858
14466TIP3   OH264888   5.888   4.297  11.805  0.1995 -0.0242  0.0832
14466TIP3    H164889   5.951   4.368  11.813 -0.6929  0.6077  2.1020
14466TIP3    H264890   5.886   4.256  11.892 -2.3792  0.2065  0.2134
14467TIP3   OH264891   0.300   4.647   0.320 -0.1193 -0.0775  0.4398
14467TIP3    H164892   0.393   4.668   0.326 -0.5011  1.7096  0.4917
14467TIP3    H264893   0.298   4.553   0.301  1.7844  0.2977 -2.2767
14468TIP3   OH264894   2.321   0.062   1.213 -0.4144  0.0245  0.1013
14468TIP3    H164895   2.225   0.061   1.220 -0.3505  0.4499  1.3056
14468TIP3    H264896   2.345   0.152   1.238  0.2698  0.0746 -0.7087
14469TIP3   OH264897   1.203   6.019   5.386  0.2967  0.0858 -0.4420
14469TIP3    H164898   1.228   6.011   5.294  0.2559 -0.6945 -0.3874
14469TIP3    H264899   1.258   5.956   5.432  0.5662  0.7167  0.1253
14470TIP3   OH264900   1.546   6.119   4.209  0.1648  0.0206  1.0420
14470TIP3    H164901   1.599   6.039   4.206 -0.6397 -0.5971  2.1673
14470TIP3    H264902   1.591   6.176   4.271  1.1140  0.7468 -0.2871
14471TIP3   OH264903   5.148   0.807   4.505 -0.2675 -0.1719  0.4892
14471TIP3    H164904   5.173   0.752   4.579  0.6739  0.6137  0.7751
14471TIP3    H264905   5.123   0.890   4.545  1.5141  0.6961 -0.1434
14472TIP3   OH264906   5.136   0.446   0.814  0.4378 -0.5396 -0.7956
14472TIP3    H164907   5.141   0.493   0.730 -0.0375 -0.6151 -0.8658
14472TIP3    H264908   5.219   0.468   0.858  0.6180 -0.3673 -1.2133
14473TIP3   OH264909   5.155   5.942  15.570 -0.4179  0.7230 -0.1214
14473TIP3    H164910   5.231   5.927  15.627  0.0460  0.3544 -0.8186
14473TIP3    H264911   5.080   5.912  15.621  0.1065 -0.6132 -0.0951
14474TIP3   OH264912   3.786   5.845   5.499  0.3798 -0.0016  0.2646
14474TIP3    H164913   3.832   5.928   5.507  0.5145 -0.0271 -0.2010
14474TIP3    H264914   3.731   5.839   5.577  0.8059  0.2542  0.5859
14475TIP3   OH264915   5.461   2.561   0.676  0.4296  0.3372  0.2136
14475TIP3    H164916   5.423   2.614   0.747 -0.6852 -1.6672  1.2116
14475TIP3    H264917   5.392   2.499   0.653  0.8010  0.8445 -2.6317
14476TIP3   OH264918   1.996   5.914  12.957  0.3748  0.2385 -0.0808
14476TIP3    H164919   1.950   5.998  12.959  0.9441  0.6876 -2.3689
14476TIP3    H264920   1.926   5.849  12.948  0.0456  0.8337 -2.4799
14477TIP3   OH264921   2.897   3.078  14.215 -0.3911 -0.3568  0.4212
14477TIP3    H164922   2.814   3.101  14.256 -0.5827 -0.7143  0.2284
14477TIP3    H264923   2.963   3.124  14.268 -0.7860  0.8464 -0.1050
14478TIP3   OH264924   4.659   1.830   3.188  0.1015  0.3012 -0.3421
14478TIP3    H164925   4.604   1.796   3.117 -2.7594  0.2108  1.7329
14478TIP3    H264926   4.694   1.752   3.231  1.6244  0.3518 -1.4009
14479TIP3   OH264927   2.151   4.790  11.176 -0.6786 -0.6166 -0.0180
14479TIP3    H164928   2.234   4.763  11.137 -0.4335  1.1689 -0.8060
14479TIP3    H264929   2.085   4.767  11.112 -0.5845 -0.3611 -0.2085
14480TIP3   OH264930   6.608   3.610  15.624 -0.0723 -1.0214  0.1394
14480TIP3    H164931   6.523   3.587  15.660  0.2230  0.8126  2.2352
14480TIP3    H264932   6.665   3.537  15.647 -0.8452 -1.8343 -0.4724
14481TIP3   OH264933   0.189   4.759  13.359 -0.1099  0.2447 -0.1705
14481TIP3    H164934   0.142   4.764  13.276 -0.6530 -2.2837 -0.1148
14481TIP3    H264935   0.271   4.714  13.337  0.3796  0.8249  0.4310
14482TIP3   OH264936   2.917   4.497  11.914  0.5512 -0.3179  0.8942
14482TIP3    H164937   2.860   4.550  11.971  1.3261  0.4675  0.9738
14482TIP3    H264938   2.857   4.453  11.854 -0.1188  0.9717  0.5674
14483TIP3   OH264939   5.135   5.493  10.764  0.9197 -0.0154 -0.0697
14483TIP3    H164940   5.135   5.455  10.676  0.2750  1.1636 -0.6060
14483TIP3    H264941   5.223   5.477  10.797  1.9147  1.4603 -1.8218
14484TIP3   OH264942   2.052   4.052  14.958  0.2796 -0.1580 -0.3651
14484TIP3    H164943   2.118   4.021  14.896  0.4992  0.2774 -0.3525
14484TIP3    H264944   1.999   4.114  14.908  0.6790  0.4648 -0.0201
14485TIP3   OH264945   5.907   6.654  13.312 -0.0741 -0.2333 -0.1351
14485TIP3    H164946   5.937   6.703  13.236 -2.5285 -0.2024 -1.2087
14485TIP3    H264947   5.960   6.574  13.312  2.7001  1.4705  0.5675
14486TIP3   OH264948   1.228   5.511   1.912 -0.2807 -0.6365 -0.3227
14486TIP3    H164949   1.278   5.584   1.875 -0.4970 -0.7867 -0.9275
14486TIP3    H264950   1.139   5.527   1.882  0.0223 -2.2856 -2.2789
14487TIP3   OH264951   5.486   1.147  16.392  0.5379 -0.5582 -0.0637
14487TIP3    H164952   5.407   1.145  16.339 -0.4521 -0.9708  1.3587
14487TIP3    H264953   5.504   1.240  16.406  0.9705 -0.4406 -1.3134
14488TIP3   OH264954   1.101   5.256  11.921 -0.0854  0.1671 -0.1523
14488TIP3    H164955   1.076   5.313  11.848 -1.9729  0.9473  1.0442
14488TIP3    H264956   1.158   5.310  11.975 -1.2576  0.7044  0.5804
14489TIP3   OH264957   3.645   6.686  14.689 -0.2102  0.3441  0.1737
14489TIP3    H164958   3.559   6.723  14.670 -0.6188 -0.9854 -0.6635
14489TIP3    H264959   3.655   6.696  14.784 -1.4352  0.1795  0.3289
14490TIP3   OH264960   6.749   4.323   3.675 -0.1837 -0.6407  0.1983
14490TIP3    H164961   6.821   4.364   3.628 -1.3179  0.5202 -0.5934
14490TIP3    H264962   6.682   4.308   3.608 -0.7407 -1.5914  0.9331
14491TIP3   OH264963   0.321   0.180   5.987 -0.1883  0.3232 -0.4245
14491TIP3    H164964   0.305   0.090   6.016  1.3082  0.1959  0.0918
14491TIP3    H264965   0.309   0.233   6.066 -0.8056  0.5528 -0.6690
14492TIP3   OH264966   2.794   3.969   4.743 -0.2316 -0.3388  0.1325
14492TIP3    H164967   2.848   4.046   4.759 -1.2272  1.0585 -2.7079
14492TIP3    H264968   2.852   3.907   4.700 -0.2733  0.2394 -0.7795
14493TIP3   OH264969   3.088   6.474   1.131 -0.3405 -0.2260  0.3331
14493TIP3    H164970   3.015   6.438   1.181 -2.1480  2.1314 -0.4179
14493TIP3    H264971   3.056   6.559   1.099  1.4109 -0.7117 -3.1707
14494TIP3   OH264972   3.946   2.317  17.092 -0.3329 -0.3617  0.2236
14494TIP3    H164973   3.957   2.237  17.041 -1.4115 -0.4057  0.0397
14494TIP3    H264974   3.859   2.309  17.131 -1.0338  1.3168 -0.8693
14495TIP3   OH264975   1.973   6.546  12.838 -0.3638  0.5907 -0.3420
14495TIP3    H164976   1.899   6.502  12.879 -0.9611  2.3726  0.6299
14495TIP3    H264977   1.957   6.538  12.744 -1.1201 -0.1377 -0.1583
14496TIP3   OH264978   1.322   6.464  15.928  0.2179  0.5508 -0.1937
14496TIP3    H164979   1.250   6.471  15.990 -0.0401 -0.8581 -0.2965
14496TIP3    H264980   1.301   6.529  15.860 -0.7023  0.4980  0.0205
14497TIP3   OH264981   3.479   1.106  15.833  0.7223  1.1291 -0.4355
14497TIP3    H164982   3.556   1.066  15.875 -1.6235 -2.3381  1.0291
14497TIP3    H264983   3.415   1.116  15.904 -1.8025 -0.6709 -2.2683
14498TIP3   OH264984   3.277   3.388  11.587  0.7395  0.0452 -0.2720
14498TIP3    H164985   3.291   3.482  11.600 -1.0480  0.4131 -0.7852
14498TIP3    H264986   3.184   3.375  11.606  0.5955 -1.3365 -1.7668
14499TIP3   OH264987   1.907   1.085  14.756  0.1406 -0.1766  0.2387
14499TIP3    H164988   1.939   1.149  14.819  1.7848 -0.0893 -0.6235
14499TIP3    H264989   1.967   1.093  14.681  0.1310 -2.3898 -0.0800
14500TIP3   OH264990   0.290   2.170   3.756  0.6271  0.2197  0.0642
14500TIP3    H164991   0.337   2.251   3.775 -0.2463  0.6706  0.3719
14500TIP3    H264992   0.317   2.146   3.667  0.4666  1.1611 -0.2472
14501TIP3   OH264993   3.571   4.751   0.911  0.0894  0.3189  0.0652
14501TIP3    H164994   3.523   4.820   0.865 -2.1747 -0.3514  1.2513
14501TIP3    H264995   3.531   4.670   0.880 -0.1130 -0.2321  1.6830
14502TIP3   OH264996   6.090   0.911   6.024 -0.2005  0.3013  0.2979
14502TIP3    H164997   6.015   0.936   5.970 -0.6815 -0.8826  0.3727
14502TIP3    H264998   6.052   0.860   6.096  0.1642  3.6240  3.0839
14503TIP3   OH264999   4.491   6.507   4.408  0.4773 -0.9697 -0.0245
14503TIP3    H165000   4.559   6.567   4.378  1.3133 -0.8750  1.9185
14503TIP3    H265001   4.538   6.427   4.431 -0.2122 -1.2724  0.3488
14504TIP3   OH265002   3.800   1.811   5.814 -0.4417  0.4339  0.1728
14504TIP3    H165003   3.795   1.870   5.739 -0.8714  0.2352  0.0393
14504TIP3    H265004   3.859   1.855   5.875 -1.1476  1.2599  0.2930
14505TIP3   OH265005   5.227   1.494  12.280  0.1054  0.4929 -0.6823
14505TIP3    H165006   5.232   1.515  12.187 -1.1638 -0.5304 -1.0155
14505TIP3    H265007   5.287   1.419  12.291  0.4082  0.7413 -0.6289
14506TIP3   OH265008   6.410   2.767  12.368  0.2720 -0.2798  0.1759
14506TIP3    H165009   6.430   2.687  12.416  0.3627 -0.0781  0.4765
14506TIP3    H265010   6.392   2.832  12.436 -0.7647 -0.2920 -0.0680
14507TIP3   OH265011   3.338   5.046   3.045 -0.3467  0.1606 -0.8104
14507TIP3    H165012   3.264   5.070   2.990 -1.5559  1.5278  1.2720
14507TIP3    H265013   3.391   5.126   3.049  1.0071 -0.6324 -1.8205
14508TIP3   OH265014   1.261   2.992   3.956 -0.5668  0.6133 -0.4140
14508TIP3    H165015   1.332   2.934   3.984 -1.0557  0.2731  0.1336
14508TIP3    H265016   1.301   3.046   3.888 -0.0363 -0.2077 -0.7832
14509TIP3   OH265017   3.356   0.779  13.241 -0.2175  0.3307 -0.4369
14509TIP3    H165018   3.266   0.792  13.272 -0.9368  0.1853 -2.3190
14509TIP3    H265019   3.350   0.700  13.186  1.0975  0.2494 -0.4780
14510TIP3   OH265020   3.374   3.043  11.886 -0.1733  0.1654 -0.0279
14510TIP3    H165021   3.442   2.976  11.892 -0.1476  0.1055 -0.8557
14510TIP3    H265022   3.292   2.993  11.889 -0.2268  0.2981  1.7906
14511TIP3   OH265023   0.138   4.381  14.645  0.1568 -0.1839 -0.3341
14511TIP3    H165024   0.046   4.373  14.668  0.3258 -0.1848  0.3642
14511TIP3    H265025   0.141   4.452  14.581 -0.4359 -0.7732 -1.0253
14512TIP3   OH265026   4.601   1.947   4.198  0.3343 -0.0101 -0.2263
14512TIP3    H165027   4.660   1.909   4.263  1.2814 -0.5208 -1.3532
14512TIP3    H265028   4.658   1.972   4.125 -0.7514  0.1881 -1.0352
14513TIP3   OH265029   1.662   0.945   0.646  0.0681 -0.2295 -0.1886
14513TIP3    H165030   1.746   0.990   0.637 -0.4432  0.7699 -0.0517
14513TIP3    H265031   1.601   0.998   0.595 -1.3013  1.2879  2.8017
14514TIP3   OH265032   1.941   0.875   0.713 -0.2338 -0.0318 -0.2900
14514TIP3    H165033   1.897   0.790   0.715 -0.5818  0.1594  0.5600
14514TIP3    H265034   2.002   0.868   0.639 -1.7988 -0.2319 -1.6290
14515TIP3   OH265035   6.059   3.348  11.672 -0.1610  0.5079  0.1991
14515TIP3    H165036   5.988   3.325  11.612  1.5642 -0.6923 -1.5037
14515TIP3    H265037   6.069   3.271  11.727 -0.0451  0.6097  0.3199
14516TIP3   OH265038   1.895   0.062  14.241  0.3353 -0.2899 -0.4151
14516TIP3    H165039   1.965   0.058  14.176  1.1565  2.0881  0.2234
14516TIP3    H265040   1.919  -0.005  14.305  1.7278  0.0580 -0.5356
14517TIP3   OH265041   3.327   6.192   3.525 -0.0237 -0.6152 -0.3972
14517TIP3    H165042   3.351   6.284   3.531  1.0591 -0.8232 -1.1085
14517TIP3    H265043   3.311   6.178   3.431 -3.8081 -0.3347  0.0716
14518TIP3   OH265044   3.566   1.476   2.098  0.3597 -0.2193  0.0643
14518TIP3    H165045   3.577   1.381   2.106 -3.6387 -0.7390  1.7725
14518TIP3    H265046   3.612   1.512   2.173  0.2345 -1.0039  0.5243
14519TIP3   OH265047   1.223   5.924   6.503 -0.0774 -0.4894 -0.2734
14519TIP3    H165048   1.136   5.884   6.500 -0.6669  0.3981  2.4597
14519TIP3    H265049   1.210   6.012   6.467 -0.0473 -0.7134 -0.8500
14520TIP3   OH265050   2.625   1.949  14.225  0.6606 -0.1210 -0.4421
14520TIP3    H165051   2.645   2.034  14.265 -0.2269 -0.1642  0.1274
14520TIP3    H265052   2.532   1.935  14.245  0.2751 -0.3067 -2.2460
14521TIP3   OH265053   3.946   3.855   1.802  0.2973  0.0950 -0.0480
14521TIP3    H165054   3.973   3.773   1.843  1.2916  1.0296  1.2738
14521TIP3    H265055   3.939   3.916   1.875 -0.6351  1.1439 -0.9830
14522TIP3   OH265056   0.549   2.173  14.111  0.0076  0.2462  0.4864
14522TIP3    H165057   0.596   2.243  14.065  0.9591 -1.1235 -0.7214
14522TIP3    H265058   0.566   2.190  14.204  2.8677 -0.0885  0.1202
14523TIP3   OH265059   4.204   3.845   1.980  0.1660  0.1676 -0.6226
14523TIP3    H165060   4.135   3.779   1.983 -1.0236  1.3920  1.6745
14523TIP3    H265061   4.276   3.805   2.029 -0.0879  0.0755 -0.3149
14524TIP3   OH265062   2.310   3.329   4.912 -0.3541 -0.4069 -0.2406
14524TIP3    H165063   2.274   3.364   4.994  0.1582  0.5346 -0.4112
14524TIP3    H265064   2.305   3.234   4.924  0.9786 -0.3210  1.4845
14525TIP3   OH265065   3.937   2.220   3.349  0.0237 -0.0575  0.3064
14525TIP3    H165066   3.948   2.203   3.443 -1.4755 -1.2522  0.3050
14525TIP3    H265067   3.937   2.133   3.309 -1.8609  0.2529 -0.4816
14526TIP3   OH265068   0.449   4.125  16.675  0.0798 -0.3012 -0.1180
14526TIP3    H165069   0.505   4.055  16.643  0.7666 -1.4056  3.1135
14526TIP3    H265070   0.369   4.081  16.703 -1.2428  0.8596 -1.8718
14527TIP3   OH265071   4.986   5.590  11.340 -0.0788  0.4795 -0.4020
14527TIP3    H165072   4.914   5.588  11.276 -0.6265 -0.4219  0.2258
14527TIP3    H265073   4.943   5.576  11.424  1.0696 -2.7817 -0.2425
14528TIP3   OH265074   4.844   6.320  16.497  0.5652 -0.2649  0.2223
14528TIP3    H165075   4.805   6.279  16.574 -1.0586 -0.3095 -0.5784
14528TIP3    H265076   4.926   6.359  16.529  1.5487 -2.9767  1.2772
14529TIP3   OH265077   2.145   4.271   1.097  0.2157 -0.0266 -0.1785
14529TIP3    H165078   2.093   4.191   1.086 -0.1519  0.0638  0.8245
14529TIP3    H265079   2.086   4.333   1.139  1.0282  0.1899  0.6779
14530TIP3   OH265080   0.933   3.246  11.508  0.1779  0.1777  0.0752
14530TIP3    H165081   0.955   3.226  11.417 -1.9646 -1.3506 -0.1782
14530TIP3    H265082   0.838   3.259  11.507  0.2569  1.2490  1.9263
14531TIP3   OH265083   5.599   2.978   0.885 -0.2633 -0.2306  0.2095
14531TIP3    H165084   5.565   2.995   0.797  0.4588 -1.2568 -0.2901
14531TIP3    H265085   5.636   3.061   0.914 -0.2805  0.0490 -0.5646
14532TIP3   OH265086   4.584   5.576   5.145  0.5076  0.2437 -0.4844
14532TIP3    H165087   4.517   5.599   5.081  1.3616  0.9137 -1.1833
14532TIP3    H265088   4.537   5.535   5.217 -0.4858 -0.5780 -1.5647
14533TIP3   OH265089   2.792   1.927   1.794  0.1743 -0.3938  0.0269
14533TIP3    H165090   2.806   1.924   1.699  1.0112 -1.2950  0.1653
14533TIP3    H265091   2.835   2.007   1.822  0.1636 -0.2636 -0.3228
14534TIP3   OH265092   4.990   4.101   0.721 -0.1553  0.2881  0.3513
14534TIP3    H165093   4.936   4.068   0.648  2.2052  0.5345 -1.6415
14534TIP3    H265094   5.043   4.026   0.747 -0.3236  0.4566  1.1875
14535TIP3   OH265095   0.433   1.150  13.682 -0.4169  0.0192  0.0938
14535TIP3    H165096   0.384   1.118  13.759 -0.6721  0.5587  0.1607
14535TIP3    H265097   0.523   1.122  13.698 -0.9731 -2.6230 -0.9080
14536TIP3   OH265098   4.350   5.461   2.402  0.0238 -0.2942  0.6529
14536TIP3    H165099   4.294   5.514   2.459  0.6824  0.2131  0.8353
14536TIP3    H265100   4.381   5.522   2.335 -0.5474 -0.8315 -0.1305
14537TIP3   OH265101   5.821   3.181   0.723 -0.3167  0.3655 -0.1617
14537TIP3    H165102   5.858   3.252   0.671 -1.4619  0.6075 -0.6763
14537TIP3    H265103   5.728   3.201   0.729 -0.6448 -1.0198 -0.2061
14538TIP3   OH265104   5.749   5.659  11.753 -0.1808 -0.1491 -0.0029
14538TIP3    H165105   5.677   5.627  11.698  0.5346  1.0448 -1.7403
14538TIP3    H265106   5.729   5.627  11.841 -0.0982 -4.3846 -1.3039
14539TIP3   OH265107   1.734   2.558   5.470 -0.1749  0.3454 -0.6526
14539TIP3    H165108   1.793   2.624   5.506  0.3412  0.8105 -2.2738
14539TIP3    H265109   1.789   2.507   5.410 -0.7431 -1.1059  0.0164
14540TIP3   OH265110   6.361   2.948  17.275  0.7266 -0.0108  0.3736
14540TIP3    H165111   6.346   2.865  17.231  3.5621 -1.1461  1.3075
14540TIP3    H265112   6.348   2.928  17.368  2.0349  0.4115  0.6579
14541TIP3   OH265113   5.637   4.865  10.792 -0.0508  0.4492 -0.3963
14541TIP3    H165114   5.543   4.850  10.792  0.0076  0.0460 -0.8236
14541TIP3    H265115   5.670   4.812  10.719  0.4676  0.8228 -0.4411
14542TIP3   OH265116   2.642   1.195  13.750 -0.1083  0.4930 -0.1963
14542TIP3    H165117   2.724   1.155  13.777 -0.5019 -0.7067 -0.6972
14542TIP3    H265118   2.576   1.157  13.809 -0.8907 -1.7355 -2.3635
14543TIP3   OH265119   1.926   3.888   0.604  0.5028  0.0087  0.1078
14543TIP3    H165120   1.982   3.965   0.615  1.5413 -0.6989 -0.0939
14543TIP3    H265121   1.916   3.879   0.509  1.6171 -0.9497  0.0606
14544TIP3   OH265122   2.646   6.469   3.586  0.1302 -0.0709  0.0201
14544TIP3    H165123   2.622   6.544   3.639  0.9041 -1.0583  1.8701
14544TIP3    H265124   2.723   6.432   3.630 -1.1678 -2.8726  0.1695
14545TIP3   OH265125   3.863   5.625   2.924 -0.6546  0.1330  0.7974
14545TIP3    H165126   3.857   5.634   3.019 -1.5851  2.7067  0.5905
14545TIP3    H265127   3.951   5.592   2.909 -0.3238  0.0854  2.5462
14546TIP3   OH265128   3.055   0.939  14.436 -0.1332 -0.0131 -0.1236
14546TIP3    H165129   2.963   0.910  14.438  0.1684 -1.1333 -1.3480
14546TIP3    H265130   3.077   0.942  14.343  1.8023 -2.2743  0.1693
14547TIP3   OH265131   1.973   0.025  12.650 -0.1523  0.1218  0.2039
14547TIP3    H165132   2.054   0.063  12.617 -1.5263  2.4683 -0.6880
14547TIP3    H265133   1.962   0.064  12.737 -0.7155  0.4657 -0.0129
14548TIP3   OH265134   3.329   5.683  12.506 -0.0896  0.1214  0.3668
14548TIP3    H165135   3.422   5.700  12.487  0.1779 -0.4460  1.1388
14548TIP3    H265136   3.326   5.589  12.525 -0.3323  0.6025  3.0734
14549TIP3   OH265137   4.496   0.919  14.049 -0.3070 -0.1834  0.3255
14549TIP3    H165138   4.548   0.940  13.972  1.2095  1.6458  1.7525
14549TIP3    H265139   4.450   1.000  14.070 -1.7453 -1.0338  0.6265
14550TIP3   OH265140   2.855   6.703  11.495  0.0759 -0.2706  0.6338
14550TIP3    H165141   2.905   6.775  11.458  0.8887 -0.6647  0.9607
14550TIP3    H265142   2.916   6.658  11.553 -1.0082 -0.0161  2.0182
14551TIP3   OH265143   6.803   0.217   2.348 -0.1477  0.3907  0.6369
14551TIP3    H165144   6.725   0.224   2.292  1.0151  1.0927 -0.9512
14551TIP3    H265145   6.826   0.307   2.370  1.5366  0.3675 -0.8365
14552TIP3   OH265146   6.480   3.146  11.514  0.0250  0.0587 -0.0433
14552TIP3    H165147   6.428   3.066  11.525  0.2252  0.0569  1.0605
14552TIP3    H265148   6.448   3.185  11.433  0.3585 -1.4494 -0.9157
14553TIP3   OH265149   4.237   3.431  16.408 -0.4683  1.1422 -0.4639
14553TIP3    H165150   4.323   3.452  16.374 -0.0934  0.2899 -0.0717
14553TIP3    H265151   4.197   3.376  16.340 -0.3107  0.7098 -0.2110
14554TIP3   OH265152   1.655   3.845   4.960 -0.2028  0.3736  0.1323
14554TIP3    H165153   1.667   3.877   5.049  0.1973 -1.1947  0.6731
14554TIP3    H265154   1.663   3.750   4.967 -2.0095  0.0501 -1.2756
14555TIP3   OH265155   0.458   6.532  16.746 -0.0511  0.3857 -0.4104
14555TIP3    H165156   0.438   6.441  16.767 -0.2052  0.7515  1.1526
14555TIP3    H265157   0.420   6.546  16.659 -0.1292 -0.9965 -0.6153
14556TIP3   OH265158   5.743   2.770  11.249 -0.2585 -0.6060  0.4121
14556TIP3    H165159   5.727   2.751  11.341  0.5749 -1.8840  0.3093
14556TIP3    H265160   5.658   2.760  11.207 -0.2804 -1.8943  0.7400
14557TIP3   OH265161   6.012   6.813  13.082  0.1150 -0.4653  0.4455
14557TIP3    H165162   6.054   6.784  13.002  1.2658  0.8419  0.5224
14557TIP3    H265163   5.964   6.892  13.057 -1.1985 -1.1684  0.6528
14558TIP3   OH265164   4.488   2.164   5.706  0.8522 -0.3119 -0.0531
14558TIP3    H165165   4.417   2.173   5.770  0.7826  1.6592 -0.3513
14558TIP3    H265166   4.479   2.240   5.649  3.3123  0.1241  0.0110
14559TIP3   OH265167   4.530   5.642  12.051 -0.1978 -0.2518  0.8861
14559TIP3    H165168   4.543   5.554  12.016  0.5999  0.0582  0.3763
14559TIP3    H265169   4.525   5.698  11.974 -2.8705 -0.0801  1.0888
14560TIP3   OH265170   1.928   0.867  10.527  0.0155 -0.2989  0.1543
14560TIP3    H165171   1.850   0.916  10.500 -0.0496 -0.3592  0.2351
14560TIP3    H265172   1.895   0.798  10.584  0.1231 -0.3524  0.1520
14561TIP3   OH265173   3.348   3.643   2.893 -0.6110 -0.3841  0.0154
14561TIP3    H165174   3.438   3.611   2.900 -1.1059 -2.2544 -1.3860
14561TIP3    H265175   3.330   3.643   2.799 -1.5490  1.6214  0.1432
14562TIP3   OH265176   4.017   1.201  16.813  0.1108  0.7476  0.1110
14562TIP3    H165177   3.945   1.163  16.762  0.2578 -0.6560  0.9137
14562TIP3    H265178   4.094   1.153  16.784  0.7841  2.2752 -0.7815
14563TIP3   OH265179   2.426   5.030  12.947 -0.2926  0.0445  0.4049
14563TIP3    H165180   2.456   4.973  13.018  2.4952  0.4820 -0.3012
14563TIP3    H265181   2.478   5.003  12.871 -0.0050  2.4367 -0.3366
14564TIP3   OH265182   1.779   2.235  13.302 -0.2099  0.3080 -0.1668
14564TIP3    H165183   1.796   2.327  13.279 -0.2619 -0.0433 -1.7100
14564TIP3    H265184   1.683   2.230  13.308 -0.4714 -0.2923 -3.2789
14565TIP3   OH265185   1.523   2.399  14.825 -0.7884  0.0237 -0.6080
14565TIP3    H165186   1.507   2.480  14.777 -1.1602  0.7725  0.7288
14565TIP3    H265187   1.469   2.407  14.904  0.6987 -0.6041  0.5193
14566TIP3   OH265188   6.521   3.666  15.226 -0.6599  0.4108 -0.5931
14566TIP3    H165189   6.559   3.633  15.144  0.8640  1.5867 -0.3956
14566TIP3    H265190   6.470   3.743  15.199 -1.4805 -0.1290 -0.6216
14567TIP3   OH265191   2.675   6.434  11.909  0.9478  0.2020  0.1507
14567TIP3    H165192   2.624   6.354  11.916  1.6517 -0.1306  2.1176
14567TIP3    H265193   2.753   6.409  11.858  0.1093  0.2550 -1.2215
14568TIP3   OH265194   3.254   1.880   5.990 -0.1582 -0.1421 -0.8764
14568TIP3    H165195   3.335   1.893   5.941  0.2413  1.4754  0.1425
14568TIP3    H265196   3.282   1.874   6.081 -0.9699 -2.2342 -0.6908
14569TIP3   OH265197   1.683   5.783   4.036  0.1143 -0.0241 -0.8628
14569TIP3    H165198   1.687   5.688   4.035  1.0796  0.0021 -0.8751
14569TIP3    H265199   1.608   5.804   4.091  1.0451 -0.8016  0.7710
14570TIP3   OH265200   4.120   6.746   4.248 -0.0754 -0.0004 -1.0831
14570TIP3    H165201   4.117   6.696   4.167  2.1936  0.9904 -1.8487
14570TIP3    H265202   4.051   6.812   4.238  2.0950  2.1124 -3.7134
14571TIP3   OH265203   1.114   6.586   2.130 -0.1464  0.1788 -0.2958
14571TIP3    H165204   1.146   6.666   2.171  0.3168 -0.0115 -0.2817
14571TIP3    H265205   1.088   6.613   2.042  1.2345  0.1095 -0.7519
14572TIP3   OH265206   4.565   3.490  11.656  0.3343  0.0208 -0.2303
14572TIP3    H165207   4.499   3.452  11.597 -0.0374  0.8442 -0.3559
14572TIP3    H265208   4.580   3.422  11.721  1.4440 -1.3110 -1.7810
14573TIP3   OH265209   1.817   1.341  10.403 -0.5788  0.1099 -0.6013
14573TIP3    H165210   1.912   1.330  10.393 -0.4431 -0.8034  1.3051
14573TIP3    H265211   1.781   1.254  10.392 -1.0965  0.2927 -0.3879
14574TIP3   OH265212   1.641   4.881   1.735 -0.3628 -0.1960  0.1601
14574TIP3    H165213   1.702   4.870   1.807 -0.8617  2.6351  1.1676
14574TIP3    H265214   1.589   4.958   1.759 -2.9090 -1.2277 -1.6297
14575TIP3   OH265215   3.065   5.288   6.385  0.7631  0.3359  0.2947
14575TIP3    H165216   3.037   5.341   6.460 -0.9983 -1.3699  0.9268
14575TIP3    H265217   3.137   5.235   6.419 -1.1146 -1.6597  1.3892
14576TIP3   OH265218   1.374   4.602   3.952  0.1135  0.2914 -0.3091
14576TIP3    H165219   1.384   4.668   3.884 -0.2647 -0.5506 -1.2116
14576TIP3    H265220   1.456   4.551   3.948  0.5175  0.8504  0.5621
14577TIP3   OH265221   1.789   0.813  11.529  0.2568  0.4051  0.4193
14577TIP3    H165222   1.711   0.816  11.474  0.9442  2.7575 -0.5703
14577TIP3    H265223   1.756   0.798  11.617 -1.0077 -1.7097 -0.3389
14578TIP3   OH265224   1.819   3.680   1.471 -0.4601 -0.4840  0.2348
14578TIP3    H165225   1.856   3.752   1.522 -0.5621 -1.1724  1.3084
14578TIP3    H265226   1.886   3.612   1.475 -1.0927 -1.0904  0.7067
14579TIP3   OH265227   0.108   1.198   1.581  0.0957  0.5580  0.2709
14579TIP3    H165228   0.159   1.170   1.505  0.9814  1.5394  0.4896
14579TIP3    H265229   0.109   1.121   1.639  1.0520  0.4406  0.1204
14580TIP3   OH265230   6.649   1.802   0.972  0.3611  0.0402  0.2529
14580TIP3    H165231   6.669   1.711   0.990  1.0709  0.1365 -0.0095
14580TIP3    H265232   6.710   1.851   1.028  0.6225  0.3476 -0.2997
14581TIP3   OH265233   2.873   5.271  15.925  0.0384 -0.7324  0.2823
14581TIP3    H165234   2.810   5.315  15.982  0.7081 -1.1376  1.3667
14581TIP3    H265235   2.947   5.332  15.921  0.2843 -1.0250  0.4209
14582TIP3   OH265236   1.270   6.611  11.605  0.2706  0.5494 -0.6116
14582TIP3    H165237   1.347   6.604  11.549  1.4372  1.2329  0.8487
14582TIP3    H265238   1.263   6.525  11.647  2.6472  1.5186  2.1680
14583TIP3   OH265239   1.120   6.621   4.973 -0.2495 -0.2680 -0.4412
14583TIP3    H165240   1.059   6.558   5.012  0.4775 -0.0595  1.0912
14583TIP3    H265241   1.108   6.701   5.024  2.2460 -0.6238  0.8406
14584TIP3   OH265242   4.869   1.558  12.835  0.1383 -0.4505 -0.4646
14584TIP3    H165243   4.869   1.463  12.833 -0.7403 -0.4704 -2.7182
14584TIP3    H265244   4.778   1.582  12.817  0.9896  0.7326 -3.9026
14585TIP3   OH265245   2.080   4.520   4.992  0.5040 -0.4239 -0.3299
14585TIP3    H165246   2.130   4.578   4.935  1.5845  0.3685  1.3531
14585TIP3    H265247   2.096   4.432   4.957  1.6931 -0.0249 -0.8455
14586TIP3   OH265248   5.798   2.044   0.427  0.5112 -0.0628  0.4434
14586TIP3    H165249   5.707   2.059   0.452  0.7168  2.7342 -0.1664
14586TIP3    H265250   5.840   2.014   0.508 -0.8456 -1.0073  0.8308
14587TIP3   OH265251   6.229   5.125   1.177 -0.2539 -0.6995  0.2093
14587TIP3    H165252   6.206   5.034   1.163  2.8141 -1.4355 -0.8782
14587TIP3    H265253   6.191   5.172   1.103  1.5073 -1.8364 -1.5102
14588TIP3   OH265254   5.195   6.649  13.644 -0.2805 -0.4119  0.3566
14588TIP3    H165255   5.181   6.744  13.638 -1.5371 -0.5978  0.1093
14588TIP3    H265256   5.289   6.638  13.628 -0.2631  0.7299 -0.4654
14589TIP3   OH265257   1.306   0.119  14.270 -0.1429 -0.3804  0.8411
14589TIP3    H165258   1.253   0.189  14.230 -0.8623 -1.3244  0.1145
14589TIP3    H265259   1.391   0.160  14.286 -0.0227  0.2051 -1.0845
14590TIP3   OH265260   4.832   3.882  11.279  0.5178 -0.3056 -0.3748
14590TIP3    H165261   4.923   3.856  11.289  1.1033  1.1663 -1.5511
14590TIP3    H265262   4.835   3.963  11.229 -1.4760 -0.5455 -0.9925
14591TIP3   OH265263   0.776   0.372  11.783  0.3678  0.4231 -0.3366
14591TIP3    H165264   0.681   0.369  11.793  0.2486 -0.0559 -1.4219
14591TIP3    H265265   0.790   0.408  11.695  1.2521  2.6526  0.6477
14592TIP3   OH265266   4.317   4.317   4.645  0.2551  0.3563  0.5426
14592TIP3    H165267   4.370   4.309   4.566 -0.0718  1.1887  0.2273
14592TIP3    H265268   4.365   4.379   4.700  1.2176 -1.3103  1.6353
14593TIP3   OH265269   2.380   2.575  14.390  0.1119  0.2262  0.4188
14593TIP3    H165270   2.329   2.514  14.444  1.6170  0.1429  1.8639
14593TIP3    H265271   2.373   2.541  14.301 -1.6388 -0.2231  0.6992
14594TIP3   OH265272   2.038   3.812   0.169  0.5074  0.7294  0.5649
14594TIP3    H165273   2.007   3.881   0.228  1.5365  0.6849  1.1760
14594TIP3    H265274   2.110   3.853   0.121  0.1021  0.5569 -0.2080
14595TIP3   OH265275   5.558   0.529  10.728 -0.6688 -0.0812 -0.1203
14595TIP3    H165276   5.608   0.454  10.760  1.1517  0.5174 -1.4198
14595TIP3    H265277   5.491   0.491  10.671  1.2899 -0.7052 -2.1456
14596TIP3   OH265278   5.919   2.048   2.448  0.2843  0.4124  0.1570
14596TIP3    H165279   5.996   1.992   2.439  0.4166  0.7004 -0.6191
14596TIP3    H265280   5.887   2.032   2.537  0.3027 -0.9053 -0.0509
14597TIP3   OH265281   1.919   0.891  15.745  0.1998 -0.0489  0.2137
14597TIP3    H165282   1.967   0.970  15.770  0.1652  0.3160 -0.8179
14597TIP3    H265283   1.841   0.891  15.800 -0.9443  1.8543 -1.2692
14598TIP3   OH265284   1.316   2.045  13.084  0.2794 -0.0396 -0.7369
14598TIP3    H165285   1.241   1.991  13.060 -0.3749 -0.1234  1.3589
14598TIP3    H265286   1.357   2.067  13.000 -0.8613 -1.7145 -1.7906
14599TIP3   OH265287   6.245   0.192  13.478 -0.4512  0.3633  0.3798
14599TIP3    H165288   6.224   0.131  13.408 -1.0199  0.6440  0.2979
14599TIP3    H265289   6.339   0.209  13.468 -0.7800  1.4942 -1.2134
14600TIP3   OH265290   2.528   2.719   2.522  0.3547 -0.1419 -0.0300
14600TIP3    H165291   2.433   2.728   2.531  0.2828  0.0407 -0.8812
14600TIP3    H265292   2.545   2.626   2.535  0.3900  0.1743  2.7720
14601TIP3   OH265293   3.990   3.468   0.741 -0.0247 -0.0691 -0.5736
14601TIP3    H165294   3.957   3.543   0.791  1.2464  0.3730 -0.3747
14601TIP3    H265295   3.991   3.396   0.804 -0.7146 -0.1308 -0.6190
14602TIP3   OH265296   4.434   0.221  11.930 -0.6016 -0.2921 -0.0539
14602TIP3    H165297   4.357   0.175  11.897 -1.5099  0.4110  1.0093
14602TIP3    H265298   4.428   0.211  12.025  1.0847 -0.9349  0.0139
14603TIP3   OH265299   5.458   0.339  13.042 -0.4171 -0.4573  0.6582
14603TIP3    H165300   5.441   0.429  13.015 -0.6724 -1.2336 -2.0414
14603TIP3    H265301   5.404   0.327  13.120 -0.7414  1.5732  0.7975
14604TIP3   OH265302   6.826   2.389  16.323  0.5144 -0.7100 -0.0891
14604TIP3    H165303   6.764   2.417  16.391  0.9199 -0.6075  0.2422
14604TIP3    H265304   6.880   2.466  16.307 -1.0694  0.0500 -2.2497
14605TIP3   OH265305   0.266   2.659  14.619  0.4879 -0.5410 -0.0165
14605TIP3    H165306   0.190   2.622  14.575 -1.4408  1.6981  1.2276
14605TIP3    H265307   0.278   2.745  14.578 -0.6382  1.1051  2.8576
14606TIP3   OH265308   2.127   0.461  16.273  0.3651 -0.0418  0.1034
14606TIP3    H165309   2.118   0.380  16.323 -1.2722 -0.6237 -1.0529
14606TIP3    H265310   2.196   0.443  16.210 -0.9735 -1.1200 -1.1290
14607TIP3   OH265311   0.004   3.325   1.316  0.5707  0.1357  0.4320
14607TIP3    H165312   0.097   3.325   1.292  0.7359 -1.2158  0.9611
14607TIP3    H265313  -0.013   3.234   1.341 -0.9091  0.3664  0.3081
14608TIP3   OH265314   4.313   5.512   5.330  0.2721  0.0689  0.3391
14608TIP3    H165315   4.224   5.522   5.296  1.2830  0.7067 -2.3543
14608TIP3    H265316   4.316   5.571   5.405 -1.9299 -0.9967  1.3747
14609TIP3   OH265317   2.756   5.872  17.134 -0.8003  0.2688 -0.0741
14609TIP3    H165318   2.708   5.803  17.087  1.6451 -1.3308 -0.3867
14609TIP3    H265319   2.835   5.887  17.082 -0.4335  2.1018  0.9297
14610TIP3   OH265320   1.759   0.031  11.388 -0.0675  0.1134 -0.1730
14610TIP3    H165321   1.841   0.062  11.348  0.6570 -0.1613  1.0457
14610TIP3    H265322   1.702   0.014  11.314  1.1833 -0.2371 -1.0967
14611TIP3   OH265323   4.682   5.857  12.525 -0.5573  0.4829  0.2603
14611TIP3    H165324   4.600   5.809  12.513  0.3225 -0.9397 -0.4294
14611TIP3    H265325   4.667   5.913  12.601 -1.7869 -0.6234  0.8671
14612TIP3   OH265326   5.771   3.741   3.524  0.6226 -0.1402  0.4014
14612TIP3    H165327   5.703   3.675   3.534 -1.7139  1.7603 -1.4120
14612TIP3    H265328   5.732   3.821   3.562  1.5544  1.1438 -1.2107
14613TIP3   OH265329   3.195   0.476   0.368  0.0639  0.6037  0.1435
14613TIP3    H165330   3.272   0.511   0.324  1.2545  1.4546  2.6925
14613TIP3    H265331   3.229   0.407   0.425 -1.0976  0.7319  1.0349
14614TIP3   OH265332   3.976   5.335  15.719  0.0849  0.1786 -0.0502
14614TIP3    H165333   4.030   5.340  15.640 -0.8751  4.1159 -0.6785
14614TIP3    H265334   3.908   5.271  15.698  0.0599  0.8652 -2.3635
14615TIP3   OH265335   0.123   4.847  14.167  0.3372  0.2366 -0.3548
14615TIP3    H165336   0.207   4.830  14.208 -0.2886 -1.7125  0.2047
14615TIP3    H265337   0.109   4.773  14.108 -1.2291  0.2345 -0.0253
14616TIP3   OH265338   0.783   1.546  13.573  0.3363 -0.0863 -0.2962
14616TIP3    H165339   0.709   1.559  13.515 -1.4253 -0.9172  1.6396
14616TIP3    H265340   0.745   1.547  13.661  3.0461  2.6993  1.0277
14617TIP3   OH265341   6.748   6.023  15.699  0.7604 -0.2759  0.7527
14617TIP3    H165342   6.657   6.036  15.725  1.0425 -0.0856  1.7034
14617TIP3    H265343   6.785   6.111  15.691  0.9715 -0.3588  0.7915
14618TIP3   OH265344   0.452   2.273   3.287  0.6692  0.5861  0.3047
14618TIP3    H165345   0.388   2.329   3.243  1.3477  0.0661 -1.4523
14618TIP3    H265346   0.475   2.208   3.221  0.0050 -1.7326  2.2454
14619TIP3   OH265347   5.503   5.282  16.146 -0.4888  0.5802 -0.6830
14619TIP3    H165348   5.457   5.219  16.090 -0.0859  1.0646 -1.5910
14619TIP3    H265349   5.455   5.280  16.229 -0.5106 -0.8730 -0.7029
14620TIP3   OH265350   4.245   2.065   2.455  0.7062  0.0432 -0.0598
14620TIP3    H165351   4.334   2.099   2.453  1.0465 -0.8786 -1.2533
14620TIP3    H265352   4.253   1.972   2.435 -0.4612 -0.2316  0.5966
14621TIP3   OH265353   5.093   4.338  12.442  0.5323  0.9407  0.6183
14621TIP3    H165354   5.096   4.425  12.482  0.0310  0.6791  1.2556
14621TIP3    H265355   5.089   4.278  12.517  1.8676  0.3133  0.2178
14622TIP3   OH265356   5.253   5.176  13.555  0.5423 -0.2557  0.1194
14622TIP3    H165357   5.179   5.165  13.614  0.6729  0.3589  0.4125
14622TIP3    H265358   5.328   5.193  13.613  1.1710 -2.0737 -0.1057
14623TIP3   OH265359   4.649   3.083  10.594 -0.6890 -0.0620 -0.2323
14623TIP3    H165360   4.585   3.154  10.597 -1.9558 -1.0602 -1.7906
14623TIP3    H265361   4.633   3.041  10.509 -0.1491 -2.3534  0.7370
14624TIP3   OH265362   0.806   5.662  13.908 -0.6439  0.2636  0.1696
14624TIP3    H165363   0.852   5.583  13.937  0.1678  0.7431  0.2024
14624TIP3    H265364   0.717   5.652  13.943  0.1323  0.5765  2.4308
14625TIP3   OH265365   6.498   5.054   3.389  0.3430  0.3840  0.5377
14625TIP3    H165366   6.476   5.097   3.471  0.0260  0.6495  0.3185
14625TIP3    H265367   6.587   5.082   3.370  1.0950 -1.1134  1.6975
14626TIP3   OH265368   3.327   1.528  12.476  0.1310  0.4664  0.2755
14626TIP3    H165369   3.299   1.437  12.487 -0.9471  0.9030  1.3871
14626TIP3    H265370   3.321   1.544  12.382  0.4968 -0.6556  0.0442
14627TIP3   OH265371   1.700   4.720   4.082 -0.3531  0.0283 -0.0250
14627TIP3    H165372   1.689   4.631   4.051 -0.3135 -0.5545  1.5206
14627TIP3    H265373   1.648   4.724   4.162  2.1625  0.3656  1.7247
14628TIP3   OH265374   3.754   1.268  14.648 -0.9845 -0.2980 -0.1362
14628TIP3    H165375   3.811   1.218  14.705 -0.8491  0.4857  0.4343
14628TIP3    H265376   3.812   1.331  14.606 -1.7019  2.2422  2.3533
14629TIP3   OH265377   2.372   2.893  13.215  0.0346  0.1148  0.8035
14629TIP3    H165378   2.378   2.815  13.160 -0.2131  0.4820  0.2540
14629TIP3    H265379   2.463   2.913  13.237  0.1135 -0.2041  0.7782
14630TIP3   OH265380   5.456   3.037   0.619 -0.4191 -0.5228  0.2347
14630TIP3    H165381   5.363   3.024   0.600 -0.3648 -1.2476  0.4340
14630TIP3    H265382   5.501   3.013   0.538 -0.3290 -1.4521  0.5497
14631TIP3   OH265383   5.959   0.910  13.190 -0.1175 -0.0257  0.1471
14631TIP3    H165384   6.047   0.943  13.170  0.0330 -1.6401 -2.2481
14631TIP3    H265385   5.974   0.825  13.230 -0.5363 -1.1996 -2.0695
14632TIP3   OH265386   6.391   0.153  14.413 -0.0288  0.1164  0.2519
14632TIP3    H165387   6.302   0.189  14.404  0.3504  0.8964 -0.5004
14632TIP3    H265388   6.394   0.082  14.348  0.9538  2.2662 -2.2013
14633TIP3   OH265389   2.296   2.117  13.180  0.2073  0.3030 -0.2648
14633TIP3    H165390   2.239   2.131  13.105 -1.1910 -0.9608  0.4947
14633TIP3    H265391   2.311   2.204  13.215  0.3265  0.8449 -1.6008
14634TIP3   OH265392   3.027   1.629   4.338 -0.9119 -0.4805 -0.1897
14634TIP3    H165393   3.020   1.637   4.243  0.7850  1.0686 -0.2377
14634TIP3    H265394   3.121   1.616   4.354 -1.4121 -3.2867  1.1738
14635TIP3   OH265395   3.126   0.792   2.938  0.0313  0.3635  0.4634
14635TIP3    H165396   3.210   0.803   2.983 -0.1300 -0.4481  1.0002
14635TIP3    H265397   3.083   0.722   2.987 -0.9149  0.7018  0.1238
14636TIP3   OH265398   1.099   5.907  11.725 -0.5406  0.0207 -0.0008
14636TIP3    H165399   1.146   5.935  11.804 -1.0651 -1.5723  0.9099
14636TIP3    H265400   1.010   5.890  11.755  0.0075 -3.8188 -0.1404
14637TIP3   OH265401   4.374   0.017  14.822 -0.4776 -0.2816  0.4544
14637TIP3    H165402   4.468   0.005  14.834 -0.0468  2.0987 -0.0389
14637TIP3    H265403   4.341   0.043  14.908 -0.8438 -1.6707  0.7705
14638TIP3   OH265404   3.948   5.982  12.321  0.4121  0.2718  0.4107
14638TIP3    H165405   3.966   5.954  12.231  0.7813 -1.8299  1.0728
14638TIP3    H265406   3.988   6.068  12.329  0.3813  0.4840 -1.4257
14639TIP3   OH265407   6.444   3.429   0.904  0.5334  0.1960  0.1527
14639TIP3    H165408   6.443   3.333   0.899 -0.0829  0.1026  1.5904
14639TIP3    H265409   6.354   3.453   0.924  0.7595  1.0658  0.1736
14640TIP3   OH265410   3.161   1.889   5.698  0.6694  0.3546  0.2471
14640TIP3    H165411   3.085   1.833   5.679  0.5442  0.4350  0.5060
14640TIP3    H265412   3.189   1.863   5.785  2.1572 -1.0475 -0.6036
14641TIP3   OH265413   5.605   5.494  12.805  0.2718 -0.1798  0.3345
14641TIP3    H165414   5.518   5.500  12.843  0.5251 -0.0396  0.9092
14641TIP3    H265415   5.663   5.528  12.873  0.4636  3.5307 -1.4530
14642TIP3   OH265416   0.492   3.306  17.167 -0.3421  0.5225 -0.4594
14642TIP3    H165417   0.552   3.265  17.104  0.7178  2.3125 -0.7024
14642TIP3    H265418   0.503   3.255  17.247 -0.1472 -0.5268 -1.1385
14643TIP3   OH265419   5.973   2.715  13.836 -0.0430  0.7463 -0.3012
14643TIP3    H165420   6.059   2.696  13.874 -1.0769 -1.3205  1.2215
14643TIP3    H265421   5.977   2.681  13.747  0.5446  0.1477 -0.0495
14644TIP3   OH265422   1.161   2.354  15.940  0.0781  0.1544 -0.1799
14644TIP3    H165423   1.190   2.361  15.849 -0.2536 -0.2912 -0.3238
14644TIP3    H265424   1.068   2.332  15.934  0.2362 -0.6991  0.2472
14645TIP3   OH265425   4.061   1.133   2.355  0.2523 -0.3361 -0.1161
14645TIP3    H165426   4.046   1.217   2.310 -0.9391 -0.0257  0.8096
14645TIP3    H265427   3.978   1.087   2.348  1.0105 -1.6266 -0.9405
14646TIP3   OH265428   2.079   2.167   0.767 -0.6217 -0.4933  0.2704
14646TIP3    H165429   2.083   2.250   0.815 -0.5998 -0.2721 -0.1106
14646TIP3    H265430   2.044   2.191   0.681  0.8739 -0.6184 -0.4036
14647TIP3   OH265431   1.054   1.898  15.590 -0.5716 -0.1424 -0.1053
14647TIP3    H165432   1.053   1.825  15.652  1.5129 -0.6446 -0.5529
14647TIP3    H265433   1.070   1.975  15.644 -0.0528 -0.4053  0.1303
14648TIP3   OH265434   5.241   4.805  14.959 -0.1969  0.1534 -0.7878
14648TIP3    H165435   5.174   4.850  14.909 -0.5501 -0.2429 -0.6733
14648TIP3    H265436   5.278   4.872  15.016 -2.1339 -0.1264  0.8818
14649TIP3   OH265437   1.766   4.816  14.890 -0.5710 -0.4986  0.0435
14649TIP3    H165438   1.748   4.908  14.871  0.4926 -0.6290 -1.8573
14649TIP3    H265439   1.767   4.774  14.804  4.0717 -1.3051  0.2450
14650TIP3   OH265440   3.434   4.979  10.885  0.0209  0.4044  0.0589
14650TIP3    H165441   3.380   4.936  10.951 -0.9964  1.5965  0.0388
14650TIP3    H265442   3.374   4.996  10.812  1.3877 -2.1308 -1.8542
14651TIP3   OH265443   5.635   1.456  16.594 -0.2624 -0.0775  0.2360
14651TIP3    H165444   5.630   1.518  16.668  0.2613  0.0728  0.1506
14651TIP3    H265445   5.547   1.419  16.588 -1.3579  2.4855 -1.2725
14652TIP3   OH265446   6.769   5.019   1.603  0.7430 -0.3543 -0.9054
14652TIP3    H165447   6.791   4.929   1.628  0.3878 -0.4930 -1.0827
14652TIP3    H265448   6.802   5.073   1.675  0.8617 -0.6376 -0.7462
14653TIP3   OH265449   3.868   0.021  16.937  0.0497  0.1530  0.1357
14653TIP3    H165450   3.845   0.013  17.030 -0.3062 -0.1626  0.0215
14653TIP3    H265451   3.961  -0.001  16.933  0.2087  0.7389  0.4993
14654TIP3   OH265452   0.515   0.529  15.859 -0.3530  0.0650  0.1284
14654TIP3    H165453   0.550   0.496  15.776 -2.1916  0.2043 -0.7509
14654TIP3    H265454   0.421   0.540  15.842 -0.7250  0.3016  2.1726
14655TIP3   OH265455   1.312   1.902   4.476  0.3802 -0.0669  0.5334
14655TIP3    H165456   1.261   1.869   4.402 -0.0754  0.2606  0.6942
14655TIP3    H265457   1.400   1.914   4.441  0.5483 -1.4137  0.4687
14656TIP3   OH265458   0.444   2.724  13.113  0.3465 -0.1332 -0.3411
14656TIP3    H165459   0.427   2.670  13.036 -0.7075  1.6344 -1.4269
14656TIP3    H265460   0.406   2.675  13.185  2.0612 -2.2204 -0.7401
14657TIP3   OH265461   0.797   1.515  14.749  0.2899 -0.2948  0.4432
14657TIP3    H165462   0.729   1.453  14.722 -0.3314 -0.3625  2.0545
14657TIP3    H265463   0.780   1.530  14.842  2.7640 -0.6791  1.0365
14658TIP3   OH265464   6.503   1.025   5.202 -0.3685  0.6254  0.3570
14658TIP3    H165465   6.571   1.058   5.143 -0.3163  0.1082  0.1151
14658TIP3    H265466   6.426   1.018   5.146 -0.5788  1.0622  0.5930
14659TIP3   OH265467   4.230   1.111   4.171 -0.6821 -0.4920 -0.2724
14659TIP3    H165468   4.158   1.060   4.135 -0.1431 -1.0556 -0.5883
14659TIP3    H265469   4.242   1.076   4.260  0.1090 -1.3989 -0.7135
14660TIP3   OH265470   4.562   6.043   0.891 -0.5598 -0.2044 -0.1308
14660TIP3    H165471   4.633   6.098   0.859 -0.8284 -0.0495 -0.4701
14660TIP3    H265472   4.508   6.026   0.814  0.0832 -1.8444 -0.2558
14661TIP3   OH265473   0.096   6.053  16.547 -0.9708 -0.4043  0.6790
14661TIP3    H165474   0.076   6.051  16.640 -2.0634  0.7233  0.4950
14661TIP3    H265475   0.051   6.131  16.515 -0.8274 -0.9202 -0.8445
14662TIP3   OH265476   1.276   3.340  11.257  0.1099  0.2098 -0.5847
14662TIP3    H165477   1.342   3.348  11.326  0.5745 -3.5201 -0.3527
14662TIP3    H265478   1.327   3.326  11.177 -0.3634 -0.6460 -0.7511
14663TIP3   OH265479   4.493   6.605  11.812  0.3573  0.0258  0.0542
14663TIP3    H165480   4.468   6.544  11.742  1.7693 -0.0352 -0.4276
14663TIP3    H265481   4.410   6.642  11.843 -0.3531 -0.5790 -1.0777
14664TIP3   OH265482   3.842   1.920   3.639 -0.2919  0.3139  0.1293
14664TIP3    H165483   3.748   1.914   3.660 -0.3091  0.5737  0.1285
14664TIP3    H265484   3.860   2.014   3.637 -0.3491  0.3142 -1.2782
14665TIP3   OH265485   0.607   0.374   1.321 -0.1216 -1.0148  0.0207
14665TIP3    H165486   0.576   0.452   1.367 -1.2888 -0.3821 -1.7246
14665TIP3    H265487   0.675   0.337   1.378  1.2524  1.8737  0.4246
14666TIP3   OH265488   1.565   0.613   3.702 -0.7281  0.5937 -0.0684
14666TIP3    H165489   1.471   0.629   3.697 -0.5877  2.0858  1.1950
14666TIP3    H265490   1.604   0.694   3.668  0.1638 -0.9102 -2.9341
14667TIP3   OH265491   2.783   5.283   1.729  0.2727  0.8783 -0.5632
14667TIP3    H165492   2.700   5.313   1.766  1.1901  3.6162 -0.4943
14667TIP3    H265493   2.828   5.242   1.803  0.3087  2.3996  0.3101
14668TIP3   OH265494   1.912   5.137   1.506  0.5862  0.1562  0.7814
14668TIP3    H165495   1.963   5.071   1.461  0.6590  0.6807  0.0730
14668TIP3    H265496   1.900   5.207   1.441 -0.6582  0.2294  1.0639
14669TIP3   OH265497   2.579   0.222   4.785  0.4985  0.4155  0.2434
14669TIP3    H165498   2.619   0.141   4.816  0.6907  0.0238 -0.9764
14669TIP3    H265499   2.537   0.259   4.863  0.8186 -0.6041  0.9273
14670TIP3   OH265500   0.568   0.138  13.445 -0.1185  0.3442  0.0224
14670TIP3    H165501   0.557   0.210  13.507  0.0796  0.6936 -0.3403
14670TIP3    H265502   0.569   0.181  13.359  0.5126 -0.0406 -0.1649
14671TIP3   OH265503   3.244   3.277   4.933  0.6276  0.2106  0.0678
14671TIP3    H165504   3.273   3.365   4.910 -2.3194  1.4130  0.4465
14671TIP3    H265505   3.186   3.290   5.008  2.4221 -2.4720  2.1270
14672TIP3   OH265506   0.182   4.968   1.184  0.2937 -0.3668  0.3877
14672TIP3    H165507   0.245   5.026   1.142  0.3604  1.3062  2.6178
14672TIP3    H265508   0.184   4.993   1.276 -0.7910 -2.9352  1.2118
14673TIP3   OH265509   1.302   2.772   3.720 -0.2985 -0.1924 -0.2781
14673TIP3    H165510   1.305   2.748   3.812  2.6168 -0.7770 -0.4202
14673TIP3    H265511   1.335   2.695   3.674 -0.8650  0.4068 -1.7570
14674TIP3   OH265512   6.422   0.215  13.843 -0.3117 -0.0861 -0.1383
14674TIP3    H165513   6.424   0.298  13.796  2.0834  0.2266  0.3585
14674TIP3    H265514   6.502   0.170  13.816 -1.1626 -1.9093  0.2004
14675TIP3   OH265515   5.922   6.400  15.462 -0.1527 -0.0173  0.0361
14675TIP3    H165516   5.951   6.310  15.447  1.5805  0.4630  0.3569
14675TIP3    H265517   5.990   6.439  15.517 -1.3383  1.2265  0.6795
14676TIP3   OH265518   3.726   0.311   5.652 -0.5337 -0.0876 -1.0350
14676TIP3    H165519   3.756   0.221   5.644 -0.2314 -0.0713 -0.1882
14676TIP3    H265520   3.799   0.363   5.618 -0.1053 -0.1044 -0.1597
14677TIP3   OH265521   4.036   3.940  10.760  0.3888 -0.5347 -0.1827
14677TIP3    H165522   4.066   4.016  10.809 -1.4476 -0.4256  0.8871
14677TIP3    H265523   3.997   3.977  10.681  0.3492 -0.4407 -0.1195
14678TIP3   OH265524   3.423   6.413   4.211 -0.4267 -0.7666  0.1803
14678TIP3    H165525   3.467   6.356   4.148  0.9585  1.9581 -1.4856
14678TIP3    H265526   3.334   6.422   4.176  0.3657  0.8323 -1.6050
14679TIP3   OH265527   2.888   5.433   4.939  0.5249  0.0894 -0.4662
14679TIP3    H165528   2.850   5.476   5.016 -0.3527 -0.6400 -0.4841
14679TIP3    H265529   2.817   5.434   4.874  1.3270  0.9086 -1.3649
14680TIP3   OH265530   1.754   5.995   0.668  0.1383 -0.0604 -0.2158
14680TIP3    H165531   1.668   5.962   0.694  0.8053 -1.1830  0.6758
14680TIP3    H265532   1.761   6.081   0.710 -0.7914  0.3245 -0.8289
14681TIP3   OH265533   1.869   5.159   5.904 -0.4908  0.4340 -0.1813
14681TIP3    H165534   1.905   5.151   5.992 -1.4237  1.5183  0.3243
14681TIP3    H265535   1.779   5.126   5.912 -0.8384  1.2675 -0.5326
14682TIP3   OH265536   4.095   2.450   4.910 -0.3971  0.2743 -0.1943
14682TIP3    H165537   4.132   2.373   4.953 -1.0341  0.0517 -0.0403
14682TIP3    H265538   4.164   2.478   4.850  0.6202  0.7732  1.1682
14683TIP3   OH265539   3.498   1.919  15.903 -0.0314 -0.3775 -0.0124
14683TIP3    H165540   3.499   1.917  15.808 -0.0388 -0.9221 -0.0066
14683TIP3    H265541   3.433   1.853  15.928  0.2004 -0.4687  0.3683
14684TIP3   OH265542   0.422   2.978  17.125 -0.3765  0.3313  0.2331
14684TIP3    H165543   0.373   3.014  17.198 -1.7669  0.7061 -0.8371
14684TIP3    H265544   0.377   3.010  17.047  0.1393 -1.2666 -0.7863
14685TIP3   OH265545   6.231   4.830  12.715  0.3061 -0.2717  0.6275
14685TIP3    H165546   6.251   4.872  12.632 -1.4853 -0.7732 -0.1228
14685TIP3    H265547   6.256   4.894  12.782  0.3084  0.7865 -0.3598
14686TIP3   OH265548   1.533   3.243   1.216 -0.2438  0.6583 -0.5242
14686TIP3    H165549   1.603   3.252   1.151  1.0616 -0.6569  0.6248
14686TIP3    H265550   1.514   3.149   1.218 -2.6039  1.0476 -1.2970
14687TIP3   OH265551   0.696   3.814  12.141 -0.5472  0.2567 -0.0894
14687TIP3    H165552   0.627   3.879  12.129 -0.6960  0.2868  0.8554
14687TIP3    H265553   0.760   3.834  12.073 -0.4946  1.5198  0.3016
14688TIP3   OH265554   3.343   1.502  15.523  0.9241 -0.7608  0.6926
14688TIP3    H165555   3.268   1.456  15.485  0.0502  1.4083 -0.3939
14688TIP3    H265556   3.326   1.502  15.617 -0.0778 -0.9121  0.5227
14689TIP3   OH265557   6.437   4.049  14.187  0.7625 -0.7135 -0.1210
14689TIP3    H165558   6.416   4.142  14.179  1.6311 -0.6080 -1.5033
14689TIP3    H265559   6.426   4.030  14.280 -0.7326  0.4394 -0.0264
14690TIP3   OH265560   6.254   0.239   1.133  0.2161 -0.4598 -0.8922
14690TIP3    H165561   6.259   0.315   1.075  0.7889 -1.2397 -1.9027
14690TIP3    H265562   6.170   0.249   1.178  0.5103  1.0179 -0.6305
14691TIP3   OH265563   4.538   4.478   4.037  0.0694  0.4154 -0.1463
14691TIP3    H165564   4.528   4.422   3.960  4.4467 -0.4945 -0.3130
14691TIP3    H265565   4.567   4.419   4.106  2.4661  2.0427  0.3512
14692TIP3   OH265566   6.753   4.719   4.520  0.1193 -0.2932  0.6244
14692TIP3    H165567   6.681   4.781   4.508  0.3657 -0.2176 -0.5589
14692TIP3    H265568   6.798   4.718   4.435  0.5479 -1.5491  0.8564
14693TIP3   OH265569   3.111   5.590  12.011  0.8738  0.6786  0.4496
14693TIP3    H165570   3.170   5.518  12.033  0.0583 -0.5274 -1.0816
14693TIP3    H265571   3.077   5.567  11.925 -1.2926  1.6825  0.9728
14694TIP3   OH265572   1.028   2.105   2.312  0.0641 -0.0015  0.1296
14694TIP3    H165573   1.028   2.107   2.217  1.0663  1.4625  0.1373
14694TIP3    H265574   1.113   2.068   2.336  0.1770  0.4510  0.4477
14695TIP3   OH265575   5.476   6.129  13.865 -0.1386  0.0078 -0.6365
14695TIP3    H165576   5.503   6.117  13.956 -1.4294 -1.1540 -0.3824
14695TIP3    H265577   5.388   6.092  13.861 -0.0033 -0.1880 -2.4297
14696TIP3   OH265578   5.267   2.811   2.484  0.1892 -0.1552  0.3545
14696TIP3    H165579   5.233   2.883   2.432  1.8270  0.3960 -0.0200
14696TIP3    H265580   5.240   2.732   2.438 -0.7473  0.2314  0.2142
14697TIP3   OH265581   3.367   3.289   3.059  0.1548  0.0690 -0.1908
14697TIP3    H165582   3.445   3.311   3.109  0.6108 -0.0169 -0.8552
14697TIP3    H265583   3.337   3.372   3.023  1.1091 -0.1550 -1.5927
14698TIP3   OH265584   5.510   0.009  15.473  0.8061 -0.2941  1.2900
14698TIP3    H165585   5.508  -0.044  15.393 -2.6936  3.0345 -1.2717
14698TIP3    H265586   5.432  -0.019  15.522 -0.4367  1.4765  0.4529
14699TIP3   OH265587   3.481   3.261  15.605  0.2905 -0.0898  0.2278
14699TIP3    H165588   3.453   3.171  15.592  0.2002  0.0696 -0.7955
14699TIP3    H265589   3.435   3.291  15.683 -0.7249 -0.5072 -0.2011
14700TIP3   OH265590   5.789   5.658  14.139 -0.1380  0.0386 -0.0330
14700TIP3    H165591   5.730   5.707  14.081  1.3229  0.1669 -1.4816
14700TIP3    H265592   5.765   5.566  14.124  0.0991  0.0814 -0.7135
14701TIP3   OH265593   0.226   4.756  16.814 -0.1511  0.4116  0.0053
14701TIP3    H165594   0.220   4.677  16.761 -0.9897  1.6204 -1.8083
14701TIP3    H265595   0.320   4.772  16.823  0.0118  0.5097 -1.6814
14702TIP3   OH265596   5.201   1.861  13.156 -0.2800 -0.5300 -0.6922
14702TIP3    H165597   5.207   1.950  13.121 -1.0468 -0.2869 -0.2359
14702TIP3    H265598   5.121   1.826  13.119  1.0043 -1.7642 -2.4347
14703TIP3   OH265599   1.788   2.877  14.936  0.6607  0.3413 -0.2757
14703TIP3    H165600   1.798   2.844  14.846 -0.3898  2.0204 -1.0726
14703TIP3    H265601   1.822   2.807  14.991  5.9390  0.9991 -2.0733
14704TIP3   OH265602   2.389   5.608   3.095 -0.0793 -0.7579  0.4369
14704TIP3    H165603   2.416   5.582   3.183 -1.7950  1.2675  1.6501
14704TIP3    H265604   2.352   5.529   3.056  1.0549 -1.7774  1.3614
14705TIP3   OH265605   0.080   5.607   3.215  0.4161 -0.2203  0.0184
14705TIP3    H165606   0.165   5.567   3.196  0.5824 -1.0479  2.1377
14705TIP3    H265607   0.067   5.590   3.309 -0.8128  2.3203  0.3941
14706TIP3   OH265608   4.898   3.988  13.145 -0.1011  0.1210 -0.4357
14706TIP3    H165609   4.927   3.928  13.076 -1.7190 -0.6267 -0.5239
14706TIP3    H265610   4.855   3.931  13.209  0.3638  0.9402  0.6304
14707TIP3   OH265611   4.654   3.341  15.856 -0.4558 -0.0219  0.0742
14707TIP3    H165612   4.572   3.355  15.905 -0.9595  0.2971 -0.8342
14707TIP3    H265613   4.673   3.248  15.869 -0.0685  0.2428  1.6213
14708TIP3   OH265614   0.760   5.671   5.705 -0.1855 -0.0495 -0.1326
14708TIP3    H165615   0.817   5.747   5.715 -1.8966  1.6392 -2.0311
14708TIP3    H265616   0.750   5.662   5.610 -1.8159 -1.2220  0.1121
14709TIP3   OH265617   4.968   3.914   6.082  0.0615  0.2187  0.0652
14709TIP3    H165618   4.959   3.902   5.987 -0.7654  1.1497  0.0139
14709TIP3    H265619   5.002   3.830   6.113  2.0276  0.4485 -1.2742
14710TIP3   OH265620   3.628   1.546  15.689 -0.4103  0.2960  0.3143
14710TIP3    H165621   3.588   1.597  15.618 -1.9849 -0.9309  0.2655
14710TIP3    H265622   3.696   1.495  15.645 -1.1840 -0.2435 -0.3072
14711TIP3   OH265623   1.492   5.677   3.750  0.6459 -0.0629  0.2335
14711TIP3    H165624   1.520   5.612   3.686 -0.7099 -0.6206  0.1711
14711TIP3    H265625   1.397   5.669   3.753  0.5036  1.3917  0.8002
14712TIP3   OH265626   3.628   1.076  14.077  0.2870  0.0457  0.0451
14712TIP3    H165627   3.670   1.149  14.121  0.9449 -0.0218 -0.4593
14712TIP3    H265628   3.631   1.098  13.984 -2.0271  0.6835  0.0467
14713TIP3   OH265629   2.108   0.214   5.299  0.1280  0.2879 -0.1702
14713TIP3    H165630   2.112   0.287   5.237 -0.8012 -0.7215 -1.4845
14713TIP3    H265631   2.057   0.248   5.373 -0.8286  0.7883 -1.0425
14714TIP3   OH265632   3.194   3.202  12.998 -0.5314 -1.1786 -0.1305
14714TIP3    H165633   3.224   3.288  12.969 -1.5757 -0.5770  0.5006
14714TIP3    H265634   3.160   3.161  12.919 -2.3259  0.0051 -0.0363
14715TIP3   OH265635   2.457   4.876  15.878  0.1533 -0.6636  0.1802
14715TIP3    H165636   2.496   4.862  15.964 -0.1755  0.6864  0.5606
14715TIP3    H265637   2.516   4.937  15.835  0.3829 -1.4232 -0.6203
14716TIP3   OH265638   0.091   0.496   1.833  0.1341  0.3171 -0.2777
14716TIP3    H165639   0.014   0.480   1.888  0.1792  2.7102  0.6225
14716TIP3    H265640   0.104   0.591   1.837  2.2238  0.1643 -1.6641
14717TIP3   OH265641   3.261   2.243   5.307 -0.0431 -0.6255 -0.1028
14717TIP3    H165642   3.235   2.305   5.239 -0.5579  1.2568  1.7306
14717TIP3    H265643   3.332   2.286   5.354  1.4011 -2.5706 -0.3544
14718TIP3   OH265644   6.798   3.706   3.276 -0.0620  0.1738  0.2263
14718TIP3    H165645   6.732   3.648   3.315 -1.5142  1.0554 -0.8088
14718TIP3    H265646   6.817   3.770   3.345 -0.1935 -0.1810  0.5922
14719TIP3   OH265647   0.975   2.812   5.805  0.6081 -0.0207  0.0870
14719TIP3    H165648   0.944   2.724   5.828 -0.6135  0.7807  1.6558
14719TIP3    H265649   0.994   2.853   5.889 -0.6932  1.8678 -0.4917
14720TIP3   OH265650   2.564   3.508  10.888 -0.4870 -0.2452  0.4062
14720TIP3    H165651   2.543   3.430  10.837 -1.2106 -0.0954  0.4685
14720TIP3    H265652   2.660   3.512  10.887 -0.3793 -1.7673  1.3611
14721TIP3   OH265653   1.163   4.926   3.711  0.2860  0.2744 -0.6428
14721TIP3    H165654   1.207   5.008   3.691  1.0175 -0.1223 -0.7083
14721TIP3    H265655   1.084   4.951   3.759 -0.3879  1.1072 -2.1423
14722TIP3   OH265656   0.765   1.890   4.349  0.0047 -0.1186  0.2763
14722TIP3    H165657   0.787   1.816   4.293 -2.4610 -1.3443  0.7884
14722TIP3    H265658   0.826   1.884   4.423  0.1920 -1.3214  0.0321
14723TIP3   OH265659   3.085   4.609   3.056  0.4159  1.0454  0.4110
14723TIP3    H165660   3.089   4.520   3.022  0.5859 -0.1781  3.2977
14723TIP3    H265661   3.156   4.655   3.012  2.3110 -1.1258  1.0005
14724TIP3   OH265662   3.395   2.373  16.457  0.2882  0.6404  0.0675
14724TIP3    H165663   3.441   2.414  16.384  1.9225 -0.5654  0.3750
14724TIP3    H265664   3.305   2.406  16.450 -0.0300 -0.5670 -3.3688
14725TIP3   OH265665   6.064   5.374   0.702  0.1138  0.0123 -0.5285
14725TIP3    H165666   5.992   5.427   0.734 -0.6162 -1.9277  1.2765
14725TIP3    H265667   6.022   5.299   0.659  1.0226 -0.8713  0.0665
14726TIP3   OH265668   4.011   1.123   4.980  0.2625  0.4791  0.1412
14726TIP3    H165669   4.016   1.082   5.066 -1.2137 -0.9309 -0.4056
14726TIP3    H265670   3.919   1.116   4.955  0.5791  1.2764 -1.3616
14727TIP3   OH265671   4.160   5.959   1.660  0.1075  0.0920 -0.4141
14727TIP3    H165672   4.222   5.886   1.652 -0.4711 -0.3975 -0.4286
14727TIP3    H265673   4.077   5.924   1.627  0.0871  1.0917 -1.5047
14728TIP3   OH265674   6.826   5.177   0.349 -0.1663 -0.2699  0.4264
14728TIP3    H165675   6.856   5.214   0.432  0.3775 -0.8187  0.4761
14728TIP3    H265676   6.889   5.108   0.329 -0.0619  0.1220 -0.6500
14729TIP3   OH265677   2.488   3.645   2.868  0.0649  0.0685  0.1106
14729TIP3    H165678   2.565   3.658   2.924  0.6039  1.8552 -0.9603
14729TIP3    H265679   2.521   3.600   2.791 -0.3198 -0.7148  0.3929
14730TIP3   OH265680   6.012   2.842   5.214 -0.1243  0.1437  0.3762
14730TIP3    H165681   6.064   2.873   5.289 -0.3161  1.1950  0.0861
14730TIP3    H265682   5.962   2.919   5.186 -0.3181 -0.3345 -0.6187
14731TIP3   OH265683   6.715   6.747   5.627 -0.4679 -0.3852  0.1795
14731TIP3    H165684   6.738   6.794   5.707  0.7307 -0.0292 -0.3355
14731TIP3    H265685   6.688   6.660   5.656 -2.1349  0.4029  1.1047
14732TIP3   OH265686   2.936   5.740  10.917 -0.5063 -0.1674  0.2745
14732TIP3    H165687   2.852   5.738  10.871 -0.4513 -2.3008  0.1536
14732TIP3    H265688   3.000   5.761  10.849 -0.6684 -1.1806 -0.2074
14733TIP3   OH265689   1.501   6.777  17.213  0.2770 -0.1213  0.2280
14733TIP3    H165690   1.429   6.723  17.182 -0.9009  1.2642  0.4390
14733TIP3    H265691   1.535   6.819  17.134  0.4283 -0.2848  0.2071
14734TIP3   OH265692   4.671   5.470   2.668 -0.1114 -0.4154  0.3819
14734TIP3    H165693   4.739   5.414   2.704  2.2386  1.0656 -1.4732
14734TIP3    H265694   4.680   5.460   2.573 -0.5183  2.0035  0.0239
14735TIP3   OH265695   4.891   5.887   2.284 -0.4045 -0.7926  0.0393
14735TIP3    H165696   4.918   5.846   2.202  0.2394 -0.5073  0.1071
14735TIP3    H265697   4.941   5.968   2.289  1.0394 -1.7127  1.6457
14736TIP3   OH265698   6.680   0.489   1.968 -0.2827 -0.1656  0.4551
14736TIP3    H165699   6.660   0.556   2.033  0.1898  1.3345 -0.8812
14736TIP3    H265700   6.612   0.499   1.902 -1.7984 -2.8446  1.4791
14737TIP3   OH265701   3.112   6.729   5.281 -0.0671  0.2931 -0.4563
14737TIP3    H165702   3.172   6.759   5.350  0.1706  1.8999 -1.3072
14737TIP3    H265703   3.027   6.765   5.307 -0.1611  0.1121 -0.5176
14738TIP3   OH265704   5.076   2.898   4.893 -0.3343 -0.2218  0.8020
14738TIP3    H165705   4.995   2.943   4.918 -0.4428 -1.2671  2.5203
14738TIP3    H265706   5.054   2.805   4.898  1.2225 -0.5584  2.3718
14739TIP3   OH265707   5.969   4.963  15.597  0.6407  0.0629  0.6532
14739TIP3    H165708   5.991   4.893  15.659  2.6109 -0.3164 -0.3756
14739TIP3    H265709   6.008   5.042  15.634  1.3923 -0.0680  0.1525
14740TIP3   OH265710   1.800   6.716   3.996 -0.1339  0.1262 -0.0273
14740TIP3    H165711   1.840   6.769   4.065 -0.1382 -0.3127  0.3175
14740TIP3    H265712   1.874   6.690   3.941  0.0330 -0.5180  0.4953
14741TIP3   OH265713   4.750   2.945   3.761  0.3304 -0.4269 -0.0285
14741TIP3    H165714   4.762   3.022   3.816 -0.3324 -0.5731  0.3326
14741TIP3    H265715   4.814   2.955   3.690  0.9084 -0.0306  0.5394
14742TIP3   OH265716   4.225   3.875   3.955 -0.4820 -0.1551 -0.5015
14742TIP3    H165717   4.303   3.859   3.902 -1.3851 -0.6186 -1.7310
14742TIP3    H265718   4.152   3.862   3.895 -1.4928  3.5372 -0.3257
14743TIP3   OH265719   0.729   4.286  16.849  0.6650  0.0084 -0.1827
14743TIP3    H165720   0.748   4.239  16.768 -1.8116 -0.7967 -0.3874
14743TIP3    H265721   0.698   4.218  16.909 -0.2948  0.9764  0.4517
14744TIP3   OH265722   5.900   6.261   2.827 -0.3937 -0.0559  0.3790
14744TIP3    H165723   5.850   6.312   2.764 -0.5995  1.2635  1.5614
14744TIP3    H265724   5.984   6.306   2.833 -0.6203  0.2347  1.5290
14745TIP3   OH265725   2.873   4.843  11.956  0.0337  0.2548 -0.2640
14745TIP3    H165726   2.838   4.793  12.030  1.3676 -0.9599 -0.4106
14745TIP3    H265727   2.948   4.792  11.925  0.1678  1.2848 -1.7820
14746TIP3   OH265728   2.490   5.384  11.531 -0.5682  0.0988  0.5715
14746TIP3    H165729   2.507   5.289  11.528 -2.7133 -0.3153  0.1489
14746TIP3    H265730   2.535   5.413  11.610  1.4776 -0.9501 -0.1274
14747TIP3   OH265731   1.340   3.770  15.519 -0.1499  0.9897  0.0956
14747TIP3    H165732   1.255   3.766  15.563 -0.6100 -0.9496 -0.8337
14747TIP3    H265733   1.319   3.801  15.431 -0.3397 -1.7485 -0.9163
14748TIP3   OH265734   6.573   5.187  11.595  0.5399  0.2028  0.4950
14748TIP3    H165735   6.532   5.270  11.621 -0.8672 -0.1407 -0.4922
14748TIP3    H265736   6.503   5.140  11.549  1.3790 -1.4382  0.8443
14749TIP3   OH265737   6.009   3.248  12.401 -0.1747  0.0058 -0.1447
14749TIP3    H165738   5.958   3.188  12.455  0.9261 -0.2665  0.6218
14749TIP3    H265739   6.017   3.204  12.317  0.5431 -0.9041  0.3813
14750TIP3   OH265740   3.899   1.571  15.146  0.2191 -0.0269  0.1153
14750TIP3    H165741   3.811   1.554  15.113  0.5290 -0.6889 -0.3798
14750TIP3    H265742   3.956   1.564  15.070  0.4850  2.6250 -0.0289
14751TIP3   OH265743   2.078   4.743  16.412 -0.3055 -0.4080  0.6092
14751TIP3    H165744   2.094   4.662  16.460  0.2599 -1.5297 -1.3472
14751TIP3    H265745   2.155   4.797  16.428  0.3495 -1.1922  0.1786
14752TIP3   OH265746   6.167   1.338   4.183  0.4908  0.2600 -0.3654
14752TIP3    H165747   6.098   1.396   4.213  1.1598  1.5808 -1.2675
14752TIP3    H265748   6.122   1.269   4.135 -0.5395 -1.5530  2.9630
14753TIP3   OH265749   5.139   5.200  12.519  0.0441  0.0725  0.0811
14753TIP3    H165750   5.128   5.241  12.433 -1.4385  2.1919  1.2222
14753TIP3    H265751   5.090   5.118  12.512  0.2972 -0.0015 -1.2073
14754TIP3   OH265752   2.211   6.634  17.241  0.8157  0.6773 -0.3384
14754TIP3    H165753   2.130   6.610  17.284  1.0476 -1.0183 -0.7962
14754TIP3    H265754   2.280   6.610  17.303  1.0094  1.4471 -0.2451
14755TIP3   OH265755   5.269   1.842   5.718 -0.8525 -0.1273  0.0856
14755TIP3    H165756   5.328   1.849   5.794 -0.8577 -0.8300  0.1598
14755TIP3    H265757   5.319   1.793   5.654 -1.2026 -0.3516 -0.0142
14756TIP3   OH265758   2.868   2.233  15.801  0.1075 -0.8300 -0.1378
14756TIP3    H165759   2.861   2.138  15.797  3.5009 -1.2837  0.7696
14756TIP3    H265760   2.961   2.249  15.818 -0.1615  2.7021 -1.1224
14757TIP3   OH265761   0.207   6.532   1.365  0.0511 -0.7418 -0.1471
14757TIP3    H165762   0.185   6.458   1.309 -0.9004  0.3381 -1.2672
14757TIP3    H265763   0.213   6.607   1.305 -0.6912  0.4000  1.1371
14758TIP3   OH265764   0.205   5.365   0.183 -0.0364  0.6437 -0.2123
14758TIP3    H165765   0.286   5.335   0.224 -1.6825 -2.4561  1.1131
14758TIP3    H265766   0.146   5.380   0.257 -2.6815 -3.8275 -1.0744
14759TIP3   OH265767   2.923   2.879  16.862  0.2348 -0.3228  0.0979
14759TIP3    H165768   2.971   2.833  16.792 -1.7493 -1.4188 -0.6121
14759TIP3    H265769   2.950   2.835  16.942  0.2967 -1.0513 -0.3127
14760TIP3   OH265770   6.074   3.352   3.750 -0.3316 -0.5072 -0.2471
14760TIP3    H165771   6.153   3.401   3.771 -0.4011 -0.5700  0.1715
14760TIP3    H265772   6.088   3.266   3.791 -1.3642  0.0446  1.3834
14761TIP3   OH265773   2.067   6.494   0.865  0.6521 -0.9848 -0.1127
14761TIP3    H165774   2.017   6.572   0.891 -2.1545 -2.1886 -1.4185
14761TIP3    H265775   2.104   6.460   0.946  1.2026  1.1602  0.6027
14762TIP3   OH265776   6.267   4.898  12.441  0.9192  0.3089  0.3368
14762TIP3    H165777   6.313   4.939  12.367 -1.4203  1.9597 -0.3403
14762TIP3    H265778   6.185   4.867  12.404 -0.9685  2.4107  2.3679
14763TIP3   OH265779   4.487   4.850  15.273 -0.0959  0.0254  0.5035
14763TIP3    H165780   4.525   4.840  15.186 -0.1246  1.4693  0.3022
14763TIP3    H265781   4.450   4.764  15.293 -1.5346  0.0862 -1.5955
14764TIP3   OH265782   4.993   4.641  11.594  0.0495  0.4393  0.0397
14764TIP3    H165783   5.079   4.679  11.607 -0.1614  0.5774  1.2319
14764TIP3    H265784   4.971   4.659  11.503  0.1191  2.8600  0.4370
14765TIP3   OH265785   3.751   3.724  15.129  0.2693  0.0585 -0.0975
14765TIP3    H165786   3.767   3.679  15.211 -0.6875  1.8959  1.1572
14765TIP3    H265787   3.674   3.680  15.092  0.4808 -0.5347  0.1567
14766TIP3   OH265788   0.319   3.303  15.132  1.1189 -0.1961  0.3149
14766TIP3    H165789   0.250   3.341  15.185  2.1419  0.5204  1.1815
14766TIP3    H265790   0.307   3.208  15.140 -0.5062 -0.0954 -0.5907
14767TIP3   OH265791   0.804   4.683  11.408  0.5268 -0.5515  0.0159
14767TIP3    H165792   0.779   4.609  11.352 -0.3599 -0.0438 -0.2870
14767TIP3    H265793   0.895   4.701  11.386  0.2533 -0.4946 -1.1295
14768TIP3   OH265794   2.650   3.329  13.757  0.1968  0.3316  0.5341
14768TIP3    H165795   2.624   3.416  13.788  0.5930  0.3740  0.7502
14768TIP3    H265796   2.704   3.293  13.827 -1.5180 -0.8852  1.3073
14769TIP3   OH265797   1.657   4.304  16.169 -0.4042 -0.0502 -0.2050
14769TIP3    H165798   1.623   4.365  16.104  0.5421 -1.7670 -2.4807
14769TIP3    H265799   1.735   4.266  16.128  1.0958 -0.2223  2.5534
14770TIP3   OH265800   1.943   4.884  15.464  0.7273 -0.2484 -0.0667
14770TIP3    H165801   2.016   4.945  15.449  0.6750 -0.3225 -0.6245
14770TIP3    H265802   1.984   4.798  15.470  0.6701 -0.3053 -0.5126
14771TIP3   OH265803   5.330   5.273   0.417  0.1420 -0.1068 -0.1694
14771TIP3    H165804   5.354   5.365   0.416 -0.6678  0.1397  0.9601
14771TIP3    H265805   5.370   5.237   0.338  1.5612  0.9239  0.0307
14772TIP3   OH265806   4.743   2.123  13.341  0.0075 -0.7427 -0.1616
14772TIP3    H165807   4.687   2.051  13.368 -2.6562  0.5113 -1.9923
14772TIP3    H265808   4.684   2.199  13.335  2.1261  0.9448 -1.0818
14773TIP3   OH265809   5.331   5.107  11.801 -0.1033  0.3743 -0.9302
14773TIP3    H165810   5.347   5.201  11.807 -1.7629  0.7276 -1.4252
14773TIP3    H265811   5.244   5.100  11.763 -0.5850 -1.3486  0.3361
14774TIP3   OH265812   2.153   2.097  10.918 -0.2879  0.2926 -0.0862
14774TIP3    H165813   2.218   2.039  10.878 -0.2363 -0.2294  0.7122
14774TIP3    H265814   2.070   2.052  10.905 -0.3763  0.5265 -0.3313
14775TIP3   OH265815   3.413   4.990  15.047  0.3509  0.3287  0.1614
14775TIP3    H165816   3.330   5.038  15.046 -1.0848 -1.7557  3.0040
14775TIP3    H265817   3.417   4.949  14.960 -2.5148 -0.7524  0.3955
14776TIP3   OH265818   3.972   1.216   3.492  0.5551 -0.9115  0.1803
14776TIP3    H165819   3.894   1.265   3.465  0.2493 -1.4590  0.0496
14776TIP3    H265820   4.036   1.283   3.514  1.0095 -0.4048 -2.3883
14777TIP3   OH265821   2.634   6.041   4.499  0.0477  0.6012  1.0715
14777TIP3    H165822   2.586   6.104   4.445 -0.8603  0.2024  1.3892
14777TIP3    H265823   2.707   6.092   4.535 -0.2752  1.2956  0.7754
14778TIP3   OH265824   0.393   0.770  15.593 -0.4502  0.0014  0.4895
14778TIP3    H165825   0.304   0.761  15.558 -0.5140  0.1579  0.6141
14778TIP3    H265826   0.386   0.839  15.659 -0.3701 -0.4393  0.9580
14779TIP3   OH265827   1.559   6.385   3.541  0.4494  0.1643 -0.2069
14779TIP3    H165828   1.512   6.304   3.522  0.4144  0.3394 -0.8963
14779TIP3    H265829   1.598   6.370   3.627 -0.8710  0.0251  0.3952
14780TIP3   OH265830   4.421   4.141  16.915 -0.2485  0.1195  0.1975
14780TIP3    H165831   4.338   4.189  16.924 -1.1097 -1.0370 -1.2188
14780TIP3    H265832   4.425   4.087  16.994 -0.9809  0.0069  0.1696
14781TIP3   OH265833   3.368   3.895  11.544 -0.5536  0.1417  0.4356
14781TIP3    H165834   3.353   3.972  11.489  0.0275 -0.5875 -0.7900
14781TIP3    H265835   3.366   3.928  11.634 -1.8241  1.3222  0.0028
14782TIP3   OH265836   6.142   0.985   6.611 -0.0436  0.2190 -0.0768
14782TIP3    H165837   6.097   0.902   6.595 -1.1239  0.7470  0.1152
14782TIP3    H265838   6.223   0.960   6.656  0.9300 -0.9276 -2.2949
14783TIP3   OH265839   4.643   1.287  12.282  0.1743 -0.2664 -0.3539
14783TIP3    H165840   4.602   1.285  12.196 -0.8768 -1.5791  0.1477
14783TIP3    H265841   4.733   1.315  12.265 -0.3991  0.8744 -1.6920
14784TIP3   OH265842   1.504   3.907   0.692 -0.1302  0.5683 -0.1325
14784TIP3    H165843   1.585   3.859   0.711 -0.7185 -0.7552 -0.8342
14784TIP3    H265844   1.435   3.855   0.733 -0.5521  2.3088  1.4707
14785TIP3   OH265845   2.367   5.703   3.365  0.1769 -0.4116  0.1825
14785TIP3    H165846   2.414   5.786   3.368 -0.6971  0.0868  0.5480
14785TIP3    H265847   2.425   5.640   3.407  1.1343 -0.1412 -0.6916
14786TIP3   OH265848   4.662   5.609   5.461  0.0934 -0.2675  0.1573
14786TIP3    H165849   4.740   5.664   5.448 -0.3317  0.8408  1.9852
14786TIP3    H265850   4.588   5.668   5.448 -0.4513 -1.1185 -0.7338
14787TIP3   OH265851   5.387   2.816  10.675 -0.6857 -0.0542  0.1482
14787TIP3    H165852   5.295   2.792  10.683 -0.6283  0.1532  1.8594
14787TIP3    H265853   5.395   2.850  10.586 -2.3035  0.0946  0.0208
14788TIP3   OH265854   3.208   6.735  16.129  0.7564 -0.0677 -0.2342
14788TIP3    H165855   3.184   6.680  16.204  0.4113 -0.1951 -0.4364
14788TIP3    H265856   3.142   6.805  16.128  1.4017  0.5593  0.2352
14789TIP3   OH265857   1.082   2.536   6.284 -0.0383  0.0963  0.2326
14789TIP3    H165858   1.089   2.556   6.377  1.3020 -0.8352  0.3550
14789TIP3    H265859   1.137   2.601   6.241  0.2458 -0.1654  0.1958
14790TIP3   OH265860   2.816   2.694  14.037  0.5159  0.5649 -0.0301
14790TIP3    H165861   2.884   2.660  14.094 -1.4410  0.7083  2.5723
14790TIP3    H265862   2.759   2.619  14.019 -0.6671  1.2039  0.9563
14791TIP3   OH265863   2.487   0.773   3.446 -0.1653  0.1529 -1.2362
14791TIP3    H165864   2.514   0.857   3.484  1.8684 -0.1790 -1.7917
14791TIP3    H265865   2.535   0.768   3.363 -0.2498 -1.5482 -1.2184
14792TIP3   OH265866   0.545   3.470  16.730  0.1068  0.2818  0.4452
14792TIP3    H165867   0.598   3.457  16.809  0.3462  1.6328  0.5270
14792TIP3    H265868   0.607   3.505  16.665 -0.4063  0.6060  0.1294
14793TIP3   OH265869   4.522   0.925  16.186  0.1656 -0.3127  0.0632
14793TIP3    H165870   4.484   0.998  16.137  0.2145 -0.6700 -0.5204
14793TIP3    H265871   4.540   0.859  16.119 -2.1920 -1.8931  0.8668
14794TIP3   OH265872   5.416   4.511  16.940  0.1922  0.2729  0.0643
14794TIP3    H165873   5.348   4.568  16.903  0.1578 -0.0284 -0.3348
14794TIP3    H265874   5.424   4.541  17.031 -0.1429  0.6202 -0.0148
14795TIP3   OH265875   3.119   3.625  13.675 -0.3582 -0.0661  0.2255
14795TIP3    H165876   3.128   3.594  13.585 -0.1869  0.7845 -0.0625
14795TIP3    H265877   3.041   3.581  13.708 -0.4022 -0.4074 -0.3273
14796TIP3   OH265878   6.289   4.175  13.590 -0.0269 -0.0907 -0.4576
14796TIP3    H165879   6.314   4.258  13.549 -0.8906  0.2982 -0.2116
14796TIP3    H265880   6.256   4.121  13.518  1.2472 -0.5191 -0.7453
14797TIP3   OH265881   3.469   4.472   2.458 -0.3637 -0.3533 -0.3575
14797TIP3    H165882   3.431   4.474   2.546  1.3974  0.9306  0.4588
14797TIP3    H265883   3.556   4.434   2.471  0.1091  0.2957 -1.4484
14798TIP3   OH265884   3.044   5.508  11.456 -0.0268  0.1994 -0.4263
14798TIP3    H165885   3.080   5.436  11.507  0.5901  0.2167 -0.8323
14798TIP3    H265886   2.965   5.471  11.415 -0.4646  0.1523  0.4249
14799TIP3   OH265887   5.922   3.373  13.539 -0.5747 -0.4673 -0.4197
14799TIP3    H165888   5.961   3.297  13.496  0.3620 -0.4821  0.4321
14799TIP3    H265889   5.849   3.337  13.590  1.1458 -1.1730  1.6871
14800TIP3   OH265890   2.321   6.049  12.397 -0.1146  0.4933  0.2199
14800TIP3    H165891   2.383   6.093  12.456  0.9246  0.5093 -0.8434
14800TIP3    H265892   2.337   5.956  12.410 -0.8822  0.4496  0.9699
14801TIP3   OH265893   4.338   1.200   0.134 -0.2580 -0.0994  0.2427
14801TIP3    H165894   4.324   1.208   0.039 -0.7927  2.7499  0.4848
14801TIP3    H265895   4.433   1.201   0.144 -0.1443  2.7924 -0.1749
14802TIP3   OH265896   0.710   2.311  13.461  0.5650 -0.3012 -0.3566
14802TIP3    H165897   0.774   2.314  13.533  1.5486 -0.1161 -1.2078
14802TIP3    H265898   0.751   2.254  13.396 -0.4365 -0.6801 -0.6670
14803TIP3   OH265899   3.203   0.010  13.057 -0.7702 -0.1711  0.0197
14803TIP3    H165900   3.138  -0.028  12.998 -0.8109 -1.4013  0.8138
14803TIP3    H265901   3.274  -0.055  13.058 -0.5462  0.0829  0.9071
14804TIP3   OH265902   3.136   4.575  13.689 -0.6178 -0.0969  0.1214
14804TIP3    H165903   3.151   4.606  13.599 -0.1923 -0.0274  0.2167
14804TIP3    H265904   3.146   4.653  13.743 -1.3221 -0.0489  0.1877
14805TIP3   OH265905   0.852   2.926  14.677  0.0675 -0.1840 -0.0139
14805TIP3    H165906   0.924   2.905  14.737  0.7791 -0.7806 -1.0353
14805TIP3    H265907   0.799   2.847  14.675 -1.1158  0.5292  1.3602
14806TIP3   OH265908   4.778   5.543   6.284  0.4850 -0.6177  0.3955
14806TIP3    H165909   4.785   5.449   6.270 -2.3348 -0.8164 -0.2973
14806TIP3    H265910   4.727   5.552   6.365 -0.1606  0.2874 -0.0872
14807TIP3   OH265911   5.909   4.676   3.459 -0.0786  0.6801 -0.2527
14807TIP3    H165912   5.943   4.731   3.530  0.5429  0.2357 -0.2048
14807TIP3    H265913   5.986   4.636   3.419 -0.5486 -0.5467  0.0249
14808TIP3   OH265914   3.580   2.272   5.666 -0.5626  0.1308 -0.2385
14808TIP3    H165915   3.570   2.245   5.758 -1.6467  1.2242 -0.0065
14808TIP3    H265916   3.569   2.367   5.668  2.1385  0.5511 -1.1481
14809TIP3   OH265917   1.432   0.798   5.056 -0.1580 -0.1856  0.4249
14809TIP3    H165918   1.516   0.759   5.033 -0.4280 -0.6608  0.2321
14809TIP3    H265919   1.454   0.869   5.117  0.2648 -1.3241  1.6402
14810TIP3   OH265920   1.715   0.440   4.075 -0.4012  0.2503 -0.3864
14810TIP3    H165921   1.775   0.505   4.039  1.6451 -2.0184 -1.4232
14810TIP3    H265922   1.647   0.431   4.009 -0.3497  0.9073 -0.5278
14811TIP3   OH265923   1.918   1.796  15.984  0.1219 -0.0681  0.2717
14811TIP3    H165924   1.823   1.810  15.977  0.5122  4.0089  0.7189
14811TIP3    H265925   1.928   1.740  16.061 -1.8885 -0.4652  0.3115
14812TIP3   OH265926   6.419   4.682   2.147  0.1441  0.4724 -0.1419
14812TIP3    H165927   6.366   4.602   2.143  0.5508  0.1733  0.3827
14812TIP3    H265928   6.396   4.721   2.231  0.1719  0.7470 -0.2628
14813TIP3   OH265929   3.094   1.026  13.611 -0.0583 -0.6823  0.1974
14813TIP3    H165930   3.186   1.031  13.587  0.4445  0.0745  2.0713
14813TIP3    H265931   3.049   1.078  13.545  1.1704  0.8947  0.5275
14814TIP3   OH265932   0.843   2.184   4.529  0.1166 -0.0644  0.2518
14814TIP3    H165933   0.833   2.133   4.610 -1.2338  1.1643  0.9313
14814TIP3    H265934   0.923   2.234   4.542 -0.0989  0.1368  0.8599
14815TIP3   OH265935   6.558   2.482   1.009  0.1918 -0.2727  0.3533
14815TIP3    H165936   6.486   2.420   1.009 -0.1593  0.0802 -1.3711
14815TIP3    H265937   6.542   2.539   1.084 -0.5329 -1.0711  0.8073
14816TIP3   OH265938   0.093   4.694   1.115  1.1051 -0.3488 -0.2844
14816TIP3    H165939   0.019   4.732   1.066  1.7633 -0.7688 -1.6743
14816TIP3    H265940   0.128   4.767   1.166 -0.8566 -0.3652  1.2151
14817TIP3   OH265941   5.575   6.753   2.593 -0.0819  0.1793  0.1962
14817TIP3    H165942   5.591   6.847   2.603  1.8594 -0.3825  4.2635
14817TIP3    H265943   5.659   6.718   2.566 -1.2002 -0.3876 -2.9832
14818TIP3   OH265944   4.977   5.654   6.605 -0.6693 -0.7968  0.6115
14818TIP3    H165945   4.888   5.631   6.634 -0.0198 -1.2069  2.4204
14818TIP3    H265946   5.027   5.661   6.686  1.3689 -2.2942 -0.4288
14819TIP3   OH265947   4.926   1.313  13.136  0.1876 -0.5188 -0.5740
14819TIP3    H165948   4.930   1.236  13.080  0.7667 -2.7446  2.2943
14819TIP3    H265949   5.014   1.351  13.129  0.1180 -0.5031 -1.4803
14820TIP3   OH265950   0.561   5.433   0.640  0.4625 -0.4058 -0.8372
14820TIP3    H165951   0.588   5.523   0.657 -0.8096  0.3130 -2.3236
14820TIP3    H265952   0.539   5.397   0.727  0.2953  0.9574 -0.2955
14821TIP3   OH265953   5.802   0.117   2.067 -0.0003  0.0600 -0.1798
14821TIP3    H165954   5.871   0.173   2.032 -0.8265 -0.0228 -2.0211
14821TIP3    H265955   5.767   0.166   2.141  0.6077  1.0775 -0.5465
14822TIP3   OH265956   3.126   5.455  13.477  0.1722  0.2196  0.0226
14822TIP3    H165957   3.036   5.434  13.501  0.5823 -1.0296  0.5200
14822TIP3    H265958   3.129   5.444  13.382  0.2508 -1.6093  0.2068
14823TIP3   OH265959   5.327   0.852   2.293 -0.4154  0.9877 -0.8333
14823TIP3    H165960   5.261   0.915   2.322 -0.2093  0.7900  0.1224
14823TIP3    H265961   5.278   0.773   2.273 -0.4799  0.8349 -0.1044
14824TIP3   OH265962   0.810   3.644   3.559  0.2718 -0.1076  1.3535
14824TIP3    H165963   0.831   3.697   3.482  0.4983 -3.3277 -0.9947
14824TIP3    H265964   0.720   3.667   3.581 -0.2932 -0.0714 -0.7890
14825TIP3   OH265965   4.276   0.098  15.065  0.2900 -0.0834 -0.6230
14825TIP3    H165966   4.201   0.058  15.110 -0.3593  1.8082  0.0458
14825TIP3    H265967   4.260   0.192  15.071  1.7363  0.2939 -2.2151
14826TIP3   OH265968   3.359   2.476   0.215 -0.9197 -0.5700  0.1868
14826TIP3    H165969   3.398   2.492   0.301  1.6085  1.3052 -1.1465
14826TIP3    H265970   3.270   2.511   0.221  0.3160  2.8269  1.1616
14827TIP3   OH265971   1.207   4.043   4.623 -0.2703  0.0617 -0.2832
14827TIP3    H165972   1.292   4.021   4.586 -0.7149  1.2550 -2.1491
14827TIP3    H265973   1.144   3.992   4.572 -0.7595  0.1084  0.2629
14828TIP3   OH265974   4.882   4.644  14.369  0.1218 -0.2849 -0.9393
14828TIP3    H165975   4.862   4.689  14.452  0.9350  0.2192 -1.0060
14828TIP3    H265976   4.853   4.554  14.383 -2.0880  0.3651 -1.0023
14829TIP3   OH265977   3.772   6.812   3.139  0.5109  0.2957 -0.1258
14829TIP3    H165978   3.703   6.780   3.080  0.8594 -2.6695  0.8838
14829TIP3    H265979   3.822   6.733   3.162  1.8714  1.7254  2.2116
14830TIP3   OH265980   6.451   0.176  11.215 -0.0222  0.0541  0.7206
14830TIP3    H165981   6.415   0.158  11.302 -1.1319 -0.1378  0.2338
14830TIP3    H265982   6.400   0.122  11.156  1.9738 -1.2872  0.1181
14831TIP3   OH265983   5.409   5.043   5.606  0.0327  0.3985  0.3651
14831TIP3    H165984   5.379   5.103   5.675 -1.6171 -0.5528  0.5150
14831TIP3    H265985   5.459   5.099   5.546  0.9258  1.3778  1.9397
14832TIP3   OH265986   6.499   6.781  13.201 -0.3782  0.4200  0.2594
14832TIP3    H165987   6.505   6.692  13.166  1.0117 -0.2434  2.0363
14832TIP3    H265988   6.544   6.835  13.137  1.9484 -0.7247  0.8229
14833TIP3   OH265989   3.020   3.545   0.560 -0.8394 -0.7240 -0.0897
14833TIP3    H165990   2.975   3.501   0.632  1.1788 -0.5279  1.4038
14833TIP3    H265991   3.108   3.507   0.561  0.1180  1.3434 -0.5389
14834TIP3   OH265992   0.525   4.295   2.091 -0.4868 -0.1090 -0.2286
14834TIP3    H165993   0.466   4.352   2.140  0.4671 -0.6936  1.6782
14834TIP3    H265994   0.471   4.219   2.067 -0.9181  0.1066  0.0565
14835TIP3   OH265995   0.723   2.447  11.243 -0.0357 -0.3352 -0.3847
14835TIP3    H165996   0.798   2.463  11.185 -0.5961  2.0670 -0.5579
14835TIP3    H265997   0.761   2.450  11.331  0.2601 -0.2930 -0.5112
14836TIP3   OH265998   4.125   1.063  14.453 -0.4950 -0.0521  0.3715
14836TIP3    H165999   4.066   0.995  14.420 -1.3446  0.7347  0.2383
14836TIP3    H266000   4.084   1.145  14.427  0.0656  0.5402  1.3018
14837TIP3   OH266001   2.300   5.764  13.960  0.6111  0.0408 -0.1603
14837TIP3    H166002   2.330   5.828  13.896 -0.2339 -1.5650 -2.2944
14837TIP3    H266003   2.336   5.680  13.928  0.7929 -0.7273  1.9195
14838TIP3   OH266004   6.262   6.022   5.564  0.6292 -0.1558 -0.1935
14838TIP3    H166005   6.213   6.046   5.643 -0.0973  0.9890 -0.9641
14838TIP3    H266006   6.331   6.088   5.558 -0.0424  0.4844 -1.1391
14839TIP3   OH266007   3.431   6.552  10.606  0.3934  0.1992  0.0231
14839TIP3    H166008   3.454   6.608  10.680 -1.1983  0.6222  0.2288
14839TIP3    H266009   3.355   6.594  10.566 -1.2588 -2.0732  0.5517
14840TIP3   OH266010   1.610   0.461  16.695 -0.4463  0.6151 -0.1329
14840TIP3    H166011   1.677   0.482  16.761  0.4687  0.9152 -1.1263
14840TIP3    H266012   1.596   0.543  16.648 -1.9727  0.7044  0.4331
14841TIP3   OH266013   5.713   5.204   5.555  0.3709  0.5215  0.0867
14841TIP3    H166014   5.770   5.281   5.548 -0.2746  1.1005  1.0642
14841TIP3    H266015   5.694   5.196   5.648 -0.1893 -0.3741 -0.0932
14842TIP3   OH266016   1.567   1.281   2.395  0.3823 -0.3480  0.4904
14842TIP3    H166017   1.642   1.225   2.373 -0.0702 -1.1454  0.9610
14842TIP3    H266018   1.575   1.297   2.489 -1.0529 -1.9938  0.9348
14843TIP3   OH266019   5.298   6.695   5.688  0.7417 -0.1437 -0.5091
14843TIP3    H166020   5.262   6.607   5.702  1.0638 -0.5567 -2.0599
14843TIP3    H266021   5.388   6.680   5.658  1.4563  0.8016  1.0551
14844TIP3   OH266022   0.791   6.465   1.520 -0.4523 -0.1754 -0.6806
14844TIP3    H166023   0.760   6.535   1.463 -0.8778 -0.6136 -1.0016
14844TIP3    H266024   0.886   6.466   1.510 -0.2502  1.6650  0.8649
14845TIP3   OH266025   3.822   5.888  11.725 -0.0606  0.0543  0.2685
14845TIP3    H166026   3.830   5.860  11.816 -0.5942  0.1571  0.3552
14845TIP3    H266027   3.912   5.893  11.693  0.0445 -2.5679 -0.0167
14846TIP3   OH266028   2.913   6.025   1.124  0.3852 -0.0155  0.0927
14846TIP3    H166029   2.856   5.988   1.192  1.0309 -2.7561 -0.7434
14846TIP3    H266030   2.970   6.086   1.171 -0.4865 -0.3617  1.6579
14847TIP3   OH266031   2.374   5.828   1.175  0.4680  0.2301  0.7036
14847TIP3    H166032   2.358   5.747   1.126 -1.2539  1.0593 -0.2101
14847TIP3    H266033   2.332   5.896   1.123  0.6373  1.5147  2.1699
14848TIP3   OH266034   2.242   4.734   3.481 -0.0004 -0.0661 -0.3516
14848TIP3    H166035   2.168   4.756   3.538 -0.3850 -0.5725 -0.6419
14848TIP3    H266036   2.249   4.638   3.488  1.8132  0.1278  1.1225
14849TIP3   OH266037   0.278   2.293  16.310  0.3359  0.1009  0.4731
14849TIP3    H166038   0.185   2.299  16.333  0.0990 -0.7006 -0.2497
14849TIP3    H266039   0.279   2.264  16.219  1.2923 -1.7981  1.0240
14850TIP3   OH266040   6.178   4.442  15.447 -0.2351 -0.0625 -0.0336
14850TIP3    H166041   6.201   4.473  15.360  1.7526  1.0258  0.8120
14850TIP3    H266042   6.208   4.351  15.449 -1.6641 -0.5852 -0.9359
14851TIP3   OH266043   1.572   0.088   5.086 -0.1862  0.3919  0.1894
14851TIP3    H166044   1.661   0.124   5.089 -0.9548  2.3480  1.3060
14851TIP3    H266045   1.532   0.128   5.009  0.2458 -1.5288 -1.1128
14852TIP3   OH266046   4.818   4.801   3.777 -0.8545  0.3718 -0.4575
14852TIP3    H166047   4.818   4.780   3.871  1.7653 -1.6122 -0.7911
14852TIP3    H266048   4.731   4.774   3.747 -0.3834 -2.9047  0.7130
14853TIP3   OH266049   6.722   6.632   1.149  0.1456 -0.3489 -0.0373
14853TIP3    H166050   6.731   6.692   1.075 -0.3129 -0.3624 -0.1071
14853TIP3    H266051   6.791   6.567   1.136  2.6053  1.7109  1.5658
14854TIP3   OH266052   2.224   3.329  13.813  0.0824 -0.5176  0.2433
14854TIP3    H166053   2.297   3.310  13.871 -0.7207 -1.6427  0.9363
14854TIP3    H266054   2.185   3.410  13.848  1.6982  0.8124 -0.8840
14855TIP3   OH266055   4.427   1.859   2.009 -0.2392 -0.5483 -0.3277
14855TIP3    H166056   4.345   1.859   2.059  0.2662  1.6603  0.6282
14855TIP3    H266057   4.431   1.772   1.969 -1.7528 -1.6259  1.6943
14856TIP3   OH266058   1.327   1.717   0.714  0.5075  0.1508 -0.8489
14856TIP3    H166059   1.385   1.716   0.638  0.2081 -1.4386 -1.0981
14856TIP3    H266060   1.361   1.647   0.770 -0.6579 -0.2602 -0.6269
14857TIP3   OH266061   1.908   5.121   0.994 -0.2863 -0.4314  0.1915
14857TIP3    H166062   1.864   5.036   0.991 -1.6889  0.2396  0.7286
14857TIP3    H266063   1.922   5.144   0.902 -1.6071 -0.4095 -0.0182
14858TIP3   OH266064   3.630   6.216  12.771  0.3292 -0.7407  0.2179
14858TIP3    H166065   3.571   6.178  12.836 -2.1671  1.5177 -0.5487
14858TIP3    H266066   3.615   6.163  12.692  0.1637 -0.8678  0.3325
14859TIP3   OH266067   6.687   3.521  15.048  0.1651  0.3105  0.0039
14859TIP3    H166068   6.770   3.474  15.039  0.0354 -0.1141  0.9483
14859TIP3    H266069   6.646   3.515  14.961  0.2457 -1.1431  0.0532
14860TIP3   OH266070   2.349   0.422  12.795 -0.7987  0.0193 -0.0054
14860TIP3    H166071   2.397   0.358  12.743 -3.0726 -1.8604  0.0839
14860TIP3    H266072   2.412   0.451  12.861  1.3811  0.6572 -2.2144
14861TIP3   OH266073   0.013   3.664   0.741  0.2650  0.1144 -0.2479
14861TIP3    H166074  -0.063   3.608   0.730 -1.4159  1.8107  1.8233
14861TIP3    H266075   0.038   3.688   0.652 -2.4994  0.5706 -1.0054
14862TIP3   OH266076   2.146   1.716   3.293 -0.1790 -0.4862 -0.1206
14862TIP3    H166077   2.129   1.734   3.386 -0.0148 -1.4957  0.1112
14862TIP3    H266078   2.217   1.775   3.270 -0.3956 -0.0386  0.3205
14863TIP3   OH266079   1.253   2.560  10.569  0.4059  0.6478 -0.0097
14863TIP3    H166080   1.277   2.543  10.660 -1.0077 -1.8579 -0.0099
14863TIP3    H266081   1.333   2.544  10.519  0.3972 -1.3743  0.5361
14864TIP3   OH266082   2.448   1.299   2.589 -0.1812  0.5501  0.4184
14864TIP3    H166083   2.462   1.384   2.631  1.1999  0.5761 -0.0614
14864TIP3    H266084   2.530   1.252   2.602 -0.1885  0.0643 -1.1201
14865TIP3   OH266085   6.592   5.503   6.679  0.0295  0.4308 -0.5448
14865TIP3    H166086   6.508   5.483   6.637 -1.4365  3.0406  0.8343
14865TIP3    H266087   6.568   5.547   6.761  2.7768 -0.0878  0.6588
14866TIP3   OH266088   3.895   4.608  15.670  0.3872  0.2140  0.5079
14866TIP3    H166089   3.958   4.588  15.601  1.0693 -1.6174  1.6003
14866TIP3    H266090   3.944   4.662  15.731  1.0525 -1.4208  1.4860
14867TIP3   OH266091   3.090   1.565   3.065  0.2742  0.0289 -0.4323
14867TIP3    H166092   3.019   1.624   3.091  0.6069  0.5353 -0.6428
14867TIP3    H266093   3.073   1.484   3.113 -0.2654  0.2541 -0.2365
14868TIP3   OH266094   4.957   0.444   6.256  0.6823 -0.1056  0.2423
14868TIP3    H166095   4.912   0.375   6.208  0.6165 -0.5606  0.9438
14868TIP3    H266096   4.887   0.508   6.275  0.2162 -0.9818  1.6424
14869TIP3   OH266097   0.574   2.948  14.274  0.6029 -0.1688  0.0023
14869TIP3    H166098   0.644   2.890  14.243  1.4369  2.0187 -2.5503
14869TIP3    H266099   0.496   2.918  14.228  0.5151 -0.6164  0.4250
14870TIP3   OH266100   2.455   4.439   5.545  0.3087 -0.3784 -0.1095
14870TIP3    H166101   2.466   4.463   5.637  0.1759 -1.6079  0.2532
14870TIP3    H266102   2.542   4.452   5.506  0.4894 -0.3221  0.3093
14871TIP3   OH266103   3.611   4.046  16.611  0.4680 -0.4317 -0.3338
14871TIP3    H166104   3.548   4.052  16.539  0.2430  1.3205 -0.0338
14871TIP3    H266105   3.652   4.132  16.614  0.9451 -0.6900  1.2156
14872TIP3   OH266106   0.582   1.137  11.309 -0.3024 -0.1575 -0.2344
14872TIP3    H166107   0.488   1.156  11.318 -0.1519  0.8003 -0.5007
14872TIP3    H266108   0.621   1.223  11.294  0.3895 -0.7549 -2.0799
14873TIP3   OH266109   2.880   4.747  14.425 -0.5567  0.1895 -0.7017
14873TIP3    H166110   2.858   4.764  14.334 -0.5473 -1.3922 -1.0265
14873TIP3    H266111   2.841   4.661  14.444 -1.2168  0.8312  1.0146
14874TIP3   OH266112   0.558   4.612   4.001  0.0115 -0.0013  0.0543
14874TIP3    H166113   0.489   4.549   4.018 -0.1251 -0.0366 -0.5924
14874TIP3    H266114   0.632   4.559   3.970 -0.0581  0.1406 -0.3604
14875TIP3   OH266115   3.356   3.576   5.147  0.4616  0.2108 -0.0067
14875TIP3    H166116   3.417   3.503   5.158 -0.5349 -0.5975  0.2358
14875TIP3    H266117   3.328   3.570   5.056  0.4127  0.3258  0.0013
14876TIP3   OH266118   3.237   2.222   2.414 -0.2371  0.2805 -0.0406
14876TIP3    H166119   3.228   2.222   2.319  1.9205  0.4972 -0.3053
14876TIP3    H266120   3.185   2.148   2.443 -2.4126  1.2736 -1.1730
14877TIP3   OH266121   4.993   5.970  12.614 -0.7533  0.3863 -0.1785
14877TIP3    H166122   4.993   5.913  12.537  0.9761 -1.9440  1.3977
14877TIP3    H266123   5.057   6.038  12.593 -0.6572  0.0517 -1.0033
14878TIP3   OH266124   4.016   5.500  12.948  0.2962  0.0274 -0.0054
14878TIP3    H166125   4.005   5.589  12.981  0.5529 -0.5646  1.7639
14878TIP3    H266126   3.951   5.493  12.878 -2.2701  0.4998  2.1634
14879TIP3   OH266127   5.975   3.844   5.130  0.3316  0.3168 -0.3345
14879TIP3    H166128   5.896   3.899   5.135  1.3018  1.8696 -1.2729
14879TIP3    H266129   6.047   3.906   5.120  1.6038 -1.1047 -0.3469
14880TIP3   OH266130   0.898   2.842  13.082 -0.5275 -0.0472  0.4782
14880TIP3    H166131   0.807   2.871  13.089  0.2715  3.1780 -0.6936
14880TIP3    H266132   0.948   2.905  13.133  1.1138 -1.9228  1.3476
14881TIP3   OH266133   4.315   3.610   1.134 -0.5748 -0.3555  0.3840
14881TIP3    H166134   4.260   3.667   1.081  1.1996  0.3059 -0.8561
14881TIP3    H266135   4.273   3.524   1.130 -1.9528  0.3003  0.2168
14882TIP3   OH266136   0.272   1.463  11.529  0.5651 -0.2317  0.0649
14882TIP3    H166137   0.329   1.412  11.587  0.4362  0.4400  0.7989
14882TIP3    H266138   0.288   1.554  11.554 -0.0073  0.0251 -0.4890
14883TIP3   OH266139   5.278   5.854  15.057 -0.1782 -0.5632  0.8169
14883TIP3    H166140   5.334   5.779  15.073 -0.0262 -0.5183  0.5182
14883TIP3    H266141   5.218   5.857  15.131  0.7953 -0.0765  1.6044
14884TIP3   OH266142   2.173   3.022  14.489  0.1278  0.2365  0.9167
14884TIP3    H166143   2.230   3.033  14.565 -1.4576 -1.0578  2.3935
14884TIP3    H266144   2.142   2.932  14.495  1.8711 -0.7735 -2.7514
14885TIP3   OH266145   1.973   0.469  14.125 -0.3139 -0.0155 -0.0631
14885TIP3    H166146   1.911   0.427  14.184  0.2515 -0.7447  0.0279
14885TIP3    H266147   1.942   0.447  14.037  0.2687 -1.0743 -0.0133
14886TIP3   OH266148   1.803   6.489   6.153  0.1420  0.2869 -0.3126
14886TIP3    H166149   1.848   6.429   6.213 -1.5128 -0.5917  0.1054
14886TIP3    H266150   1.788   6.568   6.205  0.7680  0.4092 -0.3113
14887TIP3   OH266151   0.046   5.063  14.329 -0.0166  0.1613  0.5363
14887TIP3    H166152   0.095   5.016  14.262  1.0268  2.4571 -0.4255
14887TIP3    H266153   0.101   5.057  14.407 -0.3563 -0.9809  0.7010
14888TIP3   OH266154   4.119   2.398   6.729  0.3091  0.1042 -0.2728
14888TIP3    H166155   4.053   2.412   6.661 -0.5595  1.0356  0.7179
14888TIP3    H266156   4.096   2.314   6.768 -0.0843  0.2481 -0.1838
14889TIP3   OH266157   4.169   6.628   1.911 -0.2889  0.5991 -0.0346
14889TIP3    H166158   4.227   6.591   1.978 -0.9908  1.2000  0.9486
14889TIP3    H266159   4.227   6.674   1.851  0.5098 -1.2926 -0.7853
14890TIP3   OH266160   5.468   2.828   5.654 -0.3670  0.6392  0.0453
14890TIP3    H166161   5.521   2.818   5.575  0.5237 -0.8288  0.7844
14890TIP3    H266162   5.504   2.763   5.715 -3.9060 -1.5035  0.1219
14891TIP3   OH266163   3.711   4.495   1.355 -0.5270  0.1464 -0.0535
14891TIP3    H166164   3.675   4.551   1.286  0.4834  1.7691  0.6555
14891TIP3    H266165   3.764   4.430   1.309 -0.3376  0.8512 -0.8509
14892TIP3   OH266166   6.671   0.439  11.151 -0.4607 -0.0644 -0.4517
14892TIP3    H166167   6.613   0.383  11.203 -0.5648 -0.0988 -0.6024
14892TIP3    H266168   6.619   0.517  11.131 -0.5058 -0.1556 -0.7028
14893TIP3   OH266169   0.653   4.812  13.266  0.3103 -0.6000 -0.0853
14893TIP3    H166170   0.640   4.880  13.199  0.3786 -0.3861  0.1184
14893TIP3    H266171   0.732   4.840  13.313 -0.9564  0.4321  1.5294
14894TIP3   OH266172   2.799   5.910  14.323 -0.3121 -0.0686 -0.5501
14894TIP3    H166173   2.762   5.826  14.295 -0.9646  0.3807 -1.0618
14894TIP3    H266174   2.748   5.975  14.276 -3.3028  0.9492  3.5448
14895TIP3   OH266175   1.051   5.722   0.405  0.1034  0.0168  0.2672
14895TIP3    H166176   0.969   5.770   0.414 -1.6502 -2.5973 -0.3855
14895TIP3    H266177   1.106   5.778   0.352 -2.1646  0.9335 -1.2787
14896TIP3   OH266178   0.432   4.096   2.493 -0.4122 -0.0575  0.1022
14896TIP3    H166179   0.519   4.121   2.523 -0.8029  1.4361  0.0434
14896TIP3    H266180   0.424   4.003   2.516  1.4516 -0.4113 -0.5387
14897TIP3   OH266181   0.226   2.509   4.406 -0.3262  0.1392 -0.0339
14897TIP3    H166182   0.286   2.577   4.374  0.3340 -0.5481 -0.2934
14897TIP3    H266183   0.268   2.427   4.381 -0.8741 -0.3782  0.7018
14898TIP3   OH266184   2.615   2.796   4.348 -0.1444 -0.0887  0.4896
14898TIP3    H166185   2.623   2.701   4.342 -0.0599  0.0010 -1.3112
14898TIP3    H266186   2.702   2.825   4.377  0.0805 -0.4963  0.2328
14899TIP3   OH266187   4.266   4.327   5.963 -0.4614  0.0070 -0.3989
14899TIP3    H166188   4.263   4.310   5.869  0.9482 -1.1622 -0.2637
14899TIP3    H266189   4.323   4.403   5.972  1.3671 -1.3060 -0.3752
14900TIP3   OH266190   6.331   3.838  11.049  0.2158  0.2253  0.2802
14900TIP3    H166191   6.365   3.809  11.133  0.1731 -0.1575  0.1670
14900TIP3    H266192   6.378   3.785  10.985 -0.8736 -0.5910  0.1395
14901TIP3   OH266193   2.506   3.960  15.095 -0.0154 -0.8990  0.6935
14901TIP3    H166194   2.577   4.003  15.143 -0.0256 -2.0714  1.8188
14901TIP3    H266195   2.433   3.958  15.157 -1.2420  0.6869 -0.5825
14902TIP3   OH266196   5.440   4.290   6.371  0.3684 -0.1260  0.6218
14902TIP3    H166197   5.495   4.240   6.432  0.1776 -0.7207  0.3139
14902TIP3    H266198   5.404   4.225   6.311  3.6749  0.7925 -2.7038
14903TIP3   OH266199   3.460   5.398  16.869 -0.4660 -0.2413  0.7385
14903TIP3    H166200   3.548   5.362  16.870 -0.3453  0.0676  1.3722
14903TIP3    H266201   3.438   5.403  16.776  1.3065  2.3773  0.3525
14904TIP3   OH266202   3.957   1.509  14.592 -0.0322  0.3751 -0.1872
14904TIP3    H166203   4.014   1.582  14.567 -0.0940 -0.2260 -2.3043
14904TIP3    H266204   3.869   1.544  14.585 -0.0257  0.3818 -0.2393
14905TIP3   OH266205   3.887   0.229   2.859 -0.1501  0.1333 -0.2601
14905TIP3    H166206   3.845   0.246   2.943  0.2203  0.7742 -0.1937
14905TIP3    H266207   3.940   0.151   2.873 -0.0502  0.2681  0.1196
14906TIP3   OH266208   1.763   4.881  10.622  0.2901 -0.3231 -0.1710
14906TIP3    H166209   1.689   4.921  10.666  1.6692 -0.3801  2.3886
14906TIP3    H266210   1.768   4.926  10.538 -1.2383  1.3083  0.5501
14907TIP3   OH266211   6.535   2.439  15.199 -0.4692  0.1160 -0.3499
14907TIP3    H166212   6.530   2.384  15.121  1.7730 -1.1213  0.3203
14907TIP3    H266213   6.506   2.383  15.270 -1.1553  0.8083 -0.0646
14908TIP3   OH266214   1.787   1.045  14.234 -0.7062  0.1084 -1.0115
14908TIP3    H166215   1.797   0.950  14.226 -2.6440 -0.3101  0.7728
14908TIP3    H266216   1.864   1.081  14.190 -0.2331 -2.2513 -2.2814
14909TIP3   OH266217   2.023   0.389  13.308  0.1375  0.0814 -0.1329
14909TIP3    H166218   2.071   0.415  13.387  1.2492  0.7970 -1.0201
14909TIP3    H266219   2.056   0.447  13.240  0.1275 -1.3570 -1.4163
14910TIP3   OH266220   4.121   3.409   3.838 -0.1567  0.1703 -0.3152
14910TIP3    H166221   4.161   3.325   3.861 -0.9091 -0.7513 -2.1278
14910TIP3    H266222   4.115   3.456   3.921 -1.8524 -2.4976  1.2421
14911TIP3   OH266223   6.285   6.804   6.688 -0.0005 -0.9155  0.0360
14911TIP3    H166224   6.310   6.791   6.596 -0.2017 -1.0139 -0.0049
14911TIP3    H266225   6.341   6.876   6.717  1.1238 -1.8456  0.2596
14912TIP3   OH266226   3.760   2.329   1.219 -0.0361  0.0431 -0.0521
14912TIP3    H166227   3.826   2.283   1.168  0.5414  0.5442  0.2348
14912TIP3    H266228   3.678   2.285   1.197  0.6051 -1.6527  0.8345
14913TIP3   OH266229   3.239   6.754  15.095  0.9456 -1.0344 -0.2028
14913TIP3    H166230   3.296   6.790  15.163  1.0673 -0.6312 -0.5112
14913TIP3    H266231   3.280   6.672  15.070 -0.0766 -2.1444  1.5003
14914TIP3   OH266232   3.870   5.020   0.577  0.3654  0.0635 -0.6310
14914TIP3    H166233   3.874   5.115   0.584  2.8727 -0.0659  0.8049
14914TIP3    H266234   3.799   4.994   0.636  1.8919  0.8879  1.6741
14915TIP3   OH266235   5.478   1.963   1.476  0.1711  0.6305 -0.3228
14915TIP3    H166236   5.503   1.870   1.472 -1.1499  0.2641 -0.5490
14915TIP3    H266237   5.454   1.977   1.568  0.2935  0.7316 -0.3060
14916TIP3   OH266238   6.331   0.402  14.165 -0.0039 -0.1328  0.3967
14916TIP3    H166239   6.264   0.408  14.096  0.1466 -1.8776  0.0432
14916TIP3    H266240   6.285   0.425  14.245 -0.7309 -0.1400 -0.0092
14917TIP3   OH266241   5.000   4.107  16.623 -0.2565  0.4089  0.0144
14917TIP3    H166242   4.915   4.135  16.657 -0.7671  0.5587 -1.3233
14917TIP3    H266243   5.000   4.012  16.633 -0.2381  0.4752  0.7435
14918TIP3   OH266244   6.026   0.468  13.167  0.4054 -0.0828  0.1764
14918TIP3    H166245   5.978   0.551  13.168 -0.1259 -0.3756 -0.3342
14918TIP3    H266246   6.079   0.470  13.246  0.7748  0.9584 -0.0813
14919TIP3   OH266247   4.441   2.712  11.622 -0.1235 -0.3878 -0.0464
14919TIP3    H166248   4.411   2.685  11.535  0.2607 -1.0523  0.0159
14919TIP3    H266249   4.389   2.659  11.683 -2.2961  1.9148  0.2782
14920TIP3   OH266250   2.878   5.928   4.652 -0.3715 -0.0524  0.0688
14920TIP3    H166251   2.805   5.868   4.668 -1.5933  1.4636  0.4634
14920TIP3    H266252   2.858   5.967   4.567  0.9112 -0.8521 -0.6270
14921TIP3   OH266253   1.124   5.438   1.453 -0.2713  0.6732  0.2976
14921TIP3    H166254   1.193   5.504   1.463  0.5793 -0.2347  0.6310
14921TIP3    H266255   1.144   5.372   1.519 -0.5592 -0.3653 -0.6146
14922TIP3   OH266256   3.143   2.626  14.115 -0.1843 -0.2019  0.5149
14922TIP3    H166257   3.178   2.669  14.037  6.4100  0.0060  2.9954
14922TIP3    H266258   3.119   2.698  14.174  5.5547  0.5947  2.5077
14923TIP3   OH266259   2.151   2.738  15.427  0.3578  0.6099  0.6075
14923TIP3    H166260   2.162   2.644  15.415  0.3604  0.7884 -1.0575
14923TIP3    H266261   2.160   2.775  15.339  3.2239  2.4830  1.5348
14924TIP3   OH266262   3.402   4.712  14.612 -0.0246 -0.3626 -0.1388
14924TIP3    H166263   3.444   4.628  14.591  1.4127  0.0665  0.8940
14924TIP3    H266264   3.310   4.690  14.627  0.5965 -1.9984  1.5265
14925TIP3   OH266265   3.006   0.626   3.818  0.1412 -0.0770 -0.2889
14925TIP3    H166266   3.079   0.588   3.868  0.8233  1.9531  0.3544
14925TIP3    H266267   3.044   0.702   3.775 -0.7672 -0.9957 -2.8962
14926TIP3   OH266268   0.946   0.334   3.345  0.1217  0.0982  0.5360
14926TIP3    H166269   1.002   0.352   3.270 -0.3988 -0.2921  0.0463
14926TIP3    H266270   0.872   0.394   3.335 -0.3479 -0.5085  0.2894
14927TIP3   OH266271   2.751   1.439  16.276  0.3369 -0.2608 -0.5989
14927TIP3    H166272   2.761   1.493  16.198  0.5068 -1.6876 -1.6119
14927TIP3    H266273   2.657   1.425  16.283 -0.0654  2.5368  1.4217
14928TIP3   OH266274   4.176   1.842   2.102 -0.0696  0.0296 -0.1195
14928TIP3    H166275   4.098   1.805   2.060  0.0417 -2.0314  1.3257
14928TIP3    H266276   4.153   1.850   2.194  1.2685 -0.2276  0.2707
14929TIP3   OH266277   4.504   3.892   0.440  0.5056 -0.0787 -0.1223
14929TIP3    H166278   4.419   3.851   0.425  0.2589 -0.0416  1.0432
14929TIP3    H266279   4.568   3.826   0.415  0.1157 -0.8963  0.9720
14930TIP3   OH266280   2.633   4.940  16.718 -0.1540  0.7239 -0.1608
14930TIP3    H166281   2.627   5.000  16.643 -0.2070  0.6371 -0.2247
14930TIP3    H266282   2.548   4.897  16.721 -0.2541  0.9368  0.1246
14931TIP3   OH266283   3.533   2.116   1.154 -0.2229 -0.0148 -0.2575
14931TIP3    H166284   3.539   2.184   1.087 -0.0967 -0.7315 -0.9809
14931TIP3    H266285   3.540   2.034   1.106  3.4627 -0.5700  0.9359
14932TIP3   OH266286   2.780   6.084   0.267  0.1116  0.3764 -0.0120
14932TIP3    H166287   2.732   6.118   0.191 -0.8851 -0.1932  0.3415
14932TIP3    H266288   2.817   6.001   0.237  0.0279  0.3296  0.0141
14933TIP3   OH266289   4.181   3.325   2.673 -0.4857  0.1851  0.2021
14933TIP3    H166290   4.243   3.265   2.713  1.2399  0.7869 -1.4052
14933TIP3    H266291   4.172   3.397   2.735 -0.9112 -0.6928  1.1836
14934TIP3   OH266292   1.883   0.583   2.264 -0.0215  0.2995  0.0168
14934TIP3    H166293   1.913   0.616   2.179 -0.3853  0.7683  0.0705
14934TIP3    H266294   1.960   0.538   2.300  0.0467 -0.1763 -0.6928
14935TIP3   OH266295   1.778   3.195  17.205  0.4617 -0.2585  0.1794
14935TIP3    H166296   1.789   3.270  17.146 -1.5100 -1.1928 -1.5282
14935TIP3    H266297   1.810   3.226  17.290  1.5851  1.8095 -0.9146
14936TIP3   OH266298   6.075   1.184  13.983  0.5188 -0.0777 -0.2282
14936TIP3    H166299   6.004   1.224  13.933  0.1666 -1.2333 -0.6890
14936TIP3    H266300   6.146   1.175  13.919  1.5582  2.1517  0.5097
14937TIP3   OH266301   3.715   3.994  13.522  0.6435 -0.5222 -0.3084
14937TIP3    H166302   3.630   3.965  13.487  0.9533 -0.9095 -0.7469
14937TIP3    H266303   3.776   3.925  13.498  0.5911 -1.6427  2.4240
14938TIP3   OH266304   2.750   3.818  12.615 -0.0805  0.8585 -0.3604
14938TIP3    H166305   2.667   3.865  12.610 -0.6747  0.2073  2.1126
14938TIP3    H266306   2.800   3.863  12.684 -0.5056 -1.7132  1.7833
14939TIP3   OH266307   2.941   5.526   0.232 -0.3072 -1.2325  1.0182
14939TIP3    H166308   2.892   5.590   0.284 -0.2720 -0.3874  0.0482
14939TIP3    H266309   3.033   5.546   0.248 -0.2573 -2.0376  1.8839
14940TIP3   OH266310   2.645   1.014   0.036  0.4864  0.4933 -0.1617
14940TIP3    H166311   2.678   0.962   0.109 -2.0228  0.1303  0.7965
14940TIP3    H266312   2.621   0.950  -0.031 -1.5529  0.4350  0.5749
14941TIP3   OH266313   0.798   0.537   2.070  0.2168 -0.2301 -0.0165
14941TIP3    H166314   0.785   0.535   2.165  1.5692 -0.5631  0.1797
14941TIP3    H266315   0.878   0.588   2.058  0.9746 -1.5714 -0.8618
14942TIP3   OH266316   4.624   4.328   4.249 -0.0262  0.3825  0.0045
14942TIP3    H166317   4.668   4.370   4.323  1.1261 -0.9279  0.1228
14942TIP3    H266318   4.682   4.254   4.227 -2.9927 -2.6371  1.3603
14943TIP3   OH266319   5.961   4.756   4.563  0.0489 -0.1928  0.1390
14943TIP3    H166320   5.924   4.705   4.491  0.6709  0.0476 -0.3563
14943TIP3    H266321   6.002   4.831   4.521 -0.3362  0.4118  0.8186
14944TIP3   OH266322   2.745   1.460  12.005 -0.1582 -0.2544 -0.1907
14944TIP3    H166323   2.771   1.551  11.988 -1.0705  0.1586  0.5707
14944TIP3    H266324   2.721   1.426  11.918  0.0249  0.2813 -0.4573
14945TIP3   OH266325   3.480   2.906   5.519 -0.1709 -0.2919  0.3069
14945TIP3    H166326   3.535   2.930   5.594 -2.0911 -0.1767  1.7429
14945TIP3    H266327   3.478   2.985   5.465 -0.2455  0.2593  1.0933
14946TIP3   OH266328   6.751   0.279  16.664  0.1863 -0.3354 -0.3643
14946TIP3    H166329   6.675   0.321  16.705  0.3117  0.3171 -0.7959
14946TIP3    H266330   6.761   0.197  16.713  1.2160  1.0569  1.9073
14947TIP3   OH266331   4.499   5.772   0.336  0.2637 -0.3705 -0.0310
14947TIP3    H166332   4.473   5.819   0.415  0.9776 -0.9961  0.5941
14947TIP3    H266333   4.591   5.752   0.349  0.5493  0.0589 -1.3101
14948TIP3   OH266334   6.679   5.343   3.785  0.2607  0.4909  0.2435
14948TIP3    H166335   6.731   5.394   3.723 -0.1067  0.8636  0.2409
14948TIP3    H266336   6.620   5.407   3.826  0.9435  0.3771  1.4635
14949TIP3   OH266337   4.622   0.003  15.659 -0.1848  0.1312  0.5733
14949TIP3    H166338   4.644  -0.089  15.649  0.1555  0.3322 -0.7973
14949TIP3    H266339   4.583   0.010  15.746  0.9679 -1.0625  1.2123
14950TIP3   OH266340   1.549   4.486   5.579 -0.1625  1.2178  0.3877
14950TIP3    H166341   1.621   4.473   5.518 -0.2501 -0.6878  0.6288
14950TIP3    H266342   1.575   4.561   5.632  0.8311  1.6403 -0.6679
14951TIP3   OH266343   0.471   2.051   0.130  0.3475  0.6265  0.1223
14951TIP3    H166344   0.489   2.049   0.224  0.4285 -2.6314  0.1482
14951TIP3    H266345   0.375   2.050   0.124  0.3368 -0.0785  0.2341
14952TIP3   OH266346   4.892   5.303   0.545  0.0709 -0.2301  0.2421
14952TIP3    H166347   4.927   5.261   0.623  2.3677  0.7054 -0.2028
14952TIP3    H266348   4.960   5.366   0.518 -0.2897 -0.9909 -2.8981
14953TIP3   OH266349   4.750   1.234   3.723 -0.0759 -0.0345 -0.5270
14953TIP3    H166350   4.822   1.294   3.707  0.5214 -0.7656 -0.6600
14953TIP3    H266351   4.792   1.150   3.742 -0.8290  0.0358  1.6908
14954TIP3   OH266352   0.453   2.919  11.151  0.1073  0.5251 -0.2641
14954TIP3    H166353   0.384   2.859  11.179 -0.7362  1.4575 -0.2741
14954TIP3    H266354   0.476   2.968  11.230 -0.2058  1.1423 -0.5457
14955TIP3   OH266355   5.633   3.287  11.776 -0.2855 -0.3081  0.1561
14955TIP3    H166356   5.642   3.380  11.757 -0.4053  0.0368  1.6518
14955TIP3    H266357   5.566   3.256  11.714  0.7978  0.2408 -1.3529
14956TIP3   OH266358   2.547   6.713  12.572 -0.2450 -0.3809  0.0965
14956TIP3    H166359   2.612   6.736  12.505  2.0405 -0.4309  2.1819
14956TIP3    H266360   2.565   6.773  12.644 -1.3917 -1.5785  1.4118
14957TIP3   OH266361   2.222   1.517   4.649 -0.1737 -0.2769  0.4358
14957TIP3    H166362   2.251   1.516   4.558 -1.8637 -0.3797 -0.1411
14957TIP3    H266363   2.128   1.496   4.644 -0.3329 -0.0999  2.1829
14958TIP3   OH266364   5.809   3.139   1.886  0.2417  0.1854 -0.0121
14958TIP3    H166365   5.780   3.056   1.925 -1.4770 -0.0985 -1.7166
14958TIP3    H266366   5.882   3.167   1.941  1.2545 -2.7130  0.3231
14959TIP3   OH266367   5.139   3.282   0.379  0.2410  0.3046 -0.1067
14959TIP3    H166368   5.085   3.208   0.352  1.9140 -1.6687  1.6458
14959TIP3    H266369   5.202   3.293   0.308 -0.8534  1.0332 -1.0142
14960TIP3   OH266370   1.351   3.184  17.168 -0.3126 -0.7771  0.2978
14960TIP3    H166371   1.387   3.110  17.217 -0.3549 -0.4677  0.8010
14960TIP3    H266372   1.326   3.147  17.084 -0.2491 -1.3164  0.5125
14961TIP3   OH266373   0.464   0.030   1.355 -0.8090 -0.1487  0.0068
14961TIP3    H166374   0.552  -0.002   1.335 -1.3556 -0.8416 -1.4374
14961TIP3    H266375   0.464   0.042   1.450  1.0649  0.5741 -0.0422
14962TIP3   OH266376   6.496   0.417  17.153 -0.5370  0.4385 -0.1410
14962TIP3    H166377   6.522   0.509  17.152 -0.8482  0.5310 -1.0426
14962TIP3    H266378   6.432   0.410  17.223 -0.6180  0.9384 -0.1652
14963TIP3   OH266379   5.993   0.953  13.876 -0.2270 -0.2025 -0.0062
14963TIP3    H166380   5.900   0.954  13.900 -0.8546 -0.3640 -2.2303
14963TIP3    H266381   6.033   1.019  13.934 -1.4029 -1.1820  2.0278
14964TIP3   OH266382   5.602   1.624  13.139 -0.0418  0.0149  0.0019
14964TIP3    H166383   5.657   1.639  13.216  1.3949 -1.5345 -0.6523
14964TIP3    H266384   5.525   1.680  13.152 -0.5400 -1.2441  3.2542
14965TIP3   OH266385   1.892   5.567  16.725  0.2687 -0.2565 -0.3412
14965TIP3    H166386   1.856   5.488  16.685  1.3425 -2.4119  2.5635
14965TIP3    H266387   1.825   5.595  16.787  0.2429  0.6606 -0.7718
14966TIP3   OH266388   6.225   4.844   0.286 -0.0864 -0.0022  0.0159
14966TIP3    H166389   6.142   4.798   0.296 -0.1689  0.1941  0.2456
14966TIP3    H266390   6.240   4.885   0.371 -0.1009  0.5308 -0.2304
14967TIP3   OH266391   4.437   1.158  16.073  0.7408 -0.2489 -0.0805
14967TIP3    H166392   4.363   1.216  16.056  0.6832 -0.6254 -1.1876
14967TIP3    H266393   4.511   1.217  16.089  0.3372  0.1256  0.4164
14968TIP3   OH266394   0.165   6.245  15.853 -0.1362 -0.3294 -0.3725
14968TIP3    H166395   0.145   6.173  15.914  0.3192 -1.3637 -1.3981
14968TIP3    H266396   0.081   6.268  15.814 -0.2326 -0.5500 -0.2976
14969TIP3   OH266397   0.243   3.092  14.327  0.3130  0.0874  0.3135
14969TIP3    H166398   0.156   3.116  14.357  0.4494  0.2176  0.6013
14969TIP3    H266399   0.301   3.159  14.363  0.8930 -1.3790  2.2829
14970TIP3   OH266400   5.264   3.699  15.434  0.2292 -0.0628  0.2839
14970TIP3    H166401   5.299   3.678  15.520 -0.7806  0.6611  0.8980
14970TIP3    H266402   5.189   3.756  15.452 -0.9007 -1.0707 -0.9806
14971TIP3   OH266403   6.809   3.052   4.050  0.6215 -0.3044 -0.0498
14971TIP3    H166404   6.808   3.071   3.956  0.1917 -1.3898 -0.2787
14971TIP3    H266405   6.889   3.094   4.082  1.2119 -0.6347 -1.0580
14972TIP3   OH266406   2.478   0.405   5.802  0.1283  0.1038  0.4163
14972TIP3    H166407   2.504   0.485   5.756 -0.2128  0.1218  0.2510
14972TIP3    H266408   2.391   0.425   5.838 -1.0110 -0.9402 -1.5596
14973TIP3   OH266409   1.127   6.047   2.371  0.6593 -0.0022  0.0869
14973TIP3    H166410   1.087   6.007   2.293  1.7467 -1.2046  0.1143
14973TIP3    H266411   1.169   5.975   2.416  0.3588  0.7436  1.6311
14974TIP3   OH266412   1.323   1.950   2.077  0.1307  0.2261 -0.0019
14974TIP3    H166413   1.326   1.873   2.134 -0.0033 -2.5956 -3.4231
14974TIP3    H266414   1.407   1.994   2.092  0.9525 -1.5358  0.8941
14975TIP3   OH266415   5.508   1.037  11.663 -0.3791 -0.8136 -0.0805
14975TIP3    H166416   5.426   1.064  11.624 -0.5597  0.2712  0.9810
14975TIP3    H266417   5.562   1.116  11.663  0.0816 -1.1157  0.6464
14976TIP3   OH266418   0.927   2.330   5.700  0.1333 -0.4875  0.3708
14976TIP3    H166419   0.946   2.377   5.781 -0.5038 -0.1048  0.3061
14976TIP3    H266420   0.906   2.398   5.636 -0.9761 -0.8460  0.3272
14977TIP3   OH266421   0.049   3.670  16.776 -0.5977 -0.8460 -0.3576
14977TIP3    H166422   0.138   3.655  16.743 -0.5678 -0.7901 -0.3002
14977TIP3    H266423   0.061   3.691  16.868 -0.6359 -0.3686 -0.4612
14978TIP3   OH266424   1.180   1.552  11.612 -0.3135  0.0774 -0.4373
14978TIP3    H166425   1.168   1.646  11.624 -1.8126 -0.0813 -0.6002
14978TIP3    H266426   1.092   1.516  11.608  0.2242 -1.2459 -1.1507
14979TIP3   OH266427   4.077   2.330  16.107 -0.1546  0.5135 -0.9728
14979TIP3    H166428   4.131   2.397  16.064  0.0667  0.6562 -0.4832
14979TIP3    H266429   4.117   2.319  16.193 -0.6923  0.3595 -0.7380
14980TIP3   OH266430   6.344   3.331   2.349  0.9762 -0.0121 -0.1044
14980TIP3    H166431   6.419   3.379   2.385  0.7220 -0.6679  1.3641
14980TIP3    H266432   6.345   3.353   2.256  2.1378  1.1297  0.1352
14981TIP3   OH266433   2.625   1.144  12.672  0.1346 -0.2735  0.1204
14981TIP3    H166434   2.670   1.087  12.609  3.3404  0.7886  1.2517
14981TIP3    H266435   2.541   1.101  12.687 -0.1940 -1.3494 -3.6864
14982TIP3   OH266436   5.411   0.537   4.272  0.3085 -0.6054 -0.6982
14982TIP3    H166437   5.325   0.521   4.310  1.3239 -0.7237  1.7314
14982TIP3    H266438   5.393   0.585   4.191 -2.0955 -2.3603 -1.3117
14983TIP3   OH266439   2.754   6.397  12.778 -0.4521  0.0119 -0.3258
14983TIP3    H166440   2.685   6.459  12.753  0.6167  1.3212 -0.2003
14983TIP3    H266441   2.768   6.344  12.700 -1.7059 -0.3949 -0.2942
14984TIP3   OH266442   6.629   2.936  16.679 -0.5520  0.5907 -0.1435
14984TIP3    H166443   6.577   2.933  16.760  0.1725  1.1741  0.3658
14984TIP3    H266444   6.657   3.028  16.673  0.9809  0.1519 -0.0203
14985TIP3   OH266445   2.972   5.955  11.677 -0.3208 -0.5153 -0.2286
14985TIP3    H166446   3.025   5.885  11.637  2.1229  0.4315  1.1451
14985TIP3    H266447   3.036   6.016  11.713 -2.3976  1.0003  1.1176
14986TIP3   OH266448   1.346   4.589   1.408  0.3189 -0.3290 -0.2978
14986TIP3    H166449   1.315   4.669   1.366  0.1339 -0.3661 -0.2341
14986TIP3    H266450   1.394   4.619   1.485  1.7161 -0.2059 -1.1903
14987TIP3   OH266451   2.118   0.536  13.089  0.0906 -0.4514 -0.1990
14987TIP3    H166452   2.204   0.574  13.109 -0.5941  0.7033  0.6713
14987TIP3    H266453   2.084   0.589  13.017  0.2124 -1.0937 -0.7403
14988TIP3   OH266454   3.399   1.302  13.187  0.3048  0.0987 -0.3978
14988TIP3    H166455   3.364   1.213  13.191 -1.4488  0.7841  2.3115
14988TIP3    H266456   3.445   1.313  13.271  2.2048  1.1504 -1.5036
14989TIP3   OH266457   4.579   5.109   1.796 -0.3664 -0.0696  0.7515
14989TIP3    H166458   4.586   5.018   1.822  0.7810 -0.2821 -0.2044
14989TIP3    H266459   4.526   5.150   1.864 -1.3390 -1.5473  0.9215
14990TIP3   OH266460   0.493   5.762   0.043 -0.2015  0.2922 -0.0418
14990TIP3    H166461   0.417   5.725   0.088  0.9664 -0.8958  1.0456
14990TIP3    H266462   0.537   5.687   0.003  1.5252  0.6098  1.1374
14991TIP3   OH266463   1.212   2.360  16.426 -0.3284  0.1354  0.4446
14991TIP3    H166464   1.198   2.412  16.347 -1.0138  2.1850  1.8425
14991TIP3    H266465   1.129   2.316  16.440  0.2713 -1.4814 -0.7745
14992TIP3   OH266466   6.074   0.550  16.982 -0.0572  0.4943 -0.3885
14992TIP3    H166467   6.007   0.516  16.922 -0.5388  1.2652 -0.3152
14992TIP3    H266468   6.029   0.622  17.028  1.0297  1.4889 -0.8338
14993TIP3   OH266469   3.426   3.966   3.498  0.0528  0.2275  0.4224
14993TIP3    H166470   3.393   4.049   3.534 -2.5982  0.0565 -1.3780
14993TIP3    H266471   3.449   3.986   3.408 -0.4464 -0.9522  0.0148
14994TIP3   OH266472   0.146   3.162  16.894 -0.0118  0.0178 -0.1148
14994TIP3    H166473   0.070   3.148  16.950  1.6427  0.4731  2.4073
14994TIP3    H266474   0.120   3.232  16.834 -1.1720  1.0638  1.5492
14995TIP3   OH266475   1.217   4.457  11.689 -0.1744 -0.0045  0.5416
14995TIP3    H166476   1.262   4.519  11.747 -0.4004  2.1799 -1.4381
14995TIP3    H266477   1.224   4.373  11.734  0.3790  1.3719  3.2802
14996TIP3   OH266478   4.861   2.262   0.432 -0.1667 -0.4996 -0.2625
14996TIP3    H166479   4.836   2.282   0.522  1.4830  0.4831  0.0142
14996TIP3    H266480   4.829   2.173   0.417 -1.5377 -0.2353  0.8578
14997TIP3   OH266481   5.073   1.659  15.608  0.0430  0.7588  0.1294
14997TIP3    H166482   5.168   1.665  15.619  0.1444 -0.6007  0.0796
14997TIP3    H266483   5.060   1.657  15.513  0.1176 -0.9321  0.1297
14998TIP3   OH266484   2.154   0.890  16.109 -0.6994  0.2871  0.0579
14998TIP3    H166485   2.092   0.818  16.118  0.9042 -1.1950 -0.2138
14998TIP3    H266486   2.156   0.932  16.195 -1.8564  0.2125  0.1392
14999TIP3   OH266487   6.737   3.337   3.559 -0.2978  0.3180  0.3027
14999TIP3    H166488   6.824   3.350   3.520  0.8820  0.1596  2.7072
14999TIP3    H266489   6.703   3.426   3.569  0.1192  0.4667  0.4516
15000TIP3   OH266490   4.700   1.191   5.808  0.8014 -0.0881  0.0499
15000TIP3    H166491   4.633   1.133   5.771 -1.3577  1.7846  0.7735
15000TIP3    H266492   4.689   1.274   5.761  2.0007  0.5601  0.8505
15001TIP3   OH266493   3.765   1.834   2.387  0.1257  0.3137 -0.1875
15001TIP3    H166494   3.710   1.836   2.466  1.2453 -0.7937  0.6638
15001TIP3    H266495   3.705   1.857   2.316 -1.4781 -0.9015  0.6763
15002TIP3   OH266496   3.318   4.408  13.281 -0.3157  0.0819  0.3576
15002TIP3    H166497   3.374   4.397  13.358  1.0675  1.3480 -0.4197
15002TIP3    H266498   3.252   4.338  13.289  1.3028 -1.4123  1.3667
15003TIP3   OH266499   6.001   3.403  14.689 -0.3704 -0.3413  0.3373
15003TIP3    H166500   5.970   3.314  14.702  1.7116 -1.0222  1.1485
15003TIP3    H266501   5.959   3.453  14.759  0.1415 -1.1663  1.2633
15004TIP3   OH266502   3.069   5.988  12.857 -0.2316  0.0140 -0.3223
15004TIP3    H166503   2.980   5.999  12.889 -0.6436 -0.0432 -1.3934
15004TIP3    H266504   3.086   6.068  12.806 -0.5678 -0.9751 -2.0906
15005TIP3   OH266505   0.932   2.428  11.060  0.4177  0.3257 -0.8291
15005TIP3    H166506   0.997   2.358  11.049  1.9235  1.4922  0.1275
15005TIP3    H266507   0.890   2.435  10.974  0.3936 -1.5478 -1.0246
15006TIP3   OH266508   5.486   4.121  14.030  0.1238  0.4461  0.0516
15006TIP3    H166509   5.494   4.197  14.087  1.8880  0.7725 -0.5645
15006TIP3    H266510   5.575   4.103  14.001 -0.3199 -1.5361 -0.2612
15007TIP3   OH266511   3.022   6.557  16.883  0.0706  0.1227 -0.3510
15007TIP3    H166512   2.992   6.493  16.948  1.6288 -1.3668 -1.0242
15007TIP3    H266513   3.047   6.634  16.935  0.1925 -0.6105  0.7005
15008TIP3   OH266514   3.710   0.055  11.811  0.1479 -0.0651  0.1071
15008TIP3    H166515   3.644  -0.013  11.822 -0.8069  0.8344  0.0520
15008TIP3    H266516   3.661   0.136  11.809  1.2563  0.6229 -0.0214
15009TIP3   OH266517   6.075   4.043   0.113 -0.1476  0.2143 -0.1057
15009TIP3    H166518   6.101   4.131   0.087  1.0177 -0.1633 -0.2580
15009TIP3    H266519   6.092   4.041   0.207 -1.9849  0.7501  0.2918
15010TIP3   OH266520   0.454   1.543   5.511 -0.0941  0.3356 -0.4016
15010TIP3    H166521   0.469   1.530   5.605  0.1067 -0.2418 -0.5053
15010TIP3    H266522   0.422   1.633   5.504  0.5701  0.6237  0.1394
15011TIP3   OH266523   1.682   0.850   3.571  0.0411 -0.0745  0.1123
15011TIP3    H166524   1.648   0.893   3.493 -0.7902  0.9111  0.9752
15011TIP3    H266525   1.777   0.863   3.566 -0.0598  0.5396 -0.4258
15012TIP3   OH266526   0.017   3.547   0.372  0.0443 -0.1690  0.3962
15012TIP3    H166527  -0.056   3.569   0.315 -1.2930 -0.0326  2.1094
15012TIP3    H266528   0.089   3.603   0.341 -0.9326  0.6416 -0.4656
15013TIP3   OH266529   6.211   2.013  14.195  0.1392  0.1771  0.3560
15013TIP3    H166530   6.276   1.994  14.263  1.2582  1.4689 -0.2970
15013TIP3    H266531   6.198   1.931  14.149 -1.9394 -1.2260  3.1307
15014TIP3   OH266532   1.470   0.489   2.550  0.3331 -0.1003  0.1961
15014TIP3    H166533   1.456   0.487   2.455  0.7679 -0.4724  0.1393
15014TIP3    H266534   1.478   0.398   2.575  0.0090 -0.0115  0.6271
15015TIP3   OH266535   1.614   4.131   1.077  0.6860  0.3143  0.4157
15015TIP3    H166536   1.698   4.147   1.118  0.4910  0.4010  0.7790
15015TIP3    H266537   1.629   4.054   1.022  1.1291  0.6229  0.0942
15016TIP3   OH266538   0.808   1.000  13.183  0.1799 -0.7248  0.3392
15016TIP3    H166539   0.719   0.966  13.190 -0.5908  0.5685 -2.1287
15016TIP3    H266540   0.861   0.938  13.233 -2.0924 -1.4049  2.0736
15017TIP3   OH266541   6.470   6.067   6.153 -0.3116  0.8344  0.2484
15017TIP3    H166542   6.548   6.015   6.135 -0.1773  0.3434  2.0911
15017TIP3    H266543   6.458   6.119   6.074  0.1151 -1.2510 -1.2957
15018TIP3   OH266544   3.204   0.157  16.812  0.1763 -0.0398 -0.3015
15018TIP3    H166545   3.251   0.152  16.895 -0.4120 -0.8042 -0.0058
15018TIP3    H266546   3.228   0.076  16.766 -1.0499 -0.5770 -0.0299
15019TIP3   OH266547   4.360   3.897   1.738 -0.9956 -0.7627 -0.3689
15019TIP3    H166548   4.317   3.853   1.665 -1.8790 -0.6335  0.0614
15019TIP3    H266549   4.300   3.886   1.812  0.6171 -2.3276  0.8114
15020TIP3   OH266550   3.467   5.957  15.873 -0.3059  0.1113  0.0371
15020TIP3    H166551   3.399   5.991  15.930 -0.4872 -0.8554  0.4146
15020TIP3    H266552   3.482   5.867  15.904 -2.0452 -1.3101 -2.8352
15021TIP3   OH266553   3.143   3.552   2.277  0.3139 -0.6991  0.1491
15021TIP3    H166554   3.119   3.635   2.236  0.1334 -1.4923 -1.4099
15021TIP3    H266555   3.068   3.530   2.332 -0.5892 -0.8905 -1.1199
15022TIP3   OH266556   2.114   2.533  16.633  0.3208  0.1601 -0.0180
15022TIP3    H166557   2.121   2.447  16.593  0.5586  0.2641 -0.2001
15022TIP3    H266558   2.021   2.555  16.628  0.1245 -0.4446  0.7845
15023TIP3   OH266559   3.877   5.035   5.218 -1.0184 -0.3584 -0.2044
15023TIP3    H166560   3.885   4.940   5.227  1.9198 -0.0662  1.2863
15023TIP3    H266561   3.815   5.061   5.287  1.3394 -0.8720  2.2605
15024TIP3   OH266562   1.073   4.982  14.571  0.8029  0.3592  0.8455
15024TIP3    H166563   1.166   4.981  14.596  1.0869  0.0599 -0.1623
15024TIP3    H266564   1.040   5.064  14.607  1.1160 -0.1318  2.3535
15025TIP3   OH266565   1.939   4.911   4.121  0.0930 -0.2529 -0.3720
15025TIP3    H166566   1.869   4.849   4.100  0.4519 -0.5051 -0.8496
15025TIP3    H266567   1.922   4.937   4.211 -0.9020  0.0693 -0.6507
15026TIP3   OH266568   6.197   0.333  12.961  0.3027  0.3422 -0.0496
15026TIP3    H166569   6.156   0.386  13.029  1.0706  0.1945  0.5311
15026TIP3    H266570   6.146   0.353  12.882 -0.3326  0.8256  0.4717
15027TIP3   OH266571   0.546   5.665  10.826  0.1772 -0.4530  0.6304
15027TIP3    H166572   0.618   5.693  10.882  0.2764 -1.1056  0.8301
15027TIP3    H266573   0.571   5.695  10.738  0.6719 -0.6447  0.7043
15028TIP3   OH266574   0.204   0.471  17.202  0.7942  0.0096 -0.3575
15028TIP3    H166575   0.129   0.523  17.172 -0.6839 -2.5052 -1.3283
15028TIP3    H266576   0.211   0.400  17.138  1.1664 -2.3387  2.0962
15029TIP3   OH266577   1.439   3.756  13.386  1.0164 -0.2033  0.5725
15029TIP3    H166578   1.486   3.673  13.374  0.0963 -0.9360  1.7984
15029TIP3    H266579   1.347   3.730  13.397  0.5710  1.0602  0.0070
15030TIP3   OH266580   1.520   3.628   3.401  0.1980  0.1474 -0.4550
15030TIP3    H166581   1.433   3.589   3.409 -0.2617  0.7919 -1.8872
15030TIP3    H266582   1.510   3.696   3.334  2.2481 -1.1248 -2.1763
15031TIP3   OH266583   4.663   1.768  13.840 -0.3893 -0.1550  0.6909
15031TIP3    H166584   4.570   1.748  13.847 -0.6430  1.1084  1.2602
15031TIP3    H266585   4.667   1.841  13.778  0.3590 -0.9939 -0.2861
15032TIP3   OH266586   2.243   1.895  16.101  0.2018  0.8922 -0.0487
15032TIP3    H166587   2.198   1.960  16.155  0.3925  1.1243 -0.1686
15032TIP3    H266588   2.233   1.812  16.149 -0.1330  0.9890  0.0514
15033TIP3   OH266589   0.123   2.409   0.506  0.2291 -0.4238 -0.2932
15033TIP3    H166590   0.107   2.402   0.412  0.0789  0.1928 -0.3139
15033TIP3    H266591   0.211   2.374   0.518  0.2241 -0.5607 -0.6548
15034TIP3   OH266592   3.383   5.942   2.403  0.2350  0.4137 -0.1136
15034TIP3    H166593   3.317   6.012   2.403 -0.0063  0.1890 -0.2822
15034TIP3    H266594   3.393   5.919   2.495 -0.0443  0.3346 -0.1025
15035TIP3   OH266595   4.165   0.522  16.028 -0.8795  0.0363 -0.2668
15035TIP3    H166596   4.243   0.467  16.019 -1.2782 -0.7728  1.0270
15035TIP3    H266597   4.172   0.559  16.116 -0.3396  2.5517 -1.2832
15036TIP3   OH266598   5.833   3.152   4.339  0.8970  0.5535 -0.1159
15036TIP3    H166599   5.881   3.170   4.419  1.6397 -1.5479 -0.0053
15036TIP3    H266600   5.745   3.187   4.354  0.9880  0.0943  1.6721
15037TIP3   OH266601   0.505   5.377  10.894  0.1818  0.4974  0.2344
15037TIP3    H166602   0.507   5.380  10.990  1.5127  0.2918  0.2239
15037TIP3    H266603   0.496   5.468  10.867  5.2766  1.3535  0.5098
15038TIP3   OH266604   4.110   2.581  17.030  0.1396  0.2064 -0.0463
15038TIP3    H166605   4.041   2.607  16.969  0.5618  1.4261 -0.0168
15038TIP3    H266606   4.175   2.536  16.975 -0.9470 -1.5521  0.0302
15039TIP3   OH266607   1.687   1.649   2.194  0.0295  0.0599 -0.2956
15039TIP3    H166608   1.649   1.730   2.228 -1.7734 -0.5014 -0.8465
15039TIP3    H266609   1.748   1.678   2.127  1.1466  1.0321  1.0901
15040TIP3   OH266610   3.519   3.249   6.130 -0.1850  0.7634 -0.2066
15040TIP3    H166611   3.468   3.245   6.049  2.1960  1.2149 -1.8089
15040TIP3    H266612   3.459   3.290   6.193 -1.3624  2.5656 -2.3476
15041TIP3   OH266613   5.930   2.497  14.970 -0.2685  0.4360  0.3477
15041TIP3    H166614   6.008   2.513  15.022  0.5056  0.8183 -0.8975
15041TIP3    H266615   5.960   2.445  14.896 -0.9475  1.6352 -0.8081
15042TIP3   OH266616   4.192   6.115  12.109 -0.3538 -0.3897  0.0335
15042TIP3    H166617   4.195   6.020  12.121 -0.5390 -0.3567  0.3541
15042TIP3    H266618   4.147   6.127  12.026  2.3567 -0.6747 -1.6178
15043TIP3   OH266619   0.449   3.894  11.898 -0.1479  0.4572 -0.2726
15043TIP3    H166620   0.486   3.810  11.872  0.4275  0.2795  1.0291
15043TIP3    H266621   0.399   3.922  11.822  0.3563 -0.6450 -1.0511
15044TIP3   OH266622   4.240   0.124   4.914  0.1812  0.2825 -0.0831
15044TIP3    H166623   4.302   0.074   4.862  0.1636 -2.1112  2.0055
15044TIP3    H266624   4.161   0.069   4.917 -0.4184  1.1636  0.9987
15045TIP3   OH266625   0.830   2.283   1.913  0.0204  0.3488  0.2200
15045TIP3    H166626   0.915   2.247   1.891 -0.4764 -1.2060  0.7185
15045TIP3    H266627   0.811   2.249   2.000 -0.1679  2.4729  1.0881
15046TIP3   OH266628   5.848   1.952   3.307 -0.6021 -0.3380 -0.4248
15046TIP3    H166629   5.813   1.905   3.231 -0.5993 -0.5473 -0.2967
15046TIP3    H266630   5.812   2.041   3.299 -1.2640 -0.5811 -0.2268
15047TIP3   OH266631   6.160   6.614   3.913  0.6803 -0.5621 -0.2370
15047TIP3    H166632   6.228   6.681   3.907 -0.1718  0.4130  0.6081
15047TIP3    H266633   6.174   6.558   3.837  0.0589  1.8595 -2.2563
15048TIP3   OH266634   0.054   1.878   3.566  0.0443  0.2688 -0.2539
15048TIP3    H166635   0.050   1.879   3.661  0.5090 -1.2970 -0.2034
15048TIP3    H266636   0.140   1.915   3.545  0.2263 -0.0326 -0.0425
15049TIP3   OH266637   0.083   0.277   2.048 -0.0360 -0.3273  0.3246
15049TIP3    H166638   0.013   0.285   2.113 -1.4011  0.8467 -1.2070
15049TIP3    H266639   0.040   0.237   1.972  0.7202  1.1555 -0.9373
15050TIP3   OH266640   2.465   5.519  16.842  0.3736  0.4699 -0.2339
15050TIP3    H166641   2.413   5.439  16.831 -0.4485  1.2287 -2.2390
15050TIP3    H266642   2.403   5.582  16.878  1.1883  0.0973  1.9917
15051TIP3   OH266643   3.513   0.691  13.727 -0.4679  0.7304  0.3867
15051TIP3    H166644   3.529   0.714  13.635 -0.3907  1.4632  0.5713
15051TIP3    H266645   3.535   0.598  13.733  1.4890  1.1327  0.0914
15052TIP3   OH266646   1.779   0.411  16.316  0.0774  0.5075  0.0497
15052TIP3    H166647   1.824   0.435  16.397  2.3329 -0.6591 -0.7644
15052TIP3    H266648   1.776   0.492  16.265  0.6837  0.7541  0.3993
15053TIP3   OH266649   0.910   3.597  12.058 -0.6350 -0.3928 -0.1316
15053TIP3    H166650   0.972   3.549  12.003  0.2088 -0.1462  0.5831
15053TIP3    H266651   0.892   3.677  12.009 -0.3272 -0.4337 -0.3138
15054TIP3   OH266652   5.489   2.141   6.625 -0.6382 -0.7817 -0.1838
15054TIP3    H166653   5.470   2.207   6.557  0.2099  0.7314  0.9862
15054TIP3    H266654   5.578   2.162   6.654 -1.3989 -0.6309  2.2003
15055TIP3   OH266655   2.697   2.267   1.351 -0.0048 -0.2816  0.5867
15055TIP3    H166656   2.664   2.230   1.268  1.1955 -0.6185  0.2465
15055TIP3    H266657   2.686   2.196   1.415 -0.0438 -0.3539  0.5003
15056TIP3   OH266658   5.202   2.565  15.638 -0.0359 -0.4318 -0.0766
15056TIP3    H166659   5.278   2.623  15.648 -0.4049  0.2091 -0.8253
15056TIP3    H266660   5.152   2.576  15.719 -1.1883  1.9587 -1.0006
15057TIP3   OH266661   4.771   4.757   2.679  0.4479  0.5535  0.3195
15057TIP3    H166662   4.736   4.842   2.650  4.0917  2.4129  0.8023
15057TIP3    H266663   4.765   4.701   2.602 -2.6705  0.9118  0.1690
15058TIP3   OH266664   5.745   2.774  12.566 -0.7663 -0.5303  0.0743
15058TIP3    H166665   5.676   2.712  12.543  1.1278 -1.8356 -2.5506
15058TIP3    H266666   5.788   2.735  12.642 -0.0313 -2.1947 -1.1298
15059TIP3   OH266667   2.189   1.671  14.430 -0.1169  0.4500 -0.0483
15059TIP3    H166668   2.246   1.653  14.505 -0.1091  2.2859  0.4341
15059TIP3    H266669   2.110   1.710  14.467  0.1885  2.0962 -0.9893
15060TIP3   OH266670   0.253   0.085   4.140  0.0813  0.3078  0.2349
15060TIP3    H166671   0.284   0.176   4.142  1.1237 -0.0539  1.3637
15060TIP3    H266672   0.160   0.091   4.162 -0.2136  1.2111 -1.0939
15061TIP3   OH266673   1.354   2.531   3.367 -0.8894  0.1271  0.6839
15061TIP3    H166674   1.448   2.541   3.349 -0.8299 -1.0377  0.2331
15061TIP3    H266675   1.310   2.584   3.301 -0.5695 -0.6126 -0.1400
15062TIP3   OH266676   4.323   5.367  11.876  0.4113  0.4937 -0.2067
15062TIP3    H166677   4.368   5.298  11.827  1.0279  1.3523 -0.8828
15062TIP3    H266678   4.383   5.389  11.948 -0.2942 -0.4506  0.7127
15063TIP3   OH266679   2.888   4.318  16.408  0.1447  0.4564 -0.2029
15063TIP3    H166680   2.885   4.239  16.354 -2.6447  0.9974 -1.0336
15063TIP3    H266681   2.848   4.292  16.491 -1.2170  1.0571 -0.6462
15064TIP3   OH266682   3.772   6.649  12.765  0.8804  0.1827 -0.3129
15064TIP3    H166683   3.706   6.702  12.721 -0.4980 -1.0908  0.1416
15064TIP3    H266684   3.816   6.602  12.695  2.1779  1.8984 -0.7318
15065TIP3   OH266685   2.828   5.535   1.572  0.2088  0.6484  0.5795
15065TIP3    H166686   2.818   5.497   1.485 -1.0039  0.2215  0.8838
15065TIP3    H266687   2.849   5.460   1.628 -1.6561  0.4747  1.0926
15066TIP3   OH266688   5.614   1.848  13.638 -0.4117  0.2123 -0.4162
15066TIP3    H166689   5.595   1.886  13.552 -0.9271 -0.4407 -0.5937
15066TIP3    H266690   5.560   1.899  13.699 -0.3556  0.4087 -0.5312
15067TIP3   OH266691   5.525   6.030   2.120 -0.0693  0.1588  0.1352
15067TIP3    H166692   5.489   6.119   2.125 -1.3929 -0.3254 -0.3498
15067TIP3    H266693   5.448   5.973   2.113  0.7819 -0.9497 -0.6369
15068TIP3   OH266694   4.749   2.154  16.788  0.4236  0.4507 -0.0332
15068TIP3    H166695   4.804   2.091  16.742 -0.8184 -0.4904 -0.2772
15068TIP3    H266696   4.776   2.145  16.880  0.4849 -0.2083 -0.1065
15069TIP3   OH266697   0.120   6.599   2.835  0.0616  0.6551  0.4798
15069TIP3    H166698   0.154   6.688   2.843 -0.2488  0.7437  0.8625
15069TIP3    H266699   0.186   6.544   2.878 -0.2516  0.8228  1.1910
15070TIP3   OH266700   1.197   1.762   0.105  0.1693  0.0681 -0.0993
15070TIP3    H166701   1.289   1.746   0.128 -0.8948 -1.7786  3.7066
15070TIP3    H266702   1.178   1.696   0.039  1.2773 -0.3963  0.0139
15071TIP3   OH266703   4.699   5.269  16.838 -0.1956 -0.0597 -0.1906
15071TIP3    H166704   4.729   5.306  16.921  1.3974  0.1889 -0.8394
15071TIP3    H266705   4.758   5.196  16.821 -0.5234 -0.1352 -1.0814
15072TIP3   OH266706   3.982   1.010  14.726  0.3599 -0.3096  0.2639
15072TIP3    H166707   4.036   1.090  14.720  0.9067 -0.6513  0.5166
15072TIP3    H266708   4.032   0.953  14.784  1.0579 -1.7084 -1.6260
15073TIP3   OH266709   6.783   2.426   4.287  0.0189 -0.1297 -0.0809
15073TIP3    H166710   6.844   2.471   4.345  0.7373 -1.1014 -0.0456
15073TIP3    H266711   6.810   2.451   4.199 -1.9422  2.4615 -0.0461
15074TIP3   OH266712   1.915   1.790  11.176  0.0407  0.2217 -0.1441
15074TIP3    H166713   1.893   1.881  11.193 -0.5200 -0.0935  0.8817
15074TIP3    H266714   1.830   1.746  11.163  0.2405 -0.3651  0.4917
15075TIP3   OH266715   3.293   1.723  15.776  0.0967  0.4205  0.2548
15075TIP3    H166716   3.205   1.722  15.737 -0.9689  1.9656  2.4297
15075TIP3    H266717   3.341   1.788  15.725 -0.0150 -0.3666 -0.8947
15076TIP3   OH266718   0.819   5.776  16.873 -0.2664  0.6071 -0.0277
15076TIP3    H166719   0.780   5.742  16.953 -1.5783  2.3143  0.1266
15076TIP3    H266720   0.860   5.700  16.832 -1.9314 -0.8785  0.9053
15077TIP3   OH266721   0.333   4.172   3.049 -0.4744  0.3440  1.2426
15077TIP3    H166722   0.412   4.219   3.021 -1.5948  1.2724 -0.5399
15077TIP3    H266723   0.317   4.203   3.138  0.4914  1.0639  1.1884
15078TIP3   OH266724   5.149   6.768  12.136 -0.7148 -0.0981 -0.1791
15078TIP3    H166725   5.094   6.810  12.203  0.6430 -0.4174  1.2047
15078TIP3    H266726   5.111   6.681  12.126 -0.2740 -0.4596  1.0613
15079TIP3   OH266727   3.764   5.872   3.736  0.0632 -0.3531  0.0215
15079TIP3    H166728   3.730   5.795   3.691  1.7150  0.8449 -3.7159
15079TIP3    H266729   3.692   5.935   3.735 -0.1043 -0.5505 -0.4474
15080TIP3   OH266730   1.664   1.688  14.487  0.0340  0.6157 -0.5502
15080TIP3    H166731   1.689   1.683  14.395 -2.7295  1.1618 -1.4314
15080TIP3    H266732   1.653   1.782  14.503 -1.4881  0.4225 -0.3106
15081TIP3   OH266733   5.686   1.401  12.662  0.5228 -0.0062  0.3869
15081TIP3    H166734   5.732   1.317  12.655 -0.1580 -0.2887 -0.9161
15081TIP3    H266735   5.753   1.463  12.692  0.8223 -1.1764  2.3248
15082TIP3   OH266736   0.836   0.319  12.789 -0.3156  0.3538 -0.1721
15082TIP3    H166737   0.786   0.359  12.718  0.2007  3.2165  0.9335
15082TIP3    H266738   0.920   0.365  12.788  0.5136 -1.0567  0.9429
15083TIP3   OH266739   1.028   4.650  12.805 -0.0442  0.5719 -0.2552
15083TIP3    H166740   1.011   4.703  12.727  0.5158 -0.8317 -1.3856
15083TIP3    H266741   1.121   4.627  12.798  0.1653  0.9295  1.1687
15084TIP3   OH266742   2.131   0.063  10.504  0.5121  0.5906  0.2062
15084TIP3    H166743   2.175  -0.016  10.473  1.0605  1.4470 -1.3066
15084TIP3    H266744   2.171   0.081  10.589 -0.5537 -1.4564  1.1910
15085TIP3   OH266745   3.358   0.266   0.011 -0.3978  0.1172  0.0191
15085TIP3    H166746   3.327   0.189   0.057  0.8562 -2.3842 -2.9366
15085TIP3    H266747   3.444   0.284   0.049 -0.9908  0.5541  1.1966
15086TIP3   OH266748   6.289   4.302   4.444  0.2702  0.1052 -0.2677
15086TIP3    H166749   6.233   4.297   4.367 -0.6418 -3.3872  0.4613
15086TIP3    H266750   6.281   4.393   4.473 -0.6592  1.1131 -3.2801
15087TIP3   OH266751   4.812   4.567  16.612 -0.2193 -0.2772 -0.9247
15087TIP3    H166752   4.820   4.657  16.643 -1.0090  0.1165 -1.7957
15087TIP3    H266753   4.865   4.515  16.673  0.7764  0.8528 -0.7965
15088TIP3   OH266754   6.068   1.684   3.236  0.1201 -0.3382  0.3963
15088TIP3    H166755   6.160   1.706   3.246 -0.0366  0.4611  0.1504
15088TIP3    H266756   6.039   1.660   3.324  0.6966 -1.1691  0.3698
15089TIP3   OH266757   0.791   5.467   2.983 -0.4946  0.5803  0.4361
15089TIP3    H166758   0.824   5.539   2.929  2.9946 -0.9907  0.2166
15089TIP3    H266759   0.732   5.509   3.045 -2.7418  2.8226 -2.8870
15090TIP3   OH266760   2.886   1.445  15.125  0.1475  0.1413  0.1003
15090TIP3    H166761   2.906   1.363  15.171  1.3344  0.2302 -0.2205
15090TIP3    H266762   2.800   1.471  15.159 -0.5414 -1.5462 -0.2271
15091TIP3   OH266763   2.535   5.180   2.281  0.1599  0.6310 -0.1334
15091TIP3    H166764   2.508   5.161   2.191 -0.8409 -0.7244  0.4202
15091TIP3    H266765   2.522   5.097   2.328 -1.5242  1.8744  1.7595
15092TIP3   OH266766   4.683   4.127  16.032 -0.2744  0.2188 -0.0933
15092TIP3    H166767   4.595   4.117  16.068  0.4987 -2.4149  1.3365
15092TIP3    H266768   4.707   4.217  16.054 -1.9177  0.4130  1.1422
15093TIP3   OH266769   2.031   0.665  17.240  0.2686 -0.3767  0.4646
15093TIP3    H166770   2.090   0.606  17.193  0.2783 -0.1758  0.2188
15093TIP3    H266771   2.004   0.616  17.318  0.6973 -0.4987  0.5380
15094TIP3   OH266772   5.327   5.567   3.268  0.3630 -0.0377  0.4024
15094TIP3    H166773   5.293   5.608   3.189  0.1217  0.3152  0.6827
15094TIP3    H266774   5.420   5.587   3.268 -0.0536  2.2387  1.5309
15095TIP3   OH266775   3.217   4.645  13.443 -0.3601 -0.1535 -0.6039
15095TIP3    H166776   3.250   4.575  13.387 -2.1189 -1.0452 -0.6058
15095TIP3    H266777   3.221   4.723  13.389  0.1360 -0.5675 -1.1739
15096TIP3   OH266778   2.711   0.147   4.485 -0.6561 -0.1312  0.2786
15096TIP3    H166779   2.679   0.116   4.569  0.4983 -1.3914  0.2844
15096TIP3    H266780   2.802   0.173   4.501 -0.0739 -1.3864 -0.7658
15097TIP3   OH266781   5.282   5.388   6.474 -0.5170 -0.2593  0.0007
15097TIP3    H166782   5.342   5.342   6.414 -0.8590 -0.7058 -0.0046
15097TIP3    H266783   5.266   5.326   6.544 -0.3243  0.1704  0.4283
15098TIP3   OH266784   4.470   3.140  12.347 -0.6290 -1.2449 -0.3406
15098TIP3    H166785   4.554   3.096  12.352  0.1500  0.3025  1.0638
15098TIP3    H266786   4.490   3.232  12.363 -1.7007  0.3376 -5.9520
15099TIP3   OH266787   0.580   2.601   4.666  0.1357  0.0829 -0.7757
15099TIP3    H166788   0.568   2.695   4.655  0.1652 -0.0526 -2.0671
15099TIP3    H266789   0.506   2.574   4.721 -1.4245  0.4509 -2.5874
15100TIP3   OH266790   6.214   4.903  16.133  0.4926  0.4009 -0.2713
15100TIP3    H166791   6.234   4.936  16.220  0.6934 -1.0832  0.2670
15100TIP3    H266792   6.142   4.959  16.102 -0.7092 -0.0655  1.5230
15101TIP3   OH266793   1.698   3.969   2.507  0.0673  0.0233  0.5777
15101TIP3    H166794   1.658   4.051   2.478 -1.2193 -0.6772  0.3217
15101TIP3    H266795   1.682   3.908   2.435  0.1284 -0.7313  1.1965
15102TIP3   OH266796   0.441   3.264   0.224  0.1769  0.2245  0.0830
15102TIP3    H166797   0.524   3.261   0.178  0.6106  1.3963  0.7369
15102TIP3    H266798   0.461   3.234   0.313 -0.4960 -1.3033 -0.2571
15103TIP3   OH266799   6.270   3.923  14.022 -0.2985 -0.0515  0.2517
15103TIP3    H166800   6.319   3.895  13.945  0.0986 -1.7162  1.0383
15103TIP3    H266801   6.327   3.987  14.065 -0.6873  1.1661 -0.9867
15104TIP3   OH266802   0.258   6.526  11.692 -0.3171  0.4452 -0.4895
15104TIP3    H166803   0.332   6.566  11.737 -1.3053  0.1855  1.4705
15104TIP3    H266804   0.204   6.600  11.664 -0.1918  0.5902 -0.3515
15105TIP3   OH266805   2.455   3.200   2.756 -0.1754 -0.1656 -0.2614
15105TIP3    H166806   2.483   3.166   2.841 -0.7253  0.2990  0.1127
15105TIP3    H266807   2.362   3.176   2.750  0.0485 -0.8784 -1.0781
15106TIP3   OH266808   5.368   2.686  13.967  0.1652  0.2181 -0.6870
15106TIP3    H166809   5.435   2.622  13.989  0.5214  0.4758 -0.9915
15106TIP3    H266810   5.416   2.755  13.920 -0.4417  0.0248 -1.6150
15107TIP3   OH266811   3.843   3.193  16.475 -0.1303 -0.1917  0.1397
15107TIP3    H166812   3.868   3.107  16.443  1.6838 -0.0726  1.1026
15107TIP3    H266813   3.857   3.252  16.401  0.5839 -0.4450  0.0644
15108TIP3   OH266814   6.388   6.585   3.423 -0.4967  0.7056 -0.9947
15108TIP3    H166815   6.430   6.638   3.356 -0.7944  1.3214 -0.7098
15108TIP3    H266816   6.351   6.649   3.484  1.2612  0.1927  0.7256
15109TIP3   OH266817   2.792   0.605   0.785 -0.6338 -0.5756 -0.8516
15109TIP3    H166818   2.766   0.682   0.835 -0.7603 -0.9216 -0.3745
15109TIP3    H266819   2.855   0.638   0.721  0.2363 -0.2622  0.1306
15110TIP3   OH266820   4.604   5.753   1.195  0.1869  0.2600 -0.6100
15110TIP3    H166821   4.557   5.692   1.138 -0.8072  0.8141 -0.4163
15110TIP3    H266822   4.611   5.707   1.279  0.2055  0.0740 -0.7129
15111TIP3   OH266823   1.892   3.888  12.834  0.2801 -0.1780 -0.6401
15111TIP3    H166824   1.796   3.888  12.831  0.2505 -1.0872 -0.0835
15111TIP3    H266825   1.917   3.960  12.776 -0.7764  1.4507  0.8314
15112TIP3   OH266826   4.834   3.263  12.401  0.2616 -0.6354  0.0394
15112TIP3    H166827   4.890   3.341  12.397 -1.5687  0.7831  0.3371
15112TIP3    H266828   4.798   3.255  12.312  0.7901 -1.4225 -0.1063
15113TIP3   OH266829   2.739   0.499  14.851  0.2893 -0.5712  0.6477
15113TIP3    H166830   2.684   0.462  14.782  1.4750 -0.5806 -0.3312
15113TIP3    H266831   2.799   0.428  14.874  0.4224 -0.3088  1.1309
15114TIP3   OH266832   5.379   3.294   0.232 -0.4108  0.2184  0.0556
15114TIP3    H166833   5.417   3.208   0.210 -0.0460  0.4969 -0.4432
15114TIP3    H266834   5.444   3.357   0.201 -1.1722  0.7046 -0.5963
15115TIP3   OH266835   5.062   5.422  14.089 -0.3315 -0.0978  0.6918
15115TIP3    H166836   5.146   5.450  14.052 -1.4872  0.2120 -1.9538
15115TIP3    H266837   5.065   5.326  14.082 -0.0501 -0.1137  0.9861
15116TIP3   OH266838   1.031   1.568   1.838 -0.2552  1.2819 -0.6905
15116TIP3    H166839   0.948   1.594   1.798 -0.2766  2.8391  0.3193
15116TIP3    H266840   1.057   1.643   1.891  1.2869  0.4137 -0.1723
15117TIP3   OH266841   5.243   2.930  15.826  0.1421 -0.4208  0.4141
15117TIP3    H166842   5.214   3.022  15.827  0.7608 -0.2237  0.8438
15117TIP3    H266843   5.301   2.923  15.902  1.0679 -0.8487 -0.3073
15118TIP3   OH266844   4.507   3.545   5.503  0.0135  0.1240  0.0802
15118TIP3    H166845   4.485   3.538   5.410  1.6048  0.2991 -0.3369
15118TIP3    H266846   4.597   3.513   5.509 -0.6207 -1.4744  1.8520
15119TIP3   OH266847   2.994   5.032  16.349  0.3431  0.8343  0.0968
15119TIP3    H166848   2.970   4.992  16.432 -0.8963  0.5218 -0.3924
15119TIP3    H266849   2.963   5.122  16.356 -2.0529  0.1616 -0.9243
15120TIP3   OH266850   6.529   0.507   2.587  0.2205  0.1004 -0.5378
15120TIP3    H166851   6.435   0.507   2.566  0.5528 -1.8566 -2.3116
15120TIP3    H266852   6.553   0.600   2.585 -1.5420  0.6017 -0.7092
15121TIP3   OH266853   6.015   5.465   1.457 -0.6835 -0.4557  0.3606
15121TIP3    H166854   5.933   5.493   1.497 -1.4234  0.3799 -1.5783
15121TIP3    H266855   5.991   5.440   1.367  1.0174 -1.2291  0.0729
15122TIP3   OH266856   2.083   6.560  13.495 -0.2310 -0.0922  0.3159
15122TIP3    H166857   2.173   6.552  13.462  0.4055  0.7850  1.7663
15122TIP3    H266858   2.070   6.654  13.504  0.2937 -0.2283  4.1727
15123TIP3   OH266859   1.718   4.087  16.386 -0.2672 -0.4152 -0.5596
15123TIP3    H166860   1.749   4.164  16.434  1.5285 -2.3702  1.6527
15123TIP3    H266861   1.766   4.090  16.304  1.0945 -0.0573  0.2140
15124TIP3   OH266862   5.411   6.354   6.248  0.1948 -0.5868 -0.1186
15124TIP3    H166863   5.325   6.314   6.231 -0.9203  0.6791  2.0144
15124TIP3    H266864   5.439   6.388   6.163 -1.9029 -0.2237 -0.7276
15125TIP3   OH266865   0.100   4.874  13.131  0.0966  0.1685 -0.4840
15125TIP3    H166866   0.182   4.897  13.087 -0.9653  0.8460 -2.2105
15125TIP3    H266867   0.031   4.911  13.076 -1.3835 -0.0453  1.1141
15126TIP3   OH266868   4.970   1.225  11.314  0.1345 -0.0113  0.1619
15126TIP3    H166869   5.065   1.228  11.300 -0.0443 -1.2251 -1.7413
15126TIP3    H266870   4.947   1.314  11.341  1.5624  0.8782 -1.3410
15127TIP3   OH266871   5.835   3.020  12.712 -0.2655 -0.4347 -0.1225
15127TIP3    H166872   5.744   2.996  12.693 -0.8672  1.9931 -0.5475
15127TIP3    H266873   5.887   2.947  12.677 -1.9880 -1.5558 -0.4473
15128TIP3   OH266874   4.016   0.499   2.169 -0.0375 -0.3487 -0.3271
15128TIP3    H166875   3.930   0.463   2.190  0.0712 -0.2879  0.2415
15128TIP3    H266876   4.021   0.580   2.220  0.2365 -0.1991 -0.5881
15129TIP3   OH266877   2.088   1.173   1.911 -0.5328 -0.2275 -0.3868
15129TIP3    H166878   2.006   1.215   1.939 -0.6561 -0.8050  0.1214
15129TIP3    H266879   2.133   1.242   1.862 -0.6982  0.5368  0.4889
15130TIP3   OH266880   2.802   6.131  13.486 -0.7802  0.5508 -0.1036
15130TIP3    H166881   2.799   6.172  13.572  1.2918 -1.2099  0.8801
15130TIP3    H266882   2.849   6.194  13.431  0.4367  0.4748  0.8168
15131TIP3   OH266883   6.096   6.735   2.022 -0.2022  0.5138 -0.3424
15131TIP3    H166884   6.102   6.647   2.061  2.0799  0.1077 -1.4864
15131TIP3    H266885   6.099   6.794   2.097 -1.3378 -0.3260  0.4183
15132TIP3   OH266886   3.620   6.651   4.935  0.0090 -0.3182 -0.2276
15132TIP3    H166887   3.541   6.616   4.977 -0.2309  0.6646  0.1603
15132TIP3    H266888   3.666   6.697   5.005 -0.2819  1.1620 -0.9788
15133TIP3   OH266889   0.272   3.162  13.569 -0.0589 -0.0140  0.2310
15133TIP3    H166890   0.227   3.106  13.632 -0.2971  1.3931  1.3896
15133TIP3    H266891   0.220   3.156  13.489 -1.8176  0.8087  1.2486
15134TIP3   OH266892   3.588   0.550   5.637 -0.1125  0.1891  0.2968
15134TIP3    H166893   3.526   0.525   5.568 -1.7737  0.4941  1.6343
15134TIP3    H266894   3.641   0.471   5.651  0.2080  0.0956 -1.2369
15135TIP3   OH266895   5.015   2.187  14.144  0.3031 -0.2540  0.0596
15135TIP3    H166896   5.081   2.165  14.078 -2.1399 -0.4861 -2.5185
15135TIP3    H266897   5.030   2.279  14.165  0.3320  0.2577 -1.9741
15136TIP3   OH266898   1.149   3.406  12.478  0.1191 -0.6506 -0.0537
15136TIP3    H166899   1.066   3.450  12.459  0.2566 -0.4442 -0.1755
15136TIP3    H266900   1.123   3.326  12.525 -0.1652 -0.7091 -0.3031
15137TIP3   OH266901   1.474   5.098  16.324  0.3963 -0.0179 -0.3369
15137TIP3    H166902   1.467   5.186  16.285 -0.8236  0.8569  1.7258
15137TIP3    H266903   1.547   5.058  16.277 -0.7403  1.0510 -3.2565
15138TIP3   OH266904   4.758   4.815   5.222  0.1115 -0.4387 -0.0530
15138TIP3    H166905   4.709   4.776   5.295  0.3004 -0.9784 -0.2172
15138TIP3    H266906   4.721   4.903   5.214  2.3295  0.9833  2.9294
15139TIP3   OH266907   6.544   2.158   1.844  0.7566  0.6674  0.4819
15139TIP3    H166908   6.608   2.087   1.848 -0.3201 -0.3042  0.9578
15139TIP3    H266909   6.544   2.185   1.752 -0.2098 -1.2863 -0.1541
15140TIP3   OH266910   4.471   0.609  16.918 -0.1968  0.1572 -0.2355
15140TIP3    H166911   4.430   0.688  16.953  0.9315  0.4821  0.3794
15140TIP3    H266912   4.397   0.555  16.890 -0.9820  1.7233 -1.3581
15141TIP3   OH266913   5.661   0.104  14.030 -0.3053  0.3474  0.6646
15141TIP3    H166914   5.692   0.020  13.997  0.8652  0.3988  1.5692
15141TIP3    H266915   5.696   0.110  14.119 -0.7837  1.5727  0.7946
15142TIP3   OH266916   0.446   6.816  12.765 -0.1231  0.7328 -0.2434
15142TIP3    H166917   0.460   6.909  12.746 -2.7217  1.0456 -0.9517
15142TIP3    H266918   0.389   6.785  12.695 -3.3343 -0.1578  2.5208
15143TIP3   OH266919   3.991   1.476   3.609  0.2591 -0.0326  0.7751
15143TIP3    H166920   4.079   1.469   3.644 -0.2309 -1.0696  1.8811
15143TIP3    H266921   3.942   1.523   3.676 -0.1001  0.2799  0.2995
15144TIP3   OH266922   1.715   6.694  12.948  0.1230  0.0916  0.3959
15144TIP3    H166923   1.677   6.606  12.956  0.8173 -0.2700 -0.1539
15144TIP3    H266924   1.639   6.753  12.951 -0.4326 -0.5734 -0.0360
15145TIP3   OH266925   0.389   1.399  13.957 -0.5725  0.3394  0.2631
15145TIP3    H166926   0.359   1.450  13.882  0.1167 -0.8846 -0.8954
15145TIP3    H266927   0.460   1.346  13.922 -0.9419 -1.0429  1.5328
15146TIP3   OH266928   3.668   3.215  17.070  1.1749  0.0567  0.0813
15146TIP3    H166929   3.710   3.152  17.011 -0.8672 -0.3210 -1.0842
15146TIP3    H266930   3.578   3.184  17.076  0.8460  1.2678  1.8191
15147TIP3   OH266931   0.585   3.331   5.797 -0.2092 -0.0058 -0.0973
15147TIP3    H166932   0.638   3.371   5.865  1.4772 -0.5575 -1.0359
15147TIP3    H266933   0.567   3.242   5.830  2.4090 -1.0391 -1.1907
15148TIP3   OH266934   5.929   3.769   1.652  0.1584  0.2314 -0.6265
15148TIP3    H166935   5.922   3.688   1.603 -1.8996  0.1504 -0.2527
15148TIP3    H266936   5.926   3.838   1.585  2.8233  0.0715 -1.0344
15149TIP3   OH266937   5.697   5.678   0.162 -0.0309 -0.1216 -0.2243
15149TIP3    H166938   5.603   5.665   0.155 -0.2274  1.0146  0.1112
15149TIP3    H266939   5.733   5.590   0.175 -1.0382 -0.5606 -0.3702
15150TIP3   OH266940   0.652   1.284  12.485  0.4654  0.1688  0.1340
15150TIP3    H166941   0.684   1.333  12.561  2.0739 -0.1456 -0.3066
15150TIP3    H266942   0.558   1.272  12.502  0.7098  0.4672  1.8542
15151TIP3   OH266943   3.732   5.351  16.842 -0.1043 -0.3897  0.1137
15151TIP3    H166944   3.740   5.442  16.871 -0.4665 -0.9586  2.1654
15151TIP3    H266945   3.697   5.305  16.918 -2.3599 -1.8155 -1.6653
15152TIP3   OH266946   0.800   3.831  11.884  0.0706  0.6364 -0.0543
15152TIP3    H166947   0.746   3.797  11.813  1.1273  0.3121 -0.7311
15152TIP3    H266948   0.812   3.924  11.862  2.0720  0.1240 -1.4788
15153TIP3   OH266949   3.727   3.228   0.265  0.1672 -0.0667  0.1957
15153TIP3    H166950   3.755   3.244   0.175  0.4264  1.9792  0.5685
15153TIP3    H266951   3.783   3.287   0.317 -1.7094  0.7306  1.4147
15154TIP3   OH266952   5.842   4.203   2.996  0.4380  0.2900 -0.5508
15154TIP3    H166953   5.848   4.198   2.900 -0.7318 -2.0860 -0.5829
15154TIP3    H266954   5.804   4.119   3.022 -0.2753  1.2766  1.9362
15155TIP3   OH266955   5.136   2.938   5.355 -0.0929 -0.1705 -0.7004
15155TIP3    H166956   5.056   2.955   5.305 -0.3004 -1.8796 -1.0287
15155TIP3    H266957   5.109   2.877   5.423  0.9585 -0.9190 -0.9320
15156TIP3   OH266958   4.909   6.060  10.732  0.1713  0.0503 -0.0746
15156TIP3    H166959   4.825   6.105  10.735  0.2821  0.3590 -1.1354
15156TIP3    H266960   4.890   5.972  10.764 -0.6954 -0.0738 -0.8895
15157TIP3   OH266961   0.369   0.599  13.081  0.1819  0.3908 -0.1867
15157TIP3    H166962   0.355   0.600  12.986  0.7218  1.8729 -0.2753
15157TIP3    H266963   0.401   0.687  13.101 -3.9230  1.6478  1.9522
15158TIP3   OH266964   6.629   2.734  16.256 -0.0365  0.7858 -0.7954
15158TIP3    H166965   6.693   2.773  16.197 -0.9690 -0.0433 -2.4217
15158TIP3    H266966   6.551   2.722  16.202 -0.5861 -0.9827  0.3010
15159TIP3   OH266967   1.414   4.501   2.944  0.7301  0.1706 -0.4047
15159TIP3    H166968   1.319   4.505   2.932  0.6637 -0.9393 -0.2696
15159TIP3    H266969   1.438   4.590   2.974 -0.2807  0.4034 -0.2668
15160TIP3   OH266970   4.243   1.648  12.279  0.3122 -0.3309 -0.6024
15160TIP3    H166971   4.197   1.565  12.290  1.0465 -0.5442  1.1995
15160TIP3    H266972   4.318   1.627  12.223  1.1940 -1.1983  0.8501
15161TIP3   OH266973   1.665   1.499   5.481 -0.2254  0.1868  0.3415
15161TIP3    H166974   1.758   1.476   5.477 -0.1760  0.1686  1.2954
15161TIP3    H266975   1.655   1.544   5.565 -1.3909 -1.2219  0.9925
15162TIP3   OH266976   5.497   3.918  11.961  0.6192 -0.4671  0.2540
15162TIP3    H166977   5.538   3.984  11.904 -0.4248 -0.2185 -0.2335
15162TIP3    H266978   5.460   3.854  11.900 -2.8159  1.1341  0.4239
15163TIP3   OH266979   2.048   4.786   3.667  0.3875 -0.0111  0.0402
15163TIP3    H166980   1.999   4.713   3.706  0.9489  0.8473  2.5718
15163TIP3    H266981   1.984   4.857   3.661 -0.0847 -0.5613 -2.1538
15164TIP3   OH266982   5.471   5.159   0.976  0.5415 -0.2151 -0.4629
15164TIP3    H166983   5.518   5.182   1.056 -0.1013  0.5531 -0.2979
15164TIP3    H266984   5.530   5.185   0.905 -0.3404  2.5122 -0.3049
15165TIP3   OH266985   2.660   5.863   2.995 -0.7292  0.3577 -0.9506
15165TIP3    H166986   2.614   5.801   2.938 -1.9401  0.7991 -0.4942
15165TIP3    H266987   2.734   5.814   3.029 -0.5987 -0.2535 -2.0476
15166TIP3   OH266988   1.015   3.597   1.136 -0.1375 -0.2392  0.1104
15166TIP3    H166989   1.043   3.688   1.125 -0.2639 -0.1040  0.8448
15166TIP3    H266990   1.040   3.555   1.054  0.4125  0.3348 -0.0305
15167TIP3   OH266991   0.001   6.005  11.548  0.4705  0.2448 -0.3602
15167TIP3    H166992  -0.029   5.968  11.631 -2.1916  1.1818 -0.8153
15167TIP3    H266993  -0.021   6.098  11.554 -0.2479  0.2307 -2.3020
15168TIP3   OH266994   1.806   1.839   1.315  0.4826 -0.7348  0.0758
15168TIP3    H166995   1.850   1.808   1.236 -1.0438 -0.7600 -0.7899
15168TIP3    H266996   1.836   1.930   1.324  0.3524 -0.5982 -0.7672
15169TIP3   OH266997   2.016   6.403  15.778 -0.0485 -0.4418  0.0119
15169TIP3    H166998   2.033   6.408  15.872  1.7559  0.2390 -0.3238
15169TIP3    H266999   1.979   6.488  15.756  0.1382 -0.3694 -0.0173
15170TIP3   OH267000   3.632   1.779  12.561  0.0263 -0.0770  0.2826
15170TIP3    H167001   3.722   1.795  12.532  0.3844  0.4027  1.5879
15170TIP3    H267002   3.583   1.855  12.530  0.3187  0.2324  0.5698
15171TIP3   OH267003   5.478   0.514   2.495  0.3360 -0.5328  0.3878
15171TIP3    H167004   5.563   0.528   2.538  0.0059 -1.2192  1.3006
15171TIP3    H267005   5.496   0.528   2.402  1.3745 -0.3146  0.6034
15172TIP3   OH267006   4.121   5.712  14.232  0.1479  0.2095  0.0735
15172TIP3    H167007   4.103   5.792  14.183 -0.7731  0.4983  0.8551
15172TIP3    H267008   4.048   5.653  14.211  0.0213  0.1412  0.6753
15173TIP3   OH267009   0.632   4.205  17.268  0.1638 -0.0608  0.5362
15173TIP3    H167010   0.662   4.151  17.195 -0.5335 -1.6459  1.3960
15173TIP3    H267011   0.537   4.201  17.263  0.0725  1.5376  0.3268
15174TIP3   OH267012   1.648   1.138  16.775  0.1775 -0.4940  0.1804
15174TIP3    H167013   1.712   1.090  16.722 -1.2156 -1.8036 -0.3766
15174TIP3    H267014   1.700   1.180  16.844  1.5163 -2.3882  0.3841
15175TIP3   OH267015   5.553   3.234   4.435  0.0452 -0.1104  0.4050
15175TIP3    H167016   5.514   3.231   4.347 -2.0207  0.5068  1.2575
15175TIP3    H267017   5.521   3.315   4.472  1.4989 -0.0107  1.4935
15176TIP3   OH267018   3.181   4.501  15.405  0.1443  0.0072  0.0194
15176TIP3    H167019   3.252   4.467  15.350 -0.5173 -0.7046 -0.4215
15176TIP3    H267020   3.125   4.425  15.421  0.5027  0.1240  1.9867
15177TIP3   OH267021   2.727   2.030  15.907  0.0588 -0.1505  0.6473
15177TIP3    H167022   2.663   1.961  15.889  0.1471 -0.5261  1.6988
15177TIP3    H267023   2.674   2.104  15.937 -0.0243  0.1987 -0.3383
15178TIP3   OH267024   0.767   5.259   2.747  0.0764  0.2275 -0.3753
15178TIP3    H167025   0.720   5.318   2.806  0.2508  0.4385 -0.4492
15178TIP3    H267026   0.829   5.315   2.701  0.8994 -0.1649  0.2207
15179TIP3   OH267027   0.502   3.343   1.625  0.2160  0.3905 -0.6163
15179TIP3    H167028   0.593   3.331   1.651  0.3407 -0.1132 -1.2588
15179TIP3    H267029   0.500   3.320   1.532 -0.0294  3.0666 -1.3718
15180TIP3   OH267030   1.169   5.782  12.511  0.6573  0.1703  0.5204
15180TIP3    H167031   1.212   5.782  12.425 -0.5633  0.6453 -0.1199
15180TIP3    H267032   1.223   5.839  12.565 -0.7040  3.2223 -1.0998
15181TIP3   OH267033   1.177   0.674  15.941  0.0427  0.0885 -0.6850
15181TIP3    H167034   1.184   0.625  16.022 -3.3695 -1.5905 -1.2580
15181TIP3    H267035   1.149   0.762  15.968 -0.6566 -0.3334 -0.0230
15182TIP3   OH267036   3.562   3.589   5.741 -0.2493  0.0085  0.2140
15182TIP3    H167037   3.567   3.595   5.646 -1.2439 -1.7778 -0.0026
15182TIP3    H267038   3.595   3.673   5.773  0.1377  0.6200 -1.6934
15183TIP3   OH267039   4.176   3.823   4.830  0.1030  0.1765 -0.3985
15183TIP3    H167040   4.107   3.869   4.878  0.7998  1.1289 -0.2761
15183TIP3    H267041   4.248   3.886   4.826  0.2146 -0.0061 -2.3619
15184TIP3   OH267042   1.368   0.833  13.003 -0.7023  0.0208  0.1842
15184TIP3    H167043   1.348   0.902  12.941 -2.1349 -0.3652  0.1889
15184TIP3    H267044   1.448   0.862  13.047 -0.2682  0.7954 -1.0857
15185TIP3   OH267045   2.491   5.007  10.827  0.0970 -0.0014  0.1356
15185TIP3    H167046   2.481   4.932  10.768 -1.9203 -0.4108  0.8908
15185TIP3    H267047   2.494   4.969  10.914 -2.9947  0.7531  0.7060
15186TIP3   OH267048   6.300   0.871   0.468 -0.3310  0.2535 -0.0142
15186TIP3    H167049   6.209   0.872   0.497 -0.8306  1.3915 -1.4822
15186TIP3    H267050   6.349   0.906   0.542 -1.1094 -0.0525  0.6669
15187TIP3   OH267051   2.023   6.321   3.848  0.5128 -0.0178  0.3474
15187TIP3    H167052   2.025   6.376   3.926 -0.0734 -0.2914  0.5640
15187TIP3    H267053   1.963   6.365   3.788 -1.1084 -1.1231  1.0862
15188TIP3   OH267054   2.884   5.579   1.043  0.0381 -0.1567 -0.1360
15188TIP3    H167055   2.963   5.633   1.047 -0.3281  0.3842 -0.0745
15188TIP3    H267056   2.879   5.536   1.128  0.2669 -0.1919 -0.1402
15189TIP3   OH267057   2.259   6.438  17.046 -0.0920 -0.0014  0.2056
15189TIP3    H167058   2.292   6.499  17.112 -0.4835 -1.5635  1.9430
15189TIP3    H267059   2.312   6.455  16.969 -0.3165  2.6298  0.5449
15190TIP3   OH267060   2.809   4.857  14.188 -0.0890  0.2121 -0.2594
15190TIP3    H167061   2.800   4.922  14.117  2.3708  0.2886 -0.6124
15190TIP3    H267062   2.746   4.789  14.167 -0.1103  0.7211 -2.0052
15191TIP3   OH267063   3.567   1.688   0.277  0.1613 -0.1632 -0.7802
15191TIP3    H167064   3.512   1.627   0.327 -1.0105  0.3383 -1.4130
15191TIP3    H267065   3.649   1.641   0.264 -0.0445 -0.8797  0.3256
15192TIP3   OH267066   1.735   3.046  13.841  0.0729  0.1587  0.0376
15192TIP3    H167067   1.654   3.019  13.799 -0.4606 -1.2710  1.8324
15192TIP3    H267068   1.781   2.963  13.860  2.3336  0.9342 -1.5618
15193TIP3   OH267069   5.754   5.117  15.534  0.2014  0.1610  0.0383
15193TIP3    H167070   5.721   5.168  15.609 -1.4728 -0.2805 -0.3455
15193TIP3    H267071   5.816   5.056  15.573  0.9751  1.3455  0.7438
15194TIP3   OH267072   5.078   5.478   0.458 -0.2365  0.1747  0.0665
15194TIP3    H167073   5.139   5.516   0.395 -0.1858  0.1292  0.0887
15194TIP3    H267074   5.097   5.523   0.540  1.0014 -1.1005  0.5140
15195TIP3   OH267075   3.278   1.329   2.545 -0.3608  0.3054 -0.1111
15195TIP3    H167076   3.225   1.267   2.595 -0.5661  2.0228  1.9916
15195TIP3    H267077   3.367   1.313   2.574  0.2203 -1.6336 -2.6087
15196TIP3   OH267078   4.588   1.110   4.788  0.0473 -0.9375  0.7885
15196TIP3    H167079   4.504   1.135   4.825  1.2345  0.1688  2.9556
15196TIP3    H267080   4.589   1.014   4.792 -1.2603 -0.9853  0.2808
15197TIP3   OH267081   3.291   6.722   5.005  0.0429 -0.0479 -0.3748
15197TIP3    H167082   3.226   6.779   5.047  2.2527  1.4239  1.2770
15197TIP3    H267083   3.308   6.653   5.069  0.0846 -0.4751 -0.8360
15198TIP3   OH267084   3.378   3.354  10.907 -0.2068 -0.0822 -0.2927
15198TIP3    H167085   3.300   3.310  10.874 -0.0094  0.3203 -1.3281
15198TIP3    H267086   3.367   3.446  10.881 -0.1995  0.3237  1.0710
15199TIP3   OH267087   2.505   4.900  12.415  0.0150 -0.0115 -0.4787
15199TIP3    H167088   2.597   4.888  12.438  0.1443 -4.7973 -2.2823
15199TIP3    H267089   2.507   4.933  12.325  0.0209 -0.9193 -0.8182
15200TIP3   OH267090   3.714   2.883  14.280  0.2805  0.0635 -0.3707
15200TIP3    H167091   3.778   2.830  14.327  2.6527  3.4655  0.6670
15200TIP3    H267092   3.717   2.968  14.323 -1.7515  1.6846 -3.0860
15201TIP3   OH267093   0.576   5.888  16.790 -0.2576  0.5069 -0.2983
15201TIP3    H167094   0.566   5.891  16.885 -0.5964  1.0793 -0.3461
15201TIP3    H267095   0.640   5.819  16.775 -1.5399 -0.8571  0.2518
15202TIP3   OH267096   2.590   4.683  13.314 -0.1925 -0.2772 -0.0157
15202TIP3    H167097   2.640   4.621  13.261 -0.7169 -0.4519 -0.3136
15202TIP3    H267098   2.568   4.754  13.254  0.0600  0.0007  0.2214
15203TIP3   OH267099   6.227   1.558   1.205  0.1991  0.3642  0.0763
15203TIP3    H167100   6.234   1.651   1.228 -0.8660  0.5957 -0.4549
15203TIP3    H267101   6.161   1.524   1.264  0.6473 -0.0849  0.3251
15204TIP3   OH267102   5.881   4.149   2.327 -0.4793 -0.6374 -0.0225
15204TIP3    H167103   5.898   4.197   2.408  2.1045  0.0800 -0.8662
15204TIP3    H267104   5.824   4.207   2.276 -0.3337 -0.1059  0.4128
15205TIP3   OH267105   5.551   5.327  14.085  0.4287 -0.1125 -0.1359
15205TIP3    H167106   5.577   5.297  14.173 -0.3909 -0.7068 -0.0837
15205TIP3    H267107   5.631   5.320  14.033  0.9556  0.3722  0.5909
15206TIP3   OH267108   1.937   3.703   4.175  0.6375  0.3193  0.2931
15206TIP3    H167109   1.865   3.667   4.122  0.7857 -0.5202  0.6432
15206TIP3    H267110   2.013   3.651   4.150  1.0651  0.9949  0.1553
15207TIP3   OH267111   6.411   3.219   5.375 -0.0592  0.3805 -0.2087
15207TIP3    H167112   6.475   3.204   5.306 -1.0785 -0.8657 -0.9416
15207TIP3    H267113   6.460   3.212   5.457  1.2472  2.2624 -0.7569
15208TIP3   OH267114   3.798   6.292   4.195 -0.0618 -0.0611 -0.7712
15208TIP3    H167115   3.714   6.246   4.188 -0.7948  1.0376  0.3907
15208TIP3    H267116   3.798   6.352   4.120  0.4156 -1.1519 -1.6694
15209TIP3   OH267117   6.503   3.901  14.431 -0.0978  0.3963  0.3733
15209TIP3    H167118   6.586   3.928  14.392 -0.1928  1.0685  0.6290
15209TIP3    H267119   6.498   3.950  14.513 -0.0460 -0.7635  1.0937
15210TIP3   OH267120   0.263   0.571  13.645 -0.1073 -0.0781  0.3795
15210TIP3    H167121   0.181   0.619  13.633  0.2441  0.8330  1.3682
15210TIP3    H267122   0.320   0.604  13.576  0.0495  0.7893  0.9001
15211TIP3   OH267123   1.839   0.034   5.336  0.4753 -0.2405  0.4402
15211TIP3    H167124   1.890   0.004   5.260  1.1278  0.2398  0.6808
15211TIP3    H267125   1.897   0.095   5.381 -0.3136  0.3017  0.7374
15212TIP3   OH267126   4.083   5.160  14.038  0.1287  0.7514 -0.4759
15212TIP3    H167127   4.129   5.095  14.091  0.1104  0.5347 -0.7261
15212TIP3    H267128   4.150   5.224  14.016  0.3496  0.3562 -0.9662
15213TIP3   OH267129   0.075   5.470   5.468 -0.6247  0.1818 -0.0336
15213TIP3    H167130   0.079   5.391   5.414  0.4906 -0.0798  0.4151
15213TIP3    H267131  -0.011   5.507   5.449 -1.0363 -0.9651 -0.4938
15214TIP3   OH267132   1.891   2.318   2.127  0.1590  0.1806 -0.2546
15214TIP3    H167133   1.895   2.397   2.181  1.6565  1.4019 -2.0274
15214TIP3    H267134   1.957   2.260   2.163 -2.0978 -1.1172  2.1426
15215TIP3   OH267135   4.907   6.323   1.572  0.0604 -0.2798 -0.1462
15215TIP3    H167136   4.845   6.395   1.559  0.0813 -0.2654 -0.1688
15215TIP3    H267137   4.984   6.365   1.612  0.1052 -0.2747 -0.2375
15216TIP3   OH267138   6.032   2.311   1.493  0.0095  0.5114  0.1500
15216TIP3    H167139   6.008   2.404   1.489 -1.4323  0.1731  0.6316
15216TIP3    H267140   6.021   2.287   1.585  2.7709  0.4290  0.5645
15217TIP3   OH267141   2.163   0.991   2.111  0.2084 -0.0048 -0.5624
15217TIP3    H167142   2.234   1.046   2.144 -1.1970  1.5390  0.0313
15217TIP3    H267143   2.107   1.051   2.060 -0.7069 -1.1510 -0.9742
15218TIP3   OH267144   0.759   0.132   4.114  0.2481  0.6216 -0.1278
15218TIP3    H167145   0.821   0.109   4.184 -0.6749 -2.0093 -0.0857
15218TIP3    H267146   0.723   0.216   4.142  1.7807  0.8839  1.2330
15219TIP3   OH267147   6.564   4.555  12.326 -0.2112  0.1549  0.3226
15219TIP3    H167148   6.651   4.590  12.348 -0.2053  0.4093 -0.1098
15219TIP3    H267149   6.543   4.497  12.400  0.4900 -0.2099  0.2481
15220TIP3   OH267150   0.454   1.543   2.133 -0.0675  0.2496 -0.1753
15220TIP3    H167151   0.404   1.461   2.142 -0.4623  0.4766 -0.2815
15220TIP3    H267152   0.542   1.514   2.108  0.5343 -0.2934  2.3225
15221TIP3   OH267153   0.302   2.825  14.396 -0.2596 -0.6571 -0.8747
15221TIP3    H167154   0.264   2.774  14.325 -0.5390 -2.0351  0.2125
15221TIP3    H267155   0.251   2.906  14.398 -1.2542 -1.2637 -1.2639
15222TIP3   OH267156   3.897   3.220  11.312  0.1390  0.1599 -0.0217
15222TIP3    H167157   3.894   3.132  11.350 -1.8777  0.4836  0.7013
15222TIP3    H267158   3.942   3.208  11.229  0.4983 -1.4304  0.3571
15223TIP3   OH267159   0.875   1.241   2.053  0.6584 -0.3717 -0.6854
15223TIP3    H167160   0.878   1.223   2.147  1.8842  0.5924 -0.5056
15223TIP3    H267161   0.836   1.328   2.047  0.3508 -0.5380 -1.0898
15224TIP3   OH267162   3.113   1.866  13.732 -0.4040  0.1115  0.2141
15224TIP3    H167163   3.091   1.851  13.640 -0.3790 -0.3512  0.2808
15224TIP3    H267164   3.036   1.911  13.768 -0.1476  0.8879 -0.1848
15225TIP3   OH267165   5.821   2.991  16.525 -0.4009  0.0682  0.0313
15225TIP3    H167166   5.808   3.086  16.529 -0.8408 -0.0160  2.1530
15225TIP3    H267167   5.762   2.962  16.455  1.3081  1.5255 -2.1251
15226TIP3   OH267168   4.959   6.083  14.435  0.6295  0.3296 -0.2144
15226TIP3    H167169   4.902   6.048  14.503  0.2644  0.2724 -0.5459
15226TIP3    H267170   5.041   6.103  14.480  0.4150  0.2253  0.2251
15227TIP3   OH267171   4.830   0.908  13.027 -0.6669 -0.4676  0.5796
15227TIP3    H167172   4.905   0.942  13.075  0.2920 -1.1764 -0.3603
15227TIP3    H267173   4.806   0.978  12.966 -1.7522  0.3489  1.8699
15228TIP3   OH267174   3.984   0.316   1.709 -0.0463  0.9835  0.2469
15228TIP3    H167175   3.956   0.397   1.752 -2.7825  0.4399 -0.3154
15228TIP3    H267176   4.032   0.268   1.777  0.9567  2.6984  0.8172
15229TIP3   OH267177   5.468   2.682   4.175 -0.4456 -0.5519 -0.2352
15229TIP3    H167178   5.399   2.736   4.139 -0.6393 -0.1442  0.7018
15229TIP3    H267179   5.437   2.658   4.263 -0.2117 -1.8964 -0.4956
15230TIP3   OH267180   3.929   6.132  15.427 -0.0096 -0.6520  0.4801
15230TIP3    H167181   3.869   6.104  15.358  0.4226 -0.4708  0.0251
15230TIP3    H267182   3.871   6.163  15.498 -0.4582 -1.2731  0.3897
15231TIP3   OH267183   2.869   2.895   2.275  0.0953 -0.3180 -0.0345
15231TIP3    H167184   2.784   2.939   2.282  0.4996  0.3866  0.6866
15231TIP3    H267185   2.864   2.822   2.336 -0.3985 -0.9877 -0.8602
15232TIP3   OH267186   1.053   0.497   1.809  0.3903 -0.0526  0.6402
15232TIP3    H167187   1.039   0.404   1.791 -0.1018  0.2918 -0.9681
15232TIP3    H267188   1.128   0.499   1.868 -0.3994 -1.5172  1.7632
15233TIP3   OH267189   1.091   2.895   6.039  0.2252  0.1863 -0.2330
15233TIP3    H167190   1.131   2.981   6.048  0.8519 -0.1908  0.7562
15233TIP3    H267191   1.028   2.889   6.111  1.1358 -0.6676  0.5192
15234TIP3   OH267192   6.081   5.774   3.146  0.1858 -0.1623  0.4821
15234TIP3    H167193   6.003   5.753   3.095 -0.2930  2.7479 -0.1544
15234TIP3    H267194   6.145   5.707   3.121 -2.2729 -3.2293  1.7441
15235TIP3   OH267195   1.398   5.346   5.582 -0.5637  0.1848 -0.1995
15235TIP3    H167196   1.493   5.346   5.571 -0.7062 -0.5250 -1.7560
15235TIP3    H267197   1.384   5.381   5.670  1.1185  0.5133 -0.0220
15236TIP3   OH267198   4.209   5.141  12.045  0.0182 -0.0495 -0.0605
15236TIP3    H167199   4.240   5.221  12.003  2.0226  0.4710  2.1627
15236TIP3    H267200   4.253   5.070  11.999  0.3187  0.3299 -0.3612
15237TIP3   OH267201   6.298   5.884   0.369  0.1048 -0.0237  0.1252
15237TIP3    H167202   6.277   5.791   0.361  0.4242 -0.2830  1.9545
15237TIP3    H267203   6.214   5.926   0.390  0.5892 -0.5387  3.5855
15238TIP3   OH267204   0.245   0.308  16.915  0.7425 -0.4636  0.5759
15238TIP3    H167205   0.238   0.230  16.860  1.4252  0.5190 -0.9355
15238TIP3    H267206   0.243   0.382  16.855 -2.6184  0.9148  2.1042
15239TIP3   OH267207   5.533   2.909   3.127 -0.5653 -0.7918 -0.0434
15239TIP3    H167208   5.611   2.959   3.154 -0.8152 -1.0706  1.2512
15239TIP3    H267209   5.558   2.870   3.043 -0.1252  0.9597 -0.7859
15240TIP3   OH267210   3.239   0.017  11.918  0.1430 -0.3675  0.2519
15240TIP3    H167211   3.169   0.063  11.872  1.9118  3.0562  0.6537
15240TIP3    H267212   3.243   0.059  12.004  3.0250  0.0572  0.0207
15241TIP3   OH267213   1.765   5.868  12.786 -0.4386 -0.1320  0.0852
15241TIP3    H167214   1.799   5.897  12.702  1.8547 -0.3665  0.8781
15241TIP3    H267215   1.703   5.799  12.764 -0.5714  0.4358 -1.4342
15242TIP3   OH267216   2.935   2.343   3.192  0.2006 -0.5110 -0.4954
15242TIP3    H167217   2.895   2.416   3.143  0.9199 -0.1808 -0.6005
15242TIP3    H267218   2.875   2.329   3.266  0.3089  0.5396 -0.1855
15243TIP3   OH267219   0.085   5.987   3.354 -0.1562 -0.2589 -0.0524
15243TIP3    H167220   0.096   5.939   3.272 -2.7508 -0.1136 -0.5615
15243TIP3    H267221   0.146   5.944   3.415  2.6104  0.2896 -2.2332
15244TIP3   OH267222   1.399   2.120   2.985  0.7241  0.5379  0.1793
15244TIP3    H167223   1.367   2.208   3.003 -0.4129  0.6325 -1.9918
15244TIP3    H267224   1.321   2.070   2.963  1.2440 -1.2760  2.0862
15245TIP3   OH267225   1.348   3.846  14.964  0.7122  0.2586 -0.0442
15245TIP3    H167226   1.337   3.785  14.891 -1.3039  0.8986 -0.3207
15245TIP3    H267227   1.399   3.797  15.028 -0.8807 -1.7659 -0.2358
15246TIP3   OH267228   0.533   6.244   0.948  0.0986  0.3455 -0.1241
15246TIP3    H167229   0.532   6.223   1.042  0.4704 -0.0592 -0.2063
15246TIP3    H267230   0.611   6.200   0.915 -0.2161  0.2089 -0.6904
15247TIP3   OH267231   6.715   5.517  14.002  0.1560 -0.1334 -0.2022
15247TIP3    H167232   6.723   5.570  14.081 -2.9436  0.1600  0.0377
15247TIP3    H267233   6.797   5.531  13.955  1.7749  0.3111  2.5382
15248TIP3   OH267234   6.810   5.899  11.826 -0.2585  0.1295 -0.3376
15248TIP3    H167235   6.866   5.825  11.851  0.8165  1.0218  0.0047
15248TIP3    H267236   6.754   5.915  11.902  1.3898  1.3516  0.7022
15249TIP3   OH267237   5.130   3.040  17.261  0.2234  0.1235  0.2876
15249TIP3    H167238   5.044   3.080  17.247 -0.1437  0.1965  2.4468
15249TIP3    H267239   5.192   3.108  17.236 -0.3063  0.1360 -1.1233
15250TIP3   OH267240   0.807   0.727   5.053  0.2684 -0.2279  0.1538
15250TIP3    H167241   0.758   0.702   4.975  0.6325 -2.6814  0.6505
15250TIP3    H267242   0.764   0.680   5.125  0.3649  1.4355  1.3836
15251TIP3   OH267243   6.557   3.006  13.591  0.2212 -0.1653 -0.0645
15251TIP3    H167244   6.577   3.098  13.577  0.3225  0.2051  2.1305
15251TIP3    H267245   6.477   3.006  13.643  0.6303 -1.2714  0.6030
15252TIP3   OH267246   3.457   4.835  16.973  0.3259  0.2943  0.2265
15252TIP3    H167247   3.508   4.772  17.024 -1.0309 -0.2072  1.0051
15252TIP3    H267248   3.466   4.918  17.021  0.7730  0.3226  0.1003
15253TIP3   OH267249   2.600   3.991  14.837  0.5823 -0.0403  0.2186
15253TIP3    H167250   2.568   3.981  14.927  0.6061 -3.1161 -0.0212
15253TIP3    H267251   2.535   4.047  14.795 -1.3235 -1.3101  1.2999
15254TIP3   OH267252   4.056   1.959  13.453  0.1342  0.8328  0.3342
15254TIP3    H167253   4.094   1.920  13.532 -0.1226 -1.1252 -0.4716
15254TIP3    H267254   3.978   2.006  13.484 -0.6696 -0.9440  1.1163
15255TIP3   OH267255   4.756   3.999  12.834 -0.0952  0.3600  0.8213
15255TIP3    H167256   4.826   3.939  12.860  1.1614  0.9291 -1.0573
15255TIP3    H267257   4.796   4.086  12.840 -1.1623  0.8378  1.2754
15256TIP3   OH267258   3.195   0.636   4.976 -0.1964 -0.2087 -0.1633
15256TIP3    H167259   3.207   0.547   4.942 -1.5517 -0.7734  0.7704
15256TIP3    H267260   3.156   0.623   5.063 -0.2981  1.2999  0.0326
15257TIP3   OH267261   1.155   3.795  16.361 -0.5955 -0.4982 -0.4024
15257TIP3    H167262   1.186   3.767  16.276 -0.0655 -0.2248 -0.3011
15257TIP3    H267263   1.108   3.876  16.344  1.2020  0.6366 -0.1931
15258TIP3   OH267264   2.327   5.882  15.632 -0.0449 -0.0148 -0.3272
15258TIP3    H167265   2.240   5.861  15.598 -0.8328 -2.6211  2.8010
15258TIP3    H267266   2.316   5.964  15.679 -1.5180 -1.3597  1.8673
15259TIP3   OH267267   5.084   5.535  16.458 -0.2060  0.0617 -0.3725
15259TIP3    H167268   5.138   5.488  16.395  2.2817  3.5697 -1.1487
15259TIP3    H267269   5.132   5.530  16.540 -0.8127 -0.1987 -0.0252
15260TIP3   OH267270   0.603   4.996   0.608  0.0230  0.3621  0.1651
15260TIP3    H167271   0.654   5.061   0.560 -1.1516  0.5707 -0.8542
15260TIP3    H267272   0.591   5.033   0.695  2.4461 -0.1507  0.7813
15261TIP3   OH267273   2.685   1.710   4.978 -0.8506  0.0590  0.3537
15261TIP3    H167274   2.698   1.797   5.017 -2.0994  0.3828  0.1109
15261TIP3    H267275   2.662   1.728   4.887  1.0997 -0.6492 -0.3241
15262TIP3   OH267276   4.774   6.643   3.636 -0.5792  0.4626  0.4834
15262TIP3    H167277   4.774   6.644   3.731 -0.1120  1.8645  0.5005
15262TIP3    H267278   4.834   6.714   3.611 -1.3787  0.7148 -0.8405
15263TIP3   OH267279   6.380   2.443   0.607  0.0432  0.4434 -0.0321
15263TIP3    H167280   6.452   2.379   0.600  0.5842  1.0115  0.2300
15263TIP3    H267281   6.323   2.408   0.675 -0.1261 -0.1934 -0.4859
15264TIP3   OH267282   4.528   6.482  11.352 -0.6409 -0.2998  0.2314
15264TIP3    H167283   4.535   6.422  11.278  0.4705  0.2986 -0.1824
15264TIP3    H267284   4.492   6.562  11.315 -0.4939 -0.1419  0.4252
15265TIP3   OH267285   3.123   5.578  16.813  0.0686 -0.4005 -0.2445
15265TIP3    H167286   3.201   5.569  16.868  1.1191 -0.8050 -1.7162
15265TIP3    H267287   3.155   5.621  16.733 -1.2694 -0.3717 -0.7886
15266TIP3   OH267288   6.110   5.907   4.301 -0.5109 -0.4085 -0.3302
15266TIP3    H167289   6.101   5.973   4.370  0.2444  1.1147 -1.6344
15266TIP3    H267290   6.022   5.897   4.266 -0.5512  0.2832 -0.4438
15267TIP3   OH267291   6.265   5.509   1.854  0.2610  0.0125  0.5350
15267TIP3    H167292   6.230   5.598   1.845 -0.5373 -0.3284  0.1517
15267TIP3    H267293   6.201   5.463   1.908 -0.3933 -0.8621 -0.9003
15268TIP3   OH267294   3.952   2.986   0.701  0.6660  0.0308  0.3416
15268TIP3    H167295   3.895   2.948   0.768 -1.6463  0.6477 -1.1542
15268TIP3    H267296   3.976   2.912   0.645 -0.5845  0.0990 -0.3137
15269TIP3   OH267297   3.417   5.480   1.024 -0.8103 -0.1255  0.0221
15269TIP3    H167298   3.364   5.519   0.954 -0.8848 -1.4338 -0.6815
15269TIP3    H267299   3.506   5.507   1.004 -1.1387  2.0595  1.1908
15270TIP3   OH267300   0.635   3.515   6.771 -0.0155 -0.9694 -0.4244
15270TIP3    H167301   0.680   3.445   6.724  1.3524  0.3695 -1.2093
15270TIP3    H267302   0.562   3.539   6.714  0.0003 -1.2032 -0.5438
15271TIP3   OH267303   6.242   2.653   2.220  0.4242  0.0631  0.1638
15271TIP3    H167304   6.336   2.661   2.232  0.7513 -1.5805 -1.0362
15271TIP3    H267305   6.223   2.561   2.239 -0.1983 -0.7812 -3.7818
15272TIP3   OH267306   3.096   6.560  15.330  0.1532 -0.4582 -0.6292
15272TIP3    H167307   3.012   6.552  15.285 -0.5768  0.1840  0.5662
15272TIP3    H267308   3.080   6.524  15.417  1.2184 -0.6174 -0.4828
15273TIP3   OH267309   2.160   2.235   1.209 -0.1228 -0.8803 -0.0419
15273TIP3    H167310   2.206   2.154   1.188 -0.4345 -0.4241 -2.9121
15273TIP3    H267311   2.227   2.303   1.201 -0.6661 -0.4917 -1.5931
15274TIP3   OH267312   1.454   0.999   1.116 -0.4979 -0.1302 -0.3089
15274TIP3    H167313   1.382   0.953   1.073 -0.0377  0.7106 -2.0557
15274TIP3    H267314   1.531   0.980   1.062  0.2392  0.4543  0.5014
15275TIP3   OH267315   4.275   1.276  12.672  0.2259  0.4478 -0.1090
15275TIP3    H167316   4.253   1.359  12.714  0.0008  0.1732  0.3211
15275TIP3    H267317   4.328   1.301  12.596  1.4069  0.9111  0.8265
15276TIP3   OH267318   4.154   5.119  16.739  0.0482 -0.3020  0.8703
15276TIP3    H167319   4.084   5.108  16.674  0.0438 -2.3193  1.1678
15276TIP3    H267320   4.197   5.201  16.713  0.0679 -1.0472 -1.7265
15277TIP3   OH267321   5.714   2.313  11.767  0.2953 -0.0204  0.0454
15277TIP3    H167322   5.775   2.354  11.828 -0.0827 -0.3277  0.6390
15277TIP3    H267323   5.702   2.224  11.801 -1.3518  0.3771  0.5992
15278TIP3   OH267324   2.800   1.134  10.759  0.2405  0.4375  0.1761
15278TIP3    H167325   2.807   1.059  10.700 -0.7400 -0.4031  1.0817
15278TIP3    H267326   2.849   1.108  10.837 -0.7108  0.4185  0.7822
15279TIP3   OH267327   1.811   6.601  15.508 -0.2226 -0.2912  0.0487
15279TIP3    H167328   1.798   6.508  15.529 -0.5414 -0.0068  1.2197
15279TIP3    H267329   1.799   6.607  15.414 -2.5737 -1.0624  0.2470
15280TIP3   OH267330   5.928   5.610  15.296  0.7999  0.4089  0.0535
15280TIP3    H167331   5.985   5.557  15.241 -0.2525 -0.3856 -0.3076
15280TIP3    H267332   5.851   5.627  15.242 -1.6811 -2.9307  2.1140
15281TIP3   OH267333   4.680   1.608   4.766  0.1530 -0.2293  0.4530
15281TIP3    H167334   4.663   1.701   4.777 -0.1341 -0.3374  0.9353
15281TIP3    H267335   4.598   1.565   4.788  0.4098 -0.6250  0.6546
15282TIP3   OH267336   4.840   1.687  15.394 -0.1815 -0.3871  0.6501
15282TIP3    H167337   4.863   1.777  15.372 -1.2127 -0.3726 -0.4861
15282TIP3    H267338   4.921   1.637  15.383 -0.0581  0.0749 -0.6869
15283TIP3   OH267339   3.055   5.640   5.363  0.0498  0.7690 -0.2532
15283TIP3    H167340   3.094   5.601   5.441 -1.4740 -1.6640 -0.5827
15283TIP3    H267341   3.017   5.566   5.316  1.0813  2.0893 -3.4670
15284TIP3   OH267342   5.483   2.421  13.114  0.0999  0.3440 -0.1238
15284TIP3    H167343   5.459   2.498  13.063  1.1835  0.4111 -0.5518
15284TIP3    H267344   5.578   2.422  13.116  0.1284 -0.9572 -0.0833
15285TIP3   OH267345   2.798   4.999   0.593 -0.2715 -0.1233  0.6388
15285TIP3    H167346   2.820   5.090   0.572  0.2841  0.4801  3.4179
15285TIP3    H267347   2.731   4.976   0.529 -0.6205  2.3359 -0.0008
15286TIP3   OH267348   3.472   4.849  13.472 -0.3229  0.0008 -0.1014
15286TIP3    H167349   3.495   4.942  13.482 -1.8213  0.5688 -1.4368
15286TIP3    H267350   3.382   4.843  13.503 -0.6906 -0.7187 -1.2491
15287TIP3   OH267351   4.053   5.329  12.572 -0.0433  0.6489 -0.2050
15287TIP3    H167352   4.123   5.358  12.513  0.5995  1.4852  0.9319
15287TIP3    H267353   4.014   5.410  12.604 -0.2892  0.2190  0.6104
15288TIP3   OH267354   5.250   0.776   5.588  0.1631 -0.2501 -0.1291
15288TIP3    H167355   5.197   0.849   5.555 -0.1522 -0.9787 -1.2861
15288TIP3    H267356   5.256   0.791   5.683 -2.3194 -0.2626  0.0810
15289TIP3   OH267357   4.632   2.950  14.048 -0.1228  0.2714 -0.4796
15289TIP3    H167358   4.651   2.881  13.984 -0.0683  1.0145 -1.2851
15289TIP3    H267359   4.564   2.913  14.104  0.7062 -0.8537 -0.1865
15290TIP3   OH267360   5.212   1.181  16.717  0.3914 -0.2349  0.1770
15290TIP3    H167361   5.182   1.229  16.794 -2.1600  0.4538 -1.1223
15290TIP3    H267362   5.189   1.090  16.735  0.7544 -0.2348  0.6484
15291TIP3   OH267363   5.102   1.331  16.937  0.1109 -0.0496 -0.1768
15291TIP3    H167364   5.020   1.282  16.941  1.6766 -2.9642 -0.5472
15291TIP3    H267365   5.136   1.328  17.026 -0.4576  1.7492  0.1274
15292TIP3   OH267366   2.694   6.138   3.060 -0.2911 -0.3340  0.2380
15292TIP3    H167367   2.656   6.184   2.985 -0.2193  2.0256  1.5567
15292TIP3    H267368   2.694   6.046   3.034 -2.0509  0.1767 -1.8759
15293TIP3   OH267369   1.434   5.996  11.200  0.3678  0.5998 -0.2671
15293TIP3    H167370   1.525   6.013  11.179  0.0636  2.2834 -0.4023
15293TIP3    H267371   1.424   6.025  11.291 -0.0999  0.7661 -0.3644
15294TIP3   OH267372   2.603   3.189   5.891 -0.3273  0.5853  0.7920
15294TIP3    H167373   2.619   3.159   5.981 -2.2744  2.0249  1.6803
15294TIP3    H267374   2.522   3.145   5.865  0.2400  0.1505 -0.3203
15295TIP3   OH267375   4.119   5.340   0.023  0.8035 -0.0717  0.4142
15295TIP3    H167376   4.166   5.269  -0.022  1.1566  0.9421 -0.8978
15295TIP3    H267377   4.187   5.404   0.043  0.1435  0.9954 -0.6525
15296TIP3   OH267378   5.949   4.292  13.999  0.0739  0.0217  0.5005
15296TIP3    H167379   5.984   4.223  13.943  1.0628  1.0557 -0.1705
15296TIP3    H267380   5.950   4.254  14.087 -0.5312 -1.2392 -0.0059
15297TIP3   OH267381   4.235   0.476   2.548 -0.9155 -0.0831  0.0066
15297TIP3    H167382   4.203   0.539   2.484  0.1870  0.0016 -0.4885
15297TIP3    H267383   4.328   0.497   2.557 -0.3192 -2.1796 -0.8030
15298TIP3   OH267384   5.423   4.370  11.277 -0.0838 -0.1247  0.4035
15298TIP3    H167385   5.467   4.285  11.269 -0.2259 -0.3221  1.4829
15298TIP3    H267386   5.349   4.352  11.335 -0.2947  0.6781  0.3938
15299TIP3   OH267387   1.806   3.416  15.562 -0.2159 -0.1966 -0.3226
15299TIP3    H167388   1.891   3.428  15.520 -0.7263  0.8487 -1.0946
15299TIP3    H267389   1.776   3.331  15.530  0.4897 -0.5389 -0.1031
15300TIP3   OH267390   2.287   1.160  17.059 -0.5179 -0.2169  0.3420
15300TIP3    H167391   2.219   1.111  17.013 -0.3853 -1.8433  1.7748
15300TIP3    H267392   2.354   1.095  17.079  0.5054  0.9268  0.7841
15301TIP3   OH267393   3.505   2.452   2.166  0.1231  0.0037 -0.2259
15301TIP3    H167394   3.430   2.489   2.214 -0.6836 -1.3629 -0.3722
15301TIP3    H267395   3.579   2.505   2.194 -0.4820 -0.1196  1.7961
15302TIP3   OH267396   2.998   3.856  13.647  0.2852  0.2938  0.2676
15302TIP3    H167397   2.917   3.808  13.628  1.7057 -1.8454 -0.7993
15302TIP3    H267398   3.059   3.789  13.676  2.2110  1.5536 -0.6910
15303TIP3   OH267399   6.043   1.959   4.121  0.3026 -0.7953 -0.0617
15303TIP3    H167400   6.087   1.896   4.177 -1.4259 -1.4404  0.6110
15303TIP3    H267401   6.060   1.928   4.032  0.8920 -1.2383  0.2022
15304TIP3   OH267402   3.114   3.057   2.321  0.3206 -0.5445  0.1650
15304TIP3    H167403   3.142   2.967   2.310  1.1878  0.0522 -4.4239
15304TIP3    H267404   3.020   3.056   2.301  0.1347 -0.4697  0.9655
15305TIP3   OH267405   0.878   4.209  12.997  0.3560  0.2380 -0.1410
15305TIP3    H167406   0.907   4.132  13.046 -1.5985  0.7261  1.9299
15305TIP3    H267407   0.906   4.283  13.050 -0.7894  0.8297 -0.3316
15306TIP3   OH267408   1.920   0.255   5.518 -0.3324 -0.2511  0.2510
15306TIP3    H167409   1.946   0.334   5.566  3.0980 -1.3174  0.4167
15306TIP3    H267410   1.867   0.206   5.581  0.7967  0.1638  1.5817
15307TIP3   OH267411   1.674   0.711   2.482 -0.0411 -0.5789 -0.4435
15307TIP3    H167412   1.740   0.693   2.415 -1.4856 -1.2316 -1.7410
15307TIP3    H267413   1.655   0.625   2.520  2.1625 -0.0050  2.2691
15308TIP3   OH267414   3.303   1.203  14.358 -0.0890 -0.3024  0.4062
15308TIP3    H167415   3.226   1.185  14.412  0.3823 -0.9268  0.8791
15308TIP3    H267416   3.374   1.216  14.420  0.5381 -1.3922 -0.0466
15309TIP3   OH267417   0.431   0.988  11.759 -0.2430  0.1091  0.4905
15309TIP3    H167418   0.481   0.913  11.790 -1.8107 -0.1327  2.7131
15309TIP3    H267419   0.495   1.059  11.753  1.2752 -1.3144 -1.6743
15310TIP3   OH267420   5.197   1.343   0.726  0.6218 -0.1615  0.3185
15310TIP3    H167421   5.217   1.278   0.793 -1.1481  0.3045  1.3751
15310TIP3    H267422   5.210   1.427   0.770 -0.6001  0.1453  0.1469
15311TIP3   OH267423   4.319   2.438   1.463 -0.0347  0.2713 -0.2107
15311TIP3    H167424   4.336   2.369   1.527  2.3191  1.5528  0.6484
15311TIP3    H267425   4.366   2.410   1.384 -0.9307 -0.1374 -0.6169
15312TIP3   OH267426   6.511   4.414   1.402  0.2039  0.2561 -0.2564
15312TIP3    H167427   6.549   4.468   1.472  0.5275  1.5655 -1.4065
15312TIP3    H267428   6.417   4.424   1.412  0.0739 -2.0520  1.8698
15313TIP3   OH267429   5.550   6.169   4.736 -0.3123 -0.3354 -0.2574
15313TIP3    H167430   5.544   6.105   4.807 -1.9558  0.0118 -0.0325
15313TIP3    H267431   5.596   6.243   4.774 -0.9312 -0.2686  0.3885
15314TIP3   OH267432   2.878   4.284  15.671 -0.2947 -0.3084 -0.3023
15314TIP3    H167433   2.821   4.223  15.717  0.8633  1.3076  3.7373
15314TIP3    H267434   2.967   4.253  15.688  0.2254  0.9068 -0.6275
15315TIP3   OH267435   4.091   0.290   4.422 -0.2702  0.4817  0.4680
15315TIP3    H167436   4.182   0.262   4.413 -0.8590 -0.6184 -4.1242
15315TIP3    H267437   4.057   0.237   4.495  1.5105 -2.8993 -0.9599
15316TIP3   OH267438   4.528   5.057  10.354 -0.0977  0.0316  0.1458
15316TIP3    H167439   4.546   5.149  10.337 -0.4414 -0.3538 -2.8554
15316TIP3    H267440   4.590   5.010  10.298 -2.8521 -1.4314 -1.9317
15317TIP3   OH267441   2.411   5.088  13.729  0.3291  0.2811 -0.0008
15317TIP3    H167442   2.465   5.016  13.698  0.0442  0.6294 -1.3817
15317TIP3    H267443   2.473   5.160  13.744  0.6047 -0.1961  1.3162
15318TIP3   OH267444   1.909   3.389   6.670  0.0153  0.3007  0.0834
15318TIP3    H167445   1.928   3.438   6.590 -1.4892 -1.2706 -1.3287
15318TIP3    H267446   1.826   3.423   6.701 -0.4377 -0.4703 -0.2331
15319TIP3   OH267447   0.857   0.555   1.215  0.1001 -0.3442  0.1421
15319TIP3    H167448   0.856   0.487   1.283 -2.9440 -0.9054 -0.3048
15319TIP3    H267449   0.797   0.622   1.248 -1.2557 -0.5207 -1.7978
15320TIP3   OH267450   2.799   1.207  15.245  0.2200 -0.3592 -0.0943
15320TIP3    H167451   2.795   1.145  15.318  1.0807 -0.1068  0.1773
15320TIP3    H267452   2.755   1.161  15.173  0.3069 -1.0424  0.2762
15321TIP3   OH267453   3.351   2.526   3.417 -0.0875  0.5397 -0.1617
15321TIP3    H167454   3.290   2.576   3.363 -0.6791 -1.0928 -1.0541
15321TIP3    H267455   3.337   2.435   3.392  1.5077 -0.0322  0.8637
15322TIP3   OH267456   3.695   4.935   1.346 -0.0897 -0.3256  0.0475
15322TIP3    H167457   3.643   4.893   1.278  1.4138 -0.6219 -0.9819
15322TIP3    H267458   3.782   4.895   1.338  0.4059  0.3857  1.4656
15323TIP3   OH267459   4.203   3.575  12.663  0.5426  0.5414  0.0267
15323TIP3    H167460   4.214   3.667  12.689 -1.2899  0.7696  0.1715
15323TIP3    H267461   4.240   3.570  12.575  3.3896  0.6619  1.1164
15324TIP3   OH267462   5.844   5.679  13.747 -0.5314 -0.0962  0.0926
15324TIP3    H167463   5.903   5.635  13.809 -1.7010  0.9940  2.0890
15324TIP3    H267464   5.878   5.767  13.740 -1.7394  0.4923  1.1227
15325TIP3   OH267465   4.850   5.776  10.752  0.2241  0.0033 -0.3091
15325TIP3    H167466   4.763   5.775  10.712  0.5580 -0.2644 -1.0502
15325TIP3    H267467   4.908   5.747  10.682  1.0318  1.0727 -0.0967
15326TIP3   OH267468   0.796   6.539  13.787  0.4804 -0.2979  0.5997
15326TIP3    H167469   0.741   6.605  13.828 -0.5893 -0.5592 -0.3745
15326TIP3    H267470   0.822   6.481  13.859 -0.6767 -0.2776  1.0440
15327TIP3   OH267471   0.689   2.266   1.517 -0.1025 -0.3156 -0.0529
15327TIP3    H167472   0.686   2.223   1.431  0.5035  1.9051 -1.2751
15327TIP3    H267473   0.748   2.340   1.504 -0.3558  0.3465  2.1888
15328TIP3   OH267474   5.046   5.434  14.664 -0.4450 -0.2901 -0.2324
15328TIP3    H167475   5.086   5.494  14.601  0.7250  0.5077  1.2003
15328TIP3    H267476   4.974   5.484  14.703  1.3150  0.7556  1.8776
15329TIP3   OH267477   3.455   3.424  14.681  1.1701 -0.4427 -0.0229
15329TIP3    H167478   3.372   3.441  14.635  1.3068  1.0906  0.2606
15329TIP3    H267479   3.514   3.394  14.612  0.8181 -0.0166 -0.5234
15330TIP3   OH267480   3.201   1.729   4.013 -0.5010  0.4252 -0.1009
15330TIP3    H167481   3.265   1.683   4.067  0.6209  1.0336 -0.8761
15330TIP3    H267482   3.137   1.763   4.076 -1.1000 -1.7104  0.5453
15331TIP3   OH267483   2.133   3.694  10.789 -0.4948  0.1858 -0.0406
15331TIP3    H167484   2.093   3.742  10.717 -1.2174  0.4509  0.5376
15331TIP3    H267485   2.072   3.702  10.862 -0.1026 -0.6685  0.4034
15332TIP3   OH267486   3.393   0.966   1.492 -0.4094  0.0805  0.7549
15332TIP3    H167487   3.322   1.006   1.441  0.2946 -1.5437 -1.6304
15332TIP3    H267488   3.362   0.878   1.511  0.5422 -0.3137  0.5323
15333TIP3   OH267489   3.122   6.242  12.689 -0.6838  0.1260 -0.3432
15333TIP3    H167490   3.073   6.308  12.738  1.1214  0.6071  0.9076
15333TIP3    H267491   3.214   6.264  12.703 -0.0490 -1.5738 -1.4264
15334TIP3   OH267492   6.473   5.393  11.731  0.3708 -0.0191  0.1015
15334TIP3    H167493   6.385   5.427  11.720  0.2570 -0.4575 -0.4008
15334TIP3    H267494   6.530   5.468  11.718  0.1205  0.0211 -0.8241
15335TIP3   OH267495   4.639   2.111  13.617 -0.2479 -0.2751  0.2895
15335TIP3    H167496   4.578   2.039  13.631 -1.3369  0.4037 -0.7509
15335TIP3    H267497   4.603   2.184  13.667  0.6059 -0.3019  0.9761
15336TIP3   OH267498   1.966   5.160  14.802  0.1939 -0.1332  0.6894
15336TIP3    H167499   2.003   5.244  14.829 -2.0235  1.3865 -0.6920
15336TIP3    H267500   1.887   5.151  14.856  0.4965 -1.4371  0.9360
15337TIP3   OH267501   4.198   5.670  11.720  0.2190  0.0398 -0.1162
15337TIP3    H167502   4.155   5.588  11.695  2.3928 -0.8122 -1.3466
15337TIP3    H267503   4.155   5.695  11.802 -1.5742 -1.4717 -0.5130
15338TIP3   OH267504   0.034   3.075  16.463 -1.0007  0.5942 -0.9325
15338TIP3    H167505   0.035   3.134  16.388 -0.1641  2.2766  0.3284
15338TIP3    H267506  -0.022   3.118  16.527 -1.1098 -0.4517 -0.2935
15339TIP3   OH267507   0.174   4.744   0.769  0.3264  0.6350 -0.0915
15339TIP3    H167508   0.258   4.737   0.815 -0.5461 -0.3474  1.4566
15339TIP3    H267509   0.124   4.808   0.821  0.8131  2.8903 -2.2240
15340TIP3   OH267510   0.297   4.508  17.240 -0.1389  0.2042  0.0290
15340TIP3    H167511   0.290   4.553  17.324 -1.9121  2.3212 -1.1346
15340TIP3    H267512   0.319   4.577  17.178  0.2174 -1.1458 -1.4177
15341TIP3   OH267513   0.640   6.119   0.238 -0.3647 -0.3451  0.0922
15341TIP3    H167514   0.602   6.126   0.150 -0.9490 -0.3899  0.3389
15341TIP3    H267515   0.582   6.060   0.284  0.3924 -0.9590  0.2730
15342TIP3   OH267516   4.942   4.207   1.424 -0.2683 -0.6298  0.1722
15342TIP3    H167517   4.883   4.133   1.406  0.8669 -2.1231  2.0752
15342TIP3    H267518   5.010   4.169   1.480  0.0214  2.0354  1.7746
15343TIP3   OH267519   6.573   5.222  12.353 -0.1554  0.0721  0.7094
15343TIP3    H167520   6.553   5.200  12.262  1.2131 -0.0254  0.4055
15343TIP3    H267521   6.489   5.219  12.398 -0.9310  0.6002 -0.6513
15344TIP3   OH267522   0.568   4.798  14.495  0.0763  0.2002 -0.0217
15344TIP3    H167523   0.632   4.741  14.453  0.5376  0.1452  0.7350
15344TIP3    H267524   0.621   4.855  14.552 -0.4411  0.9241 -0.2621
15345TIP3   OH267525   5.326   6.589  11.698  0.6568  0.1951 -0.0089
15345TIP3    H167526   5.352   6.545  11.779  1.7269  0.4560 -0.1948
15345TIP3    H267527   5.385   6.554  11.632  0.4808  0.7580 -0.4705
15346TIP3   OH267528   6.599   0.165   4.942  0.0338  0.0544  0.5188
15346TIP3    H167529   6.568   0.165   4.852  1.1962  0.6410  0.0907
15346TIP3    H267530   6.569   0.249   4.977 -0.5058 -0.2181  0.7152
15347TIP3   OH267531   5.927   6.545  14.689 -0.0081  0.3699 -0.1869
15347TIP3    H167532   5.943   6.520  14.780 -1.2978  0.4201  0.0701
15347TIP3    H267533   5.833   6.559  14.684  0.1204  0.9171 -1.4036
15348TIP3   OH267534   6.526   5.809   0.228 -0.1425  0.0197 -0.3504
15348TIP3    H167535   6.486   5.744   0.171 -0.0945 -0.1694 -0.1700
15348TIP3    H267536   6.456   5.835   0.288  0.3180 -1.2210  0.7676
15349TIP3   OH267537   0.718   5.474   0.395 -0.1367  0.4800 -0.4263
15349TIP3    H167538   0.687   5.506   0.480 -1.3097  3.9397 -1.9571
15349TIP3    H267539   0.639   5.471   0.340  0.5346 -1.9353 -1.4247
15350TIP3   OH267540   2.252   1.480  11.096 -0.5685 -0.5446  0.4994
15350TIP3    H167541   2.205   1.439  11.023 -0.4408 -1.0879  0.7133
15350TIP3    H267542   2.202   1.558  11.116 -1.8484 -1.5229  1.2362
15351TIP3   OH267543   5.544   2.092  14.122  0.1226 -0.5523  0.3414
15351TIP3    H167544   5.564   2.009  14.165  0.5307  0.6311  2.5776
15351TIP3    H267545   5.629   2.128  14.097 -0.0117 -0.5413 -0.1133
15352TIP3   OH267546   0.958   4.811  17.256 -0.5340 -0.7476 -0.0512
15352TIP3    H167547   0.903   4.885  17.235 -1.5043 -1.5523 -0.4153
15352TIP3    H267548   1.014   4.800  17.179 -0.0718 -0.1345  0.1866
15353TIP3   OH267549   0.964   3.240   5.054 -0.0923 -1.1047 -0.0963
15353TIP3    H167550   1.032   3.308   5.060 -0.2082 -0.9004 -0.8635
15353TIP3    H267551   0.917   3.246   5.137 -0.6133  0.3312 -0.4505
15354TIP3   OH267552   6.623   1.377  16.699 -0.1003  0.1067  0.1224
15354TIP3    H167553   6.535   1.408  16.678 -0.5100 -1.0170  0.1238
15354TIP3    H267554   6.681   1.431  16.645 -0.9447 -0.7384 -1.7363
15355TIP3   OH267555   4.695   5.295  15.014  0.3087  0.0945 -0.1208
15355TIP3    H167556   4.729   5.348  15.086  1.8874 -1.3113  0.2272
15355TIP3    H267557   4.621   5.248  15.053 -1.3339  2.1858 -0.5277
15356TIP3   OH267558   3.956   1.441   6.152  0.2461 -0.1815 -0.3727
15356TIP3    H167559   3.988   1.518   6.199  0.3612 -0.5965  0.2490
15356TIP3    H267560   3.910   1.390   6.219  0.4437 -0.8039 -0.7017
15357TIP3   OH267561   1.725   2.060   0.965 -0.0325  0.7247  0.1633
15357TIP3    H167562   1.793   2.075   1.032 -0.8723  1.3556  0.8932
15357TIP3    H267563   1.710   2.146   0.926  0.5340  0.3401 -0.9483
15358TIP3   OH267564   6.480   6.587   5.341 -0.3278  0.1307 -0.2539
15358TIP3    H167565   6.514   6.673   5.365 -0.6053  0.1891 -0.0542
15358TIP3    H267566   6.406   6.573   5.401  0.4414 -0.7644  0.5104
15359TIP3   OH267567   0.948   5.726   0.698 -0.5580  0.1370 -0.4710
15359TIP3    H167568   0.956   5.706   0.605  3.0863 -2.6836  0.2007
15359TIP3    H267569   1.015   5.793   0.713 -1.4500  0.9224  0.0962
15360TIP3   OH267570   1.995   4.928  12.238 -0.3868 -0.2260  0.2076
15360TIP3    H167571   1.991   4.924  12.142 -1.9194 -0.4266  0.2565
15360TIP3    H267572   2.025   4.841  12.264 -0.7492 -0.4362 -0.0673
15361TIP3   OH267573   1.272   2.064   0.128 -0.2743  0.2153  0.3600
15361TIP3    H167574   1.297   2.002   0.197 -2.5303 -0.7991  0.3429
15361TIP3    H267575   1.193   2.027   0.090 -0.8377  2.3563 -0.6886
15362TIP3   OH267576   5.888   1.488   2.737  0.7205 -0.2854  0.5665
15362TIP3    H167577   5.872   1.533   2.820 -1.3441 -0.9242  0.5789
15362TIP3    H267578   5.928   1.405   2.762 -1.1974 -1.1044  1.1079
15363TIP3   OH267579   6.513   0.200  14.874  0.2738 -0.1682 -0.2827
15363TIP3    H167580   6.435   0.211  14.928  2.2395 -1.4550  3.1084
15363TIP3    H267581   6.559   0.283  14.882 -0.0025  0.0668 -1.0514
15364TIP3   OH267582   4.463   2.440   2.132  0.2630  0.4387 -0.0257
15364TIP3    H167583   4.476   2.509   2.067 -1.1273 -0.8914 -1.8598
15364TIP3    H267584   4.548   2.395   2.136  0.5363  0.8969 -0.5015
15365TIP3   OH267585   5.172   0.085  14.562  0.1006 -0.1502 -0.1303
15365TIP3    H167586   5.192   0.178  14.566 -2.0039  0.3615 -0.3072
15365TIP3    H267587   5.257   0.042  14.548  1.1386  1.6945  0.2462
15366TIP3   OH267588   0.559   6.251  14.915  0.6162  0.0647  0.0532
15366TIP3    H167589   0.465   6.234  14.922  0.6312 -0.6808 -1.2882
15366TIP3    H267590   0.569   6.291  14.828  1.5794 -0.1559  0.0569
15367TIP3   OH267591   3.248   3.489   4.499 -0.1194 -0.5263  1.0917
15367TIP3    H167592   3.178   3.426   4.481  0.4092 -0.9703  0.5403
15367TIP3    H267593   3.209   3.550   4.561 -0.7251 -1.2595  1.4616
15368TIP3   OH267594   2.156   3.431   4.141 -0.2297 -0.0065 -0.0925
15368TIP3    H167595   2.156   3.339   4.116 -1.3513  0.0014 -0.1647
15368TIP3    H267596   2.083   3.439   4.202  0.1198  0.7560  0.2417
15369TIP3   OH267597   2.545   3.670  13.176 -0.5822 -0.9860 -0.0282
15369TIP3    H167598   2.522   3.718  13.255  1.8833  1.1147 -0.4684
15369TIP3    H267599   2.625   3.622  13.198  0.3392 -0.0991 -1.2786
15370TIP3   OH267600   3.236   0.484  11.968 -0.0166  0.5952 -0.1475
15370TIP3    H167601   3.169   0.545  11.938  0.5105  1.6690  0.7613
15370TIP3    H267602   3.190   0.423  12.025 -0.9329 -1.1615 -2.6108
15371TIP3   OH267603   6.664   0.401   0.120  0.1634  0.3676 -0.3776
15371TIP3    H167604   6.681   0.323   0.067  1.3746 -0.6569  1.4498
15371TIP3    H267605   6.569   0.397   0.136 -0.1643  0.4699 -2.0316
15372TIP3   OH267606   0.412   0.674  13.407 -0.4022 -0.9144  0.5101
15372TIP3    H167607   0.394   0.655  13.315  0.4105  1.6187 -0.2487
15372TIP3    H267608   0.500   0.640  13.421  0.6622  1.1999 -0.5557
15373TIP3   OH267609   1.125   1.597   1.403 -0.3092  0.1787 -0.1369
15373TIP3    H167610   1.153   1.508   1.381  0.6218  0.8815 -1.9387
15373TIP3    H267611   1.154   1.609   1.494  1.5407 -0.5906 -0.5824
15374TIP3   OH267612   3.737   0.834  13.806 -0.1817 -0.1304  0.1213
15374TIP3    H167613   3.793   0.768  13.765 -1.2934  0.8738 -3.3881
15374TIP3    H267614   3.649   0.798  13.797 -0.6772  1.2410 -0.7207
15375TIP3   OH267615   3.057   0.598   0.173 -0.0824  0.3532  0.1042
15375TIP3    H167616   3.137   0.641   0.141  0.6075  0.0640  1.3632
15375TIP3    H267617   3.086   0.547   0.249 -1.5027  0.3687  0.6904
15376TIP3   OH267618   4.444   5.810   5.431  0.1256 -0.6488  0.4317
15376TIP3    H167619   4.381   5.875   5.462  1.8150  0.8109  0.9392
15376TIP3    H267620   4.441   5.817   5.336 -1.0565 -1.1999  0.4070
15377TIP3   OH267621   0.665   1.108   5.085  0.4063  0.1218 -0.7776
15377TIP3    H167622   0.582   1.156   5.093  0.6918  1.0685 -2.8829
15377TIP3    H267623   0.672   1.086   4.992  2.1305 -0.6628 -0.5082
15378TIP3   OH267624   0.143   5.449  12.302  0.0077 -0.3265  0.3456
15378TIP3    H167625   0.197   5.527  12.316 -0.4049 -0.2038  1.3346
15378TIP3    H267626   0.142   5.437  12.207 -1.6853  2.1464 -0.0387
15379TIP3   OH267627   1.369   6.482  12.391 -0.2431 -0.4393  0.2108
15379TIP3    H167628   1.435   6.544  12.360  0.5428  0.1229  2.7527
15379TIP3    H267629   1.419   6.404  12.416 -0.2667  0.4331  3.3050
15380TIP3   OH267630   0.622   6.015   4.186 -0.1079 -0.2451 -0.2083
15380TIP3    H167631   0.563   6.069   4.238  3.4578  1.2962  2.6435
15380TIP3    H267632   0.636   6.065   4.105  0.1828  1.2666  0.7406
15381TIP3   OH267633   0.737   4.488  15.571  0.0458  0.2202  0.0089
15381TIP3    H167634   0.730   4.583  15.570  0.3906  0.2937  1.6032
15381TIP3    H267635   0.831   4.470  15.576 -0.0629 -0.1245  1.4050
15382TIP3   OH267636   2.217   3.262   2.462  0.5547 -0.3017  0.2403
15382TIP3    H167637   2.281   3.304   2.405 -1.2483  0.6717 -1.1833
15382TIP3    H267638   2.203   3.325   2.533 -0.7910  0.7916 -0.9213
15383TIP3   OH267639   4.459   2.715   6.107 -0.0907 -0.2568 -0.5124
15383TIP3    H167640   4.517   2.738   6.180  2.0420  0.5178 -2.3437
15383TIP3    H267641   4.372   2.742   6.137  0.8953  1.2280  1.2537
15384TIP3   OH267642   2.188   6.514  16.313 -0.3156 -0.0268  0.0979
15384TIP3    H167643   2.259   6.573  16.336 -0.6389 -0.2031  1.6391
15384TIP3    H267644   2.231   6.441  16.268  0.8069 -1.0307  2.5832
15385TIP3   OH267645   0.041   1.912   1.149  0.4578  0.0585  0.1708
15385TIP3    H167646   0.071   1.947   1.066  1.4797  1.8093  1.2201
15385TIP3    H267647   0.110   1.851   1.176  0.6469  0.2875  0.2111
15386TIP3   OH267648   5.301   6.452  15.056 -0.0385  0.3237 -0.8116
15386TIP3    H167649   5.265   6.364  15.054 -0.9330  0.6461  0.4861
15386TIP3    H267650   5.229   6.508  15.026 -0.2642  0.8471  0.6578
15387TIP3   OH267651   2.413   1.336  12.185 -0.1666 -0.1297  0.4850
15387TIP3    H167652   2.488   1.293  12.145 -1.3451  0.3972 -2.5598
15387TIP3    H267653   2.451   1.408  12.236  1.4423 -0.7911  0.2772
15388TIP3   OH267654   6.691   2.595   0.787  0.1312 -0.3170 -0.2574
15388TIP3    H167655   6.648   2.552   0.861  1.9033 -1.0251  0.4037
15388TIP3    H267656   6.627   2.661   0.758 -2.5903 -3.0811 -1.1171
15389TIP3   OH267657   5.577   1.742   0.944 -0.2381  0.5217  0.0617
15389TIP3    H167658   5.609   1.788   1.021  1.6772  0.0416 -0.4004
15389TIP3    H267659   5.624   1.659   0.944 -0.0410  0.5889 -1.7195
15390TIP3   OH267660   2.699   6.603   0.101  0.3019  0.1702 -0.2380
15390TIP3    H167661   2.694   6.545   0.025 -0.6195  0.7342 -0.6225
15390TIP3    H267662   2.697   6.543   0.176  2.0674 -0.4396 -0.6269
15391TIP3   OH267663   4.640   0.169   4.671 -0.1911 -0.3955 -0.2720
15391TIP3    H167664   4.707   0.108   4.702 -0.0143 -0.8053 -1.4254
15391TIP3    H267665   4.557   0.128   4.694 -0.0721 -1.0047 -0.8873
15392TIP3   OH267666   2.090   1.591   2.921 -0.6335 -0.2164  0.1169
15392TIP3    H167667   2.062   1.614   3.009 -1.5550  0.5729 -0.3587
15392TIP3    H267668   2.058   1.663   2.866  0.2858 -0.4810 -0.8074
15393TIP3   OH267669   3.382   3.812   0.051  0.1401 -0.3483  0.4084
15393TIP3    H167670   3.367   3.899   0.014  0.5172  0.3835  1.9015
15393TIP3    H267671   3.300   3.765   0.034 -0.0245  0.2312 -0.5261
15394TIP3   OH267672   3.785   0.338  11.639 -0.3484 -0.2078  0.6412
15394TIP3    H167673   3.751   0.424  11.661  2.0943  1.9620 -2.9076
15394TIP3    H267674   3.735   0.312  11.561  2.1135  0.4724 -1.2964
15395TIP3   OH267675   6.393   1.751   0.197 -0.2229  0.5946  0.0455
15395TIP3    H167676   6.333   1.679   0.219  1.8054 -1.6658 -1.2780
15395TIP3    H267677   6.376   1.769   0.105  1.9197 -1.0382 -0.7503
15396TIP3   OH267678   3.122   4.882  12.407  0.6311  0.3278  0.1192
15396TIP3    H167679   3.032   4.866  12.435  1.6252 -0.6370  3.1973
15396TIP3    H267680   3.129   4.977  12.400 -0.4749  0.4357  0.3643
15397TIP3   OH267681   4.330   2.319  11.344  0.2000 -0.4207  0.3564
15397TIP3    H167682   4.375   2.240  11.314 -1.6220 -1.8212  1.0690
15397TIP3    H267683   4.244   2.315  11.301  0.3068  1.5705 -0.1319
15398TIP3   OH267684   0.691   4.339   5.667  0.0139 -0.0492 -0.8800
15398TIP3    H167685   0.731   4.422   5.692 -0.1089  0.6612 -2.8490
15398TIP3    H267686   0.597   4.358   5.661 -0.5192 -1.2400  1.9118
15399TIP3   OH267687   6.817   0.547  10.863 -0.1440 -0.0068  0.0372
15399TIP3    H167688   6.722   0.541  10.872 -0.2216  1.3092  0.2952
15399TIP3    H267689   6.831   0.568  10.771 -0.1448  0.4402  0.1372
15400TIP3   OH267690   4.829   6.533   4.527  0.4295 -0.3680 -0.3089
15400TIP3    H167691   4.762   6.465   4.514  0.4629 -0.1601 -1.7105
15400TIP3    H267692   4.903   6.503   4.474  1.1151 -0.1259  0.5011
15401TIP3   OH267693   3.838   3.006  11.466  0.1680  0.1309 -0.4851
15401TIP3    H167694   3.910   2.975  11.520 -0.2466  0.2016  0.1139
15401TIP3    H267695   3.822   2.934  11.404  3.6555  1.7447 -3.6706
15402TIP3   OH267696   0.780   3.011   2.811  0.1994  0.4212  0.2832
15402TIP3    H167697   0.760   2.927   2.771 -0.8458  1.1147 -0.7111
15402TIP3    H267698   0.713   3.022   2.879 -0.9782  1.3555 -0.9802
15403TIP3   OH267699   1.541   6.686   3.518 -0.2342 -0.1558  0.1000
15403TIP3    H167700   1.572   6.596   3.531 -0.0780 -0.1443 -0.1757
15403TIP3    H267701   1.495   6.708   3.599  1.2372  0.1451  0.8770
15404TIP3   OH267702   4.324   1.096   4.955  0.1998  0.0001 -0.0996
15404TIP3    H167703   4.409   1.080   4.996  1.2336 -0.1305 -2.1588
15404TIP3    H267704   4.304   1.188   4.975  0.3614 -0.2291  1.1584
15405TIP3   OH267705   5.886   1.320  13.842 -0.0313 -0.2397 -0.4502
15405TIP3    H167706   5.871   1.410  13.870  1.4821  0.2726 -1.1338
15405TIP3    H267707   5.905   1.327  13.748 -2.5096 -1.6166 -1.1387
15406TIP3   OH267708   4.136   6.157   0.010 -0.2366 -0.3638 -0.2052
15406TIP3    H167709   4.201   6.219  -0.025 -1.0003  1.1990  1.0298
15406TIP3    H267710   4.154   6.075  -0.036  1.1656  0.6225 -1.5115
15407TIP3   OH267711   4.304   4.274  15.631 -0.5270 -0.1079  0.0044
15407TIP3    H167712   4.317   4.215  15.557  0.1435  2.4493 -2.0762
15407TIP3    H267713   4.213   4.304  15.623 -0.9804 -1.0583  1.2600
15408TIP3   OH267714   1.347   1.470   2.796  0.0393  0.3642  0.0940
15408TIP3    H167715   1.272   1.520   2.764 -0.8094 -0.7983  0.1840
15408TIP3    H267716   1.352   1.490   2.889  0.0078  0.6640  0.0306
15409TIP3   OH267717   3.436   6.143   4.459  0.6151 -0.5043 -0.0669
15409TIP3    H167718   3.498   6.098   4.401  0.1824  0.0019 -0.9394
15409TIP3    H267719   3.359   6.158   4.405  1.0461  2.0498 -0.1085
15410TIP3   OH267720   5.105   0.471   2.638  0.1010  0.3503 -0.0658
15410TIP3    H167721   5.144   0.480   2.551 -0.3280  0.0406 -0.2947
15410TIP3    H267722   5.170   0.422   2.689  0.3740  0.5765 -0.1938
15411TIP3   OH267723   2.502   0.171  14.263  0.5790  0.5563  0.5449
15411TIP3    H167724   2.504   0.218  14.346  0.0485 -1.5563  1.8306
15411TIP3    H267725   2.414   0.134  14.258  1.1804 -0.9025 -0.0264
15412TIP3   OH267726   3.118   4.237  11.777 -0.3597  0.0490 -0.0864
15412TIP3    H167727   3.138   4.154  11.733  0.3969 -0.0536  0.4358
15412TIP3    H267728   3.033   4.262  11.742  0.8537  0.7785 -2.8649
15413TIP3   OH267729   1.961   6.464  14.378 -0.4627  0.3004 -0.2567
15413TIP3    H167730   1.919   6.401  14.319  0.1126 -0.1777 -0.1625
15413TIP3    H267731   1.965   6.418  14.463  0.3487  0.2913 -0.2919
15414TIP3   OH267732   0.565   5.116   0.872  0.0745 -0.1284  0.4093
15414TIP3    H167733   0.592   5.085   0.959  0.6072  3.0940  1.5196
15414TIP3    H267734   0.552   5.210   0.883  0.2507  0.4314 -3.0604
15415TIP3   OH267735   4.540   0.993   5.706 -0.6035  0.1856 -0.0977
15415TIP3    H167736   4.535   0.957   5.618  2.2167 -3.2451  0.9089
15415TIP3    H267737   4.466   0.953   5.753 -0.9694  0.4808 -0.4183
15416TIP3   OH267738   2.023   5.435   4.871 -0.2420  0.1694  0.4293
15416TIP3    H167739   1.972   5.508   4.907  0.0418 -0.2156  1.6651
15416TIP3    H267740   2.106   5.476   4.846 -0.4070  0.4350  0.3129
15417TIP3   OH267741   6.542   2.477  12.106 -0.5755  0.2635 -0.0456
15417TIP3    H167742   6.608   2.435  12.162  0.4250  0.0535 -1.3434
15417TIP3    H267743   6.591   2.542  12.056 -1.2157 -0.3771 -1.5437
15418TIP3   OH267744   4.343   4.240  16.396  0.1861  0.2670 -0.2055
15418TIP3    H167745   4.409   4.235  16.465  0.3962 -1.5962 -0.4903
15418TIP3    H267746   4.271   4.185  16.427  0.0729 -0.1920 -1.2233
15419TIP3   OH267747   6.157   6.474  16.611  0.5405 -0.2667  0.4080
15419TIP3    H167748   6.230   6.485  16.672 -1.9482  2.8843  3.2116
15419TIP3    H267749   6.155   6.556  16.561 -0.2428 -0.9158 -0.6810
15420TIP3   OH267750   0.406   6.310   2.470 -0.6458  0.2603  0.3488
15420TIP3    H167751   0.386   6.372   2.400 -2.1990  0.2923  0.7873
15420TIP3    H267752   0.348   6.335   2.542  0.1704 -0.4316  1.2831
15421TIP3   OH267753   4.532   4.985   3.564 -0.7548  0.2226 -0.4933
15421TIP3    H167754   4.600   4.963   3.500  0.2081  0.5313  0.3931
15421TIP3    H267755   4.580   5.022   3.638 -1.8513 -0.0147  0.3661
15422TIP3   OH267756   6.160   1.747  15.385  0.1791 -0.9627 -0.3423
15422TIP3    H167757   6.155   1.716  15.295  1.9999 -4.8995  0.6827
15422TIP3    H267758   6.102   1.688  15.434  0.1557  0.3068  1.2344
15423TIP3   OH267759   2.570   4.298   0.081 -0.2532  0.0263  0.2346
15423TIP3    H167760   2.612   4.257   0.156  0.1307  0.0190  0.0195
15423TIP3    H267761   2.602   4.388   0.082  0.5601 -0.2383 -0.5031
15424TIP3   OH267762   6.640   2.837  17.233  0.3568  0.6505 -0.0189
15424TIP3    H167763   6.580   2.909  17.247  0.1918  0.6864 -0.8553
15424TIP3    H267764   6.612   2.769  17.295 -1.3208  0.1985 -1.2247
15425TIP3   OH267765   5.224   0.579  13.630  0.9947 -0.7123  0.2629
15425TIP3    H167766   5.198   0.487  13.638 -0.7190 -0.4313 -1.4940
15425TIP3    H267767   5.157   0.619  13.576  1.9791  1.4942  0.5577
15426TIP3   OH267768   0.356   4.236  12.654  0.3172  0.0155  0.2908
15426TIP3    H167769   0.332   4.305  12.717  0.1848 -0.8079  1.1652
15426TIP3    H267770   0.357   4.156  12.706  0.0026 -0.7262 -0.8191
15427TIP3   OH267771   6.262   5.601   3.019 -0.3738 -0.2087  0.2022
15427TIP3    H167772   6.300   5.522   2.979  0.6530  1.8523 -3.3329
15427TIP3    H267773   6.336   5.662   3.024 -1.9416  1.9561 -1.3459
15428TIP3   OH267774   4.270   4.760   1.976 -0.0480  0.0679  0.3585
15428TIP3    H167775   4.189   4.810   1.983 -0.5463 -0.8565  1.7281
15428TIP3    H267776   4.325   4.794   2.048 -0.4329 -1.3554  1.3701
15429TIP3   OH267777   4.050   5.006   4.235 -0.3193  0.8096 -0.0605
15429TIP3    H167778   4.092   4.994   4.320 -1.5076 -0.8609  0.3597
15429TIP3    H267779   4.120   4.991   4.172  0.2676  0.6173  0.6156
15430TIP3   OH267780   6.309   5.966   5.132 -0.1141  0.0601  0.5774
15430TIP3    H167781   6.349   5.908   5.196 -1.4747 -1.4768  0.1007
15430TIP3    H267782   6.302   5.914   5.052 -0.2287  1.3043 -0.2606
15431TIP3   OH267783   1.941   0.431  10.848 -0.1809 -0.0280 -0.0508
15431TIP3    H167784   1.969   0.344  10.877  0.1154  0.2313  0.4539
15431TIP3    H267785   1.869   0.414  10.786 -0.5806 -0.6009  0.5604
15432TIP3   OH267786   0.296   1.892  17.148  0.5862  0.3305 -0.5402
15432TIP3    H167787   0.284   1.923  17.238  0.9503  0.3210 -0.4866
15432TIP3    H267788   0.261   1.803  17.148  2.0207 -0.2710 -0.0002
15433TIP3   OH267789   3.165   1.967   5.429 -0.0860  0.1684  0.0131
15433TIP3    H167790   3.174   1.922   5.513  0.4012 -1.1893 -0.7363
15433TIP3    H267791   3.221   2.044   5.437  0.1585 -0.0869  0.8441
15434TIP3   OH267792   2.453   5.833   3.656  0.1577  0.0015  0.0687
15434TIP3    H167793   2.542   5.863   3.636  0.0749 -0.2404 -0.6930
15434TIP3    H267794   2.465   5.769   3.726  0.6810 -0.6457 -0.5885
15435TIP3   OH267795   3.907   4.999  17.190 -0.2185 -0.0281  0.2286
15435TIP3    H167796   3.877   4.909  17.205 -0.4969  0.1708  0.9035
15435TIP3    H267797   3.878   5.019  17.101  1.0185 -1.0644 -0.4508
15436TIP3   OH267798   1.318   0.191  11.097 -0.4859  0.2375 -0.0837
15436TIP3    H167799   1.251   0.219  11.159 -1.1278  1.0802 -1.1232
15436TIP3    H267800   1.269   0.165  11.019  0.3553  0.1394 -0.5961
15437TIP3   OH267801   6.190   5.806  13.418 -0.0779 -0.3750 -0.7209
15437TIP3    H167802   6.266   5.789  13.362 -0.0230  0.0146 -0.7649
15437TIP3    H267803   6.164   5.719  13.450 -0.4045 -0.6655 -1.7299
15438TIP3   OH267804   2.121   4.367  17.220 -0.1855 -0.1466 -0.0351
15438TIP3    H167805   2.110   4.307  17.294 -1.3035 -1.4567 -1.2030
15438TIP3    H267806   2.178   4.320  17.159  0.3004  0.6993 -0.2446
15439TIP3   OH267807   3.123   4.208  13.365  0.5119  0.0759 -0.3779
15439TIP3    H167808   3.074   4.144  13.418 -0.5663  1.4540  0.3852
15439TIP3    H267809   3.058   4.241  13.303  1.8371 -1.7562 -2.9395
15440TIP3   OH267810   6.442   0.096  15.213  0.2440  0.3084 -0.3210
15440TIP3    H167811   6.395   0.175  15.189 -1.9159 -0.0792  2.2138
15440TIP3    H267812   6.403   0.027  15.160 -1.3914  0.1777  0.9905
15441TIP3   OH267813   0.186   0.525   6.755  0.3048  0.5224 -0.2573
15441TIP3    H167814   0.250   0.577   6.706  2.9027  0.1032  2.3989
15441TIP3    H267815   0.195   0.437   6.719 -1.4563  1.0722 -2.2643
15442TIP3   OH267816   4.948   4.873   4.520  0.5272 -0.3339 -0.0333
15442TIP3    H167817   4.906   4.788   4.539  0.4684 -0.4915 -0.8429
15442TIP3    H267818   5.020   4.878   4.582  1.0997 -1.4087 -0.5868
15443TIP3   OH267819   6.809   2.262  15.321  0.3666 -0.2654 -0.0405
15443TIP3    H167820   6.857   2.267  15.238 -0.7824  0.7959 -0.6775
15443TIP3    H267821   6.721   2.233  15.296 -0.4433  1.5264  0.5747
15444TIP3   OH267822   4.225   2.763  14.770 -0.3335 -0.1162 -0.0663
15444TIP3    H167823   4.295   2.723  14.821  0.2464  0.5022 -0.3715
15444TIP3    H267824   4.225   2.715  14.687 -1.8940 -1.7661  0.7961
15445TIP3   OH267825   3.439   5.900  14.466 -0.1905  0.4425 -0.0247
15445TIP3    H167826   3.522   5.933  14.431  0.6004  1.2852  2.4617
15445TIP3    H267827   3.463   5.821  14.514 -1.3063 -0.9099 -1.5731
15446TIP3   OH267828   2.635   1.726   4.707  0.3876  0.3232 -0.4129
15446TIP3    H167829   2.700   1.748   4.641 -1.5594  0.9594 -2.2541
15446TIP3    H267830   2.556   1.772   4.678 -1.4164 -1.9660  0.5806
15447TIP3   OH267831   2.087   2.278  16.054  0.1645 -0.3109 -0.8088
15447TIP3    H167832   2.002   2.322  16.065  0.4863  0.0427  0.3400
15447TIP3    H267833   2.136   2.337  15.996  0.0267  0.0490 -0.5656
15448TIP3   OH267834   6.551   5.074  13.758 -0.3299 -0.4412 -0.1740
15448TIP3    H167835   6.644   5.059  13.744 -0.0092  1.7432 -0.6112
15448TIP3    H267836   6.511   5.062  13.672 -0.3648 -0.6526 -0.1302
15449TIP3   OH267837   6.495   1.736   5.396 -0.4834 -0.2488 -0.3876
15449TIP3    H167838   6.542   1.666   5.351 -2.2655 -2.4251  0.9303
15449TIP3    H267839   6.408   1.736   5.358 -0.2190  2.1205 -1.1607
15450TIP3   OH267840   2.251   6.260   2.400 -0.1866  0.4221 -0.9053
15450TIP3    H167841   2.335   6.286   2.363 -0.1624  0.3005 -0.9356
15450TIP3    H267842   2.271   6.185   2.456 -0.1622  0.8434 -0.3427
15451TIP3   OH267843   0.855   1.179  16.205  0.4710  0.3168  0.3420
15451TIP3    H167844   0.936   1.229  16.210 -0.5871  2.1188  0.5249
15451TIP3    H267845   0.838   1.169  16.111  0.3456  0.9221  0.2953
15452TIP3   OH267846   4.573   6.597   6.603  0.4134 -0.5491  0.0229
15452TIP3    H167847   4.591   6.685   6.634 -0.3555 -0.3288 -0.1229
15452TIP3    H267848   4.639   6.580   6.536  1.9601 -0.9422  1.5911
15453TIP3   OH267849   3.622   1.835  13.846  0.2847  0.3932 -0.3928
15453TIP3    H167850   3.681   1.805  13.915 -0.2342 -0.4737 -0.3103
15453TIP3    H267851   3.680   1.853  13.772  0.8923  1.7093  0.3676
15454TIP3   OH267852   4.554   6.603   5.342  0.1411  0.5133 -0.3876
15454TIP3    H167853   4.510   6.521   5.365 -1.1668  1.2838 -0.0713
15454TIP3    H267854   4.501   6.640   5.271  1.3710  0.5605 -1.3310
15455TIP3   OH267855   6.278   4.871  14.591 -0.1715  0.2485  0.1044
15455TIP3    H167856   6.352   4.903  14.642  0.2599 -0.3974 -0.1059
15455TIP3    H267857   6.318   4.822  14.519 -0.8015  0.0412 -0.1117
15456TIP3   OH267858   3.007   1.156   1.960 -0.5055  0.3499  0.3366
15456TIP3    H167859   3.073   1.110   2.012 -1.7072  0.3447  1.8983
15456TIP3    H267860   3.022   1.249   1.979  0.2364  0.4781 -0.7829
15457TIP3   OH267861   3.752   5.194   2.978 -0.3552 -0.3645  0.5376
15457TIP3    H167862   3.841   5.160   2.962 -0.1894  0.4814 -0.4334
15457TIP3    H267863   3.762   5.250   3.055  0.0240 -0.0610  0.2769
15458TIP3   OH267864   6.179   3.324   4.864  0.7249 -0.6939 -0.2973
15458TIP3    H167865   6.129   3.244   4.883 -1.2331  0.1558 -1.4887
15458TIP3    H267866   6.115   3.383   4.823  2.2347  1.3031  0.0603
15459TIP3   OH267867   4.295   5.586   1.376 -0.1743 -0.1596 -0.0863
15459TIP3    H167868   4.278   5.631   1.293 -2.0161 -0.3536  0.1403
15459TIP3    H267869   4.309   5.495   1.351 -0.9430 -0.2573 -0.1788
15460TIP3   OH267870   5.230   5.991  13.773 -0.4014  0.1314 -0.0121
15460TIP3    H167871   5.192   5.959  13.854  0.2695 -0.4596  0.0766
15460TIP3    H267872   5.250   5.912  13.723  1.3631  0.3705  0.2553
15461TIP3   OH267873   4.693   1.173   5.321  0.2965  0.6765 -0.3599
15461TIP3    H167874   4.723   1.246   5.268 -0.8153  0.0923 -1.8680
15461TIP3    H267875   4.773   1.133   5.355  0.9397  2.1247 -0.1064
15462TIP3   OH267876   5.178   1.940   0.086  0.0772 -0.4354  0.1480
15462TIP3    H167877   5.129   1.921   0.005  1.2763 -2.2993 -0.1986
15462TIP3    H267878   5.239   2.010   0.061  1.8609 -2.3697 -1.2182
15463TIP3   OH267879   1.871   6.064   2.727 -0.0907 -0.0722  0.0077
15463TIP3    H167880   1.948   6.047   2.673  0.6509  1.4059  0.5449
15463TIP3    H267881   1.897   6.041   2.815 -0.6011 -0.4700  0.0635
15464TIP3   OH267882   4.040   2.132   5.774 -0.2858  0.2966  0.9703
15464TIP3    H167883   3.997   2.153   5.857 -2.2360  1.9738 -0.3538
15464TIP3    H267884   3.969   2.133   5.710  0.8867 -2.4547 -0.5558
15465TIP3   OH267885   1.427   6.401   3.869  0.1777 -0.1093 -0.0048
15465TIP3    H167886   1.517   6.390   3.901 -0.3574 -1.8074  1.1134
15465TIP3    H267887   1.372   6.367   3.941 -1.2197 -1.6400 -1.6967
15466TIP3   OH267888   4.388   2.875   1.575 -0.5217 -0.1699 -0.0336
15466TIP3    H167889   4.353   2.954   1.615 -1.2161 -0.9334  0.9278
15466TIP3    H267890   4.332   2.805   1.608  1.3573 -1.3422  0.8297
15467TIP3   OH267891   0.971   4.382   2.489 -0.5457  0.0249  0.1890
15467TIP3    H167892   0.892   4.431   2.511 -0.1484  0.2948  1.0145
15467TIP3    H267893   1.006   4.426   2.412  0.6752  2.0650  1.8213
15468TIP3   OH267894   1.246   3.965  13.937 -0.3424 -0.0170 -0.0641
15468TIP3    H167895   1.275   3.905  14.007 -1.4262  0.1286  0.5263
15468TIP3    H267896   1.297   4.045  13.951  1.5792 -0.9544 -1.2292
15469TIP3   OH267897   1.922   3.427  17.077  0.0361  0.6822  0.2624
15469TIP3    H167898   1.886   3.502  17.029  3.1523  1.4509 -1.1168
15469TIP3    H267899   1.989   3.464  17.134  0.1038 -0.8557  1.2552
15470TIP3   OH267900   5.624   3.236   0.971 -0.0664  0.0228  0.0999
15470TIP3    H167901   5.579   3.266   0.891  1.4598  1.1157 -0.3853
15470TIP3    H267902   5.555   3.234   1.037 -1.4127 -1.0590 -1.2452
15471TIP3   OH267903   1.618   0.914   1.848  0.0163  0.1288 -0.0543
15471TIP3    H167904   1.601   0.842   1.909  1.2959 -2.0521 -2.0867
15471TIP3    H267905   1.548   0.909   1.784 -0.1394  1.0233  0.0326
15472TIP3   OH267906   1.249   0.987  10.963 -0.3557 -0.2385  0.0056
15472TIP3    H167907   1.207   0.955  11.043 -1.8117  1.9021  0.1899
15472TIP3    H267908   1.184   0.972  10.895 -0.0381  0.0096 -0.3558
15473TIP3   OH267909   0.532   1.409   3.607  0.3321  0.2150  0.7254
15473TIP3    H167910   0.458   1.466   3.589 -0.5953 -0.9856  0.6366
15473TIP3    H267911   0.550   1.421   3.700 -1.0861 -0.7447  1.1485
15474TIP3   OH267912   2.869   6.272   0.067  0.0618  0.1757 -0.0563
15474TIP3    H167913   2.946   6.230   0.105 -1.6072 -3.3617 -0.2846
15474TIP3    H267914   2.818   6.302   0.142 -0.4439 -1.5633  0.3380
15475TIP3   OH267915   2.910   2.066  14.964  0.2556  0.9091 -0.0899
15475TIP3    H167916   2.824   2.089  14.929  0.8159  2.8673 -0.3172
15475TIP3    H267917   2.915   2.111  15.049  0.9372  0.5760  0.0585
15476TIP3   OH267918   6.541   5.526   5.154  0.0490  0.2036 -0.0413
15476TIP3    H167919   6.561   5.434   5.134 -0.5608  0.4740 -2.2468
15476TIP3    H267920   6.468   5.522   5.216 -0.6775 -0.8340 -0.9228
15477TIP3   OH267921   1.804   0.086  11.675  0.5589  0.0048  0.2241
15477TIP3    H167922   1.742   0.159  11.684 -2.1744 -1.9652 -0.9108
15477TIP3    H267923   1.840   0.096  11.587 -0.4541 -0.4114 -0.2565
15478TIP3   OH267924   2.732   0.672   5.966 -0.4244 -0.5470 -0.2978
15478TIP3    H167925   2.730   0.606   6.035  0.4724 -0.7672 -0.4622
15478TIP3    H267926   2.825   0.690   5.953 -0.6650  1.8399  0.7609
15479TIP3   OH267927   5.594   3.066   1.676 -0.1483  0.1263  0.7316
15479TIP3    H167928   5.653   3.125   1.630 -0.3031  3.2234  4.0162
15479TIP3    H267929   5.649   3.024   1.742 -0.4156 -2.1590 -0.4318
15480TIP3   OH267930   4.828   1.799  15.754 -0.1469  0.2028  0.6747
15480TIP3    H167931   4.861   1.760  15.673 -0.2530  0.0565  0.7004
15480TIP3    H267932   4.847   1.892  15.746 -3.2185  0.8083 -1.0499
15481TIP3   OH267933   3.180   3.174   5.265  0.4944 -0.4454  0.4208
15481TIP3    H167934   3.138   3.171   5.351  1.5313 -1.2224  0.9143
15481TIP3    H267935   3.139   3.249   5.222 -1.7180 -1.4218  0.6855
15482TIP3   OH267936   0.244   4.227   5.633  0.0563  0.7043  0.5254
15482TIP3    H167937   0.307   4.299   5.640 -0.3554  0.9465  2.0019
15482TIP3    H267938   0.278   4.172   5.562  1.2572  1.4802  0.4786
15483TIP3   OH267939   4.401   6.122  15.487 -0.4108  0.4182 -0.0797
15483TIP3    H167940   4.366   6.165  15.565 -3.1923  0.6053 -1.3185
15483TIP3    H267941   4.438   6.194  15.435  1.7442  0.2567  1.1000
15484TIP3   OH267942   4.060   0.583   0.802  0.5002 -0.7694 -0.2900
15484TIP3    H167943   4.113   0.655   0.768 -0.8184  0.2715 -0.1873
15484TIP3    H267944   3.991   0.570   0.736 -0.1293 -0.9556  0.3963
15485TIP3   OH267945   5.828   0.404  11.926  0.1208 -0.1809  0.4713
15485TIP3    H167946   5.798   0.482  11.972  0.2696  0.9248 -1.1995
15485TIP3    H267947   5.808   0.422  11.834  1.2912 -1.5771 -0.0952
15486TIP3   OH267948   3.475   1.676   4.596 -0.6705  0.5770  0.2848
15486TIP3    H167949   3.405   1.627   4.638 -2.2046  1.5229 -1.0607
15486TIP3    H267950   3.512   1.615   4.532  0.2994 -0.1715  1.5049
15487TIP3   OH267951   0.313   2.395   2.051 -0.0480  0.1723 -0.2062
15487TIP3    H167952   0.255   2.457   2.007 -0.3777  0.4867  0.6568
15487TIP3    H267953   0.273   2.381   2.137  1.4341  0.8419  0.6357
15488TIP3   OH267954   2.283   5.276   2.571 -0.2995  0.0788  0.1121
15488TIP3    H167955   2.245   5.193   2.542  0.1981 -0.1217  0.0176
15488TIP3    H267956   2.257   5.283   2.663  1.3564 -1.2205  0.7458
15489TIP3   OH267957   6.446   6.637   1.805 -0.2827  0.4462 -0.2373
15489TIP3    H167958   6.535   6.642   1.840 -0.0604  1.8920 -0.9372
15489TIP3    H267959   6.441   6.552   1.762  0.7293  0.3220 -0.1188
15490TIP3   OH267960   6.443   2.154  16.698 -0.0434  0.3667  0.2648
15490TIP3    H167961   6.457   2.070  16.652 -2.1324  0.4068 -0.5564
15490TIP3    H267962   6.355   2.181  16.671 -0.0163  2.0701  1.7530
15491TIP3   OH267963   5.552   2.790  12.316 -0.2727  0.4045 -0.2729
15491TIP3    H167964   5.632   2.756  12.356 -1.1127 -1.3183  0.0656
15491TIP3    H267965   5.572   2.794  12.222  0.2651  0.1491 -0.1755
15492TIP3   OH267966   4.752   2.147  15.124  0.2073  0.0437 -0.1614
15492TIP3    H167967   4.775   2.219  15.182  1.2581 -1.2244  1.0626
15492TIP3    H267968   4.823   2.143  15.060  0.0044  0.2656 -0.4023
15493TIP3   OH267969   0.735   0.858   5.896 -0.0151  0.7441 -0.0355
15493TIP3    H167970   0.810   0.884   5.950  0.9184 -1.2315 -0.2853
15493TIP3    H267971   0.670   0.828   5.959 -0.3778  1.8569  0.1467
15494TIP3   OH267972   5.027   3.625  16.429  0.1126  0.5395  0.0714
15494TIP3    H167973   5.047   3.604  16.521  2.1366  1.5184 -0.0866
15494TIP3    H267974   5.105   3.596  16.381 -0.4274  1.1097 -1.1858
15495TIP3   OH267975   2.170   2.097  15.182 -0.5074  0.5105 -0.3047
15495TIP3    H167976   2.132   2.178  15.218 -1.1528  0.6243 -1.2244
15495TIP3    H267977   2.216   2.058  15.256  0.6924  2.2307 -0.0640
15496TIP3   OH267978   6.405   2.268   1.024  0.3612 -0.0702 -0.3261
15496TIP3    H167979   6.385   2.237   1.112 -0.8650  0.0190 -0.5529
15496TIP3    H267980   6.471   2.207   0.991  1.8358  0.6857  1.1223
15497TIP3   OH267981   5.526   6.446  17.103  0.1301 -0.1204  0.0808
15497TIP3    H167982   5.497   6.497  17.027  0.0679  0.0674  0.2291
15497TIP3    H267983   5.590   6.502  17.146 -0.3145  0.0442  0.5305
15498TIP3   OH267984   1.396   0.158  10.708 -0.3125 -0.3418 -0.1021
15498TIP3    H167985   1.327   0.196  10.762  1.3181  1.8949  0.5451
15498TIP3    H267986   1.374   0.185  10.619  0.4730  1.6652  0.2744
15499TIP3   OH267987   4.987   4.657  13.689  0.1078  0.1474 -0.0602
15499TIP3    H167988   4.985   4.579  13.746  1.9039  1.6765  2.3024
15499TIP3    H267989   5.034   4.628  13.611 -0.5587 -1.5066  0.1079
15500TIP3   OH267990   0.460   3.613   1.041 -0.0092  0.4001 -0.0239
15500TIP3    H167991   0.514   3.621   1.120  0.5389  1.4405 -0.4896
15500TIP3    H267992   0.403   3.690   1.043 -1.5788 -0.7178  0.5031
15501TIP3   OH267993   5.963   2.280   3.058  0.2429  0.0396  0.2500
15501TIP3    H167994   6.010   2.297   3.140  0.4909 -1.5258  0.4525
15501TIP3    H267995   6.028   2.295   2.990  1.1371 -2.1679  0.5290
15502TIP3   OH267996   3.484   2.766   1.914  0.7603 -0.7093  0.3051
15502TIP3    H167997   3.534   2.756   1.995  1.0898 -1.2219  0.0437
15502TIP3    H267998   3.550   2.784   1.847  0.7260 -2.4149 -0.2325
15503TIP3   OH267999   3.771   2.954   6.430  0.2828 -0.1734 -0.3150
15503TIP3    H168000   3.791   2.993   6.514 -2.3232 -0.9791  0.7930
15503TIP3    H268001   3.740   3.026   6.376 -0.1404  0.0092  0.1716
15504TIP3   OH268002   2.320   1.293  11.406  0.3597  0.1557  0.4138
15504TIP3    H168003   2.318   1.348  11.327  2.8669  0.9524  0.7988
15504TIP3    H268004   2.267   1.216  11.383 -2.5184  2.2335 -0.4660
15505TIP3   OH268005   3.756   2.465   0.093 -0.1063  0.5053  0.4731
15505TIP3    H168006   3.685   2.400   0.097 -0.7778  1.2585  1.3111
15505TIP3    H268007   3.727   2.535   0.151 -0.3368  2.4747 -1.8430
15506TIP3   OH268008   2.340   6.003   6.713  0.0902 -0.6334 -0.3404
15506TIP3    H168009   2.285   5.983   6.637 -0.3109 -0.9347  0.0270
15506TIP3    H268010   2.347   5.920   6.761  1.6029 -0.8334 -0.8435
15507TIP3   OH268011   1.752   2.681  12.547  0.7154 -0.4560  0.0045
15507TIP3    H168012   1.734   2.644  12.461  0.3953 -0.7279  0.1854
15507TIP3    H268013   1.722   2.771  12.542  1.4285 -0.2290 -0.4188
15508TIP3   OH268014   1.306   0.132  12.940  0.3587  0.2794 -0.2720
15508TIP3    H168015   1.377   0.089  12.987 -0.0247 -0.2401 -0.1536
15508TIP3    H268016   1.251   0.169  13.009  0.4495  0.5730 -0.3581
15509TIP3   OH268017   5.254   1.440  13.621 -0.8343 -0.7254 -0.0704
15509TIP3    H168018   5.267   1.411  13.531 -0.8567  0.0410 -0.3299
15509TIP3    H268019   5.234   1.534  13.613  0.8259 -0.2552  0.8353
15510TIP3   OH268020   5.797   0.840  14.059  0.1746  0.0837 -0.7081
15510TIP3    H168021   5.753   0.761  14.093  0.7063 -0.1246 -0.4882
15510TIP3    H268022   5.815   0.892  14.138  2.5064 -0.9532 -0.4781
15511TIP3   OH268023   5.122   4.711  16.562 -0.3577 -0.1155  0.0409
15511TIP3    H168024   5.160   4.623  16.558  0.1004  0.1028 -0.7949
15511TIP3    H268025   5.080   4.723  16.477 -1.5839 -0.0173  0.6350
15512TIP3   OH268026   0.675   4.661  14.007  0.2836  0.1798  0.3808
15512TIP3    H168027   0.622   4.714  13.947 -0.1896  2.0850  2.3551
15512TIP3    H268028   0.610   4.613  14.059  0.6614 -0.7121  0.0516
15513TIP3   OH268029   1.024   0.586  16.641 -0.6110 -0.1125 -0.4092
15513TIP3    H168030   0.971   0.638  16.700 -0.6841  0.3040 -0.8354
15513TIP3    H268031   0.972   0.508  16.624 -0.4528 -0.3869  0.3169
15514TIP3   OH268032   0.916   2.466  13.815 -0.1097  0.2641  0.0283
15514TIP3    H168033   0.920   2.400  13.746 -1.6402  2.7619 -2.6936
15514TIP3    H268034   0.975   2.536  13.786 -0.9395  1.4907  1.1340
15515TIP3   OH268035   3.550   4.399   3.941  0.0106 -0.2613 -0.0338
15515TIP3    H168036   3.572   4.319   3.990 -2.5598 -1.2687 -0.3862
15515TIP3    H268037   3.608   4.396   3.865  1.4503 -0.6277  1.0245
15516TIP3   OH268038   0.255   6.095  15.622 -0.1936 -0.5493 -0.8552
15516TIP3    H168039   0.216   6.152  15.688  0.4118 -1.1999  0.1006
15516TIP3    H268040   0.240   6.139  15.539 -1.2512  0.1417 -0.3101
15517TIP3   OH268041   5.470   3.640  13.653  0.3637  0.6915  0.1686
15517TIP3    H168042   5.490   3.715  13.709  1.3698  0.4486  0.1456
15517TIP3    H268043   5.553   3.594  13.643  0.3393  1.0059 -1.9417
15518TIP3   OH268044   1.216   6.796   3.419 -0.0225  0.2978 -0.0846
15518TIP3    H168045   1.224   6.760   3.507 -0.6139  0.0236 -0.1335
15518TIP3    H268046   1.129   6.768   3.390  0.0005  0.7363 -0.5954
15519TIP3   OH268047   3.527   3.393   0.479  0.2305  0.0307 -0.1783
15519TIP3    H168048   3.597   3.393   0.544 -0.2882 -0.5947  0.3896
15519TIP3    H268049   3.499   3.301   0.474 -0.1110  0.1676 -0.8788
15520TIP3   OH268050   2.032   1.806   1.773  0.1726 -0.7708  0.0092
15520TIP3    H168051   2.018   1.815   1.678  1.5956  0.6745 -0.1054
15520TIP3    H268052   2.123   1.834   1.786  0.3052 -1.8654  1.6930
15521TIP3   OH268053   1.060   5.720  11.247  0.0705 -0.0923  0.0033
15521TIP3    H168054   1.093   5.712  11.157 -1.2833  0.5305 -0.5771
15521TIP3    H268055   0.972   5.682  11.243 -1.0754  2.3416  0.4051
15522TIP3   OH268056   3.108   0.087   2.280  0.2146  0.1042  0.3525
15522TIP3    H168057   3.202   0.070   2.282  0.3328  0.8166  0.8200
15522TIP3    H268058   3.075   0.049   2.361  0.1639  0.2484  0.3996
15523TIP3   OH268059   2.801   6.400   2.819  0.5335  0.4476  0.0870
15523TIP3    H168060   2.811   6.408   2.913 -0.1497 -0.8236  0.2951
15523TIP3    H268061   2.724   6.343   2.808  0.3172  0.9572 -1.2344
15524TIP3   OH268062   6.418   0.772   5.354  0.0419  0.6578  0.3606
15524TIP3    H168063   6.509   0.777   5.323  0.2543 -1.3296  0.5077
15524TIP3    H268064   6.366   0.764   5.274  0.3662 -1.7873  0.2942
15525TIP3   OH268065   0.808   2.913   4.590 -0.3039  0.4893  0.2573
15525TIP3    H168066   0.810   2.929   4.496  0.3545  0.3031  0.2344
15525TIP3    H268067   0.864   2.836   4.602 -0.1517  0.6853  0.8293
15526TIP3   OH268068   1.574   5.111   1.903 -0.4165  0.2730 -0.2700
15526TIP3    H168069   1.497   5.165   1.884 -0.8234 -0.4723 -0.7897
15526TIP3    H268070   1.640   5.173   1.934 -0.8061  1.0983 -1.0555
15527TIP3   OH268071   2.592   1.187   4.438 -0.2948  0.3117  0.3545
15527TIP3    H168072   2.607   1.227   4.353 -0.4721 -0.5300 -0.0895
15527TIP3    H268073   2.607   1.257   4.501 -0.7717  1.1100 -0.3976
15528TIP3   OH268074   3.183   0.453  11.056  0.6464 -0.0818 -0.0280
15528TIP3    H168075   3.105   0.507  11.065  1.2121  1.5321 -3.1555
15528TIP3    H268076   3.161   0.370  11.099 -3.3533 -0.2409 -1.9136
15529TIP3   OH268077   6.642   2.025   6.246 -0.1061 -0.9048  0.7597
15529TIP3    H168078   6.725   1.981   6.225  0.5573 -0.1246  1.6596
15529TIP3    H268079   6.664   2.118   6.243 -0.9289 -0.6962  1.1385
15530TIP3   OH268080   4.349   3.064   4.174 -0.4096  0.1562  0.3323
15530TIP3    H168081   4.369   3.042   4.083 -0.3847  0.2579  0.3134
15530TIP3    H268082   4.306   2.986   4.209 -0.3937  0.1073  0.2412
15531TIP3   OH268083   0.358   4.702  14.328  0.4891  0.9133  0.0754
15531TIP3    H168084   0.412   4.643  14.274  0.9643 -0.0482  1.5507
15531TIP3    H268085   0.420   4.765  14.364  0.4887  0.4257  0.9583
15532TIP3   OH268086   1.462   4.442  13.545 -0.0884 -0.3619  1.0857
15532TIP3    H168087   1.553   4.410  13.542 -0.2858 -0.8853  0.0431
15532TIP3    H268088   1.415   4.375  13.594  0.1300  0.0494  1.8725
15533TIP3   OH268089   1.172   0.704  13.151 -0.3463  0.1568 -0.5428
15533TIP3    H168090   1.241   0.760  13.115  1.7178 -1.9880 -0.1538
15533TIP3    H268091   1.116   0.685  13.076  0.9761 -0.1261 -1.4936
15534TIP3   OH268092   5.477   4.105  12.204 -0.0860  0.3016 -0.3472
15534TIP3    H168093   5.502   4.018  12.170  4.4332 -0.6957  4.3062
15534TIP3    H268094   5.515   4.167  12.141 -0.3061 -1.0779 -1.9245
15535TIP3   OH268095   1.334   1.682   5.398 -0.5091  0.4547 -0.2414
15535TIP3    H168096   1.418   1.667   5.354 -0.4799  0.9959 -0.3744
15535TIP3    H268097   1.278   1.720   5.330 -0.9230 -0.0703 -0.2017
15536TIP3   OH268098   6.531   2.899  14.708 -0.4974 -0.1901  0.4006
15536TIP3    H168099   6.483   2.842  14.768 -2.6361  0.6894 -0.3485
15536TIP3    H268100   6.462   2.946  14.661  1.1148  0.1035 -1.8137
15537TIP3   OH268101   6.648   5.461  16.933 -0.5737  0.2505  0.0588
15537TIP3    H168102   6.694   5.515  16.869  0.4484  1.5003  1.7769
15537TIP3    H268103   6.716   5.403  16.968 -0.6307  0.9966  1.4590
15538TIP3   OH268104   1.117   3.941   0.618 -0.2656 -0.1090  0.5164
15538TIP3    H168105   1.067   3.915   0.695 -0.4326  0.1149  0.4855
15538TIP3    H268106   1.180   4.005   0.651 -0.2225 -0.1418  0.4981
15539TIP3   OH268107   3.137   5.178  11.439 -0.4804 -0.1279  0.3813
15539TIP3    H168108   3.122   5.122  11.363 -0.7232 -1.0575  1.0985
15539TIP3    H268109   3.229   5.165  11.461 -0.8552 -1.3273  1.3644
15540TIP3   OH268110   6.492   6.474   4.002 -0.1720  0.2663 -0.3346
15540TIP3    H168111   6.458   6.564   4.003  0.0089  0.3364 -0.3360
15540TIP3    H268112   6.557   6.475   3.931  0.8014  0.4961  0.5302
15541TIP3   OH268113   6.810   5.328  14.332  0.4615 -0.4439  0.0776
15541TIP3    H168114   6.801   5.353  14.424  0.1182 -0.4468  0.0456
15541TIP3    H268115   6.819   5.233  14.334  0.2445 -0.4649  0.0948
15542TIP3   OH268116   4.781   4.811  12.629  0.3951 -0.2613  0.3347
15542TIP3    H168117   4.791   4.749  12.557 -2.5821  0.1270 -0.5624
15542TIP3    H268118   4.687   4.830  12.632  0.5793  0.8222  3.4537
15543TIP3   OH268119   1.378   2.644   2.870  0.6866 -0.1650 -0.0591
15543TIP3    H168120   1.321   2.677   2.800  1.7011 -0.0981 -0.8927
15543TIP3    H268121   1.348   2.555   2.885  0.1524 -0.0260 -0.2531
15544TIP3   OH268122   6.305   2.411  15.607  0.1111 -0.0872 -0.3266
15544TIP3    H168123   6.271   2.380  15.523  0.8522  0.1434 -0.7157
15544TIP3    H268124   6.397   2.430  15.591 -0.3813  2.8198 -0.2517
15545TIP3   OH268125   6.434   2.238  13.583  0.1219  0.4383  0.1639
15545TIP3    H168126   6.351   2.260  13.540 -0.4606  0.4422  1.2435
15545TIP3    H268127   6.430   2.284  13.667  2.7218  3.2104 -1.0784
15546TIP3   OH268128   0.131   6.664  13.430  1.0263  0.0000  0.0039
15546TIP3    H168129   0.176   6.704  13.505 -0.0470  0.4077  0.4462
15546TIP3    H268130   0.049   6.713  13.422  0.3807 -1.1063 -0.4128
15547TIP3   OH268131   3.419   4.516  12.337  0.5537  0.5576 -0.3327
15547TIP3    H168132   3.465   4.475  12.264  0.0119  0.9927 -0.9423
15547TIP3    H268133   3.353   4.571  12.294 -0.7141 -0.2656  0.5065
15548TIP3   OH268134   0.204   4.413   4.015 -0.4321  0.4362  0.4264
15548TIP3    H168135   0.208   4.501   3.979 -0.7222  0.7590  1.1540
15548TIP3    H268136   0.117   4.408   4.055  1.2264  1.6117  4.7404
15549TIP3   OH268137   1.497   6.050   0.026  0.0644 -0.0524  0.0963
15549TIP3    H168138   1.548   6.039   0.107 -0.8385 -1.5184  0.4940
15549TIP3    H268139   1.435   6.120   0.047 -1.2813 -1.5232  1.3045
15550TIP3   OH268140   5.818   1.310  14.319 -0.1651  0.3105 -0.7662
15550TIP3    H168141   5.907   1.308  14.354 -0.8375  0.0703  1.0487
15550TIP3    H268142   5.781   1.392  14.352 -1.2943 -0.6124  0.4010
15551TIP3   OH268143   5.232   4.250   2.941 -0.1131  0.5738  0.3527
15551TIP3    H168144   5.273   4.180   2.991  0.2357  0.9406  0.5815
15551TIP3    H268145   5.206   4.208   2.859 -0.9268 -0.0993  0.9259
15552TIP3   OH268146   6.266   2.001  14.836  0.0595  0.2293 -0.0115
15552TIP3    H168147   6.180   2.001  14.794 -1.1983  1.9402  2.2951
15552TIP3    H268148   6.271   1.916  14.881 -0.5204  0.1772 -0.0329
15553TIP3   OH268149   0.216   4.267  11.157  0.8806  0.7771 -0.4214
15553TIP3    H168150   0.249   4.191  11.204 -2.3397 -0.4245  0.1815
15553TIP3    H268151   0.226   4.245  11.064  1.5092  0.3881 -0.2650
15554TIP3   OH268152   6.661   1.193   3.201 -0.3883 -0.3460  0.3500
15554TIP3    H168153   6.718   1.231   3.134 -0.5764 -2.2738 -0.9639
15554TIP3    H268154   6.700   1.222   3.284  0.3369  1.4043 -0.5472
15555TIP3   OH268155   5.948   3.138   1.617  0.3349  0.0041 -0.1157
15555TIP3    H168156   5.893   3.088   1.558 -0.6198  1.3202 -0.3768
15555TIP3    H268157   5.911   3.123   1.704  0.2129  0.0465 -0.1606
15556TIP3   OH268158   0.054   2.137   2.015  0.6603 -0.3162 -0.1651
15556TIP3    H168159   0.039   2.078   1.942 -0.0924 -0.7009  0.2864
15556TIP3    H268160   0.080   2.220   1.975  0.7806 -0.6781 -0.8384
15557TIP3   OH268161   5.946   6.568   4.688  0.3389  0.0863  0.5349
15557TIP3    H168162   6.003   6.586   4.763 -1.1226 -1.1013  2.0026
15557TIP3    H268163   5.948   6.473   4.678 -0.4109  0.1375 -0.2104
15558TIP3   OH268164   6.620   2.579  10.975  0.0109  0.3212  0.0763
15558TIP3    H168165   6.665   2.613  11.052  1.0088 -0.0798 -0.3101
15558TIP3    H268166   6.687   2.576  10.907 -0.2653 -1.4850 -0.1786
15559TIP3   OH268167   6.745   4.636  15.889 -0.0445 -0.3485  1.1433
15559TIP3    H168168   6.728   4.542  15.882 -0.1827 -0.3458  1.4614
15559TIP3    H268169   6.663   4.673  15.920 -0.7744  0.1932 -1.2616
15560TIP3   OH268170   5.527   6.805   4.956  0.1359  0.3113 -0.1194
15560TIP3    H168171   5.579   6.876   4.993  1.3180 -0.0092 -1.0879
15560TIP3    H268172   5.591   6.750   4.910 -0.3877 -2.5009  2.2089
15561TIP3   OH268173   3.666   4.609  14.374  1.0717  0.1310  0.0623
15561TIP3    H168174   3.756   4.598  14.341  1.0754  1.5924 -0.4844
15561TIP3    H268175   3.646   4.702  14.359 -0.0022  0.1732  1.5286
15562TIP3   OH268176   4.723   1.485   1.014 -0.0147 -0.2614 -0.2120
15562TIP3    H168177   4.735   1.553   1.081 -0.9303 -1.6999  1.4769
15562TIP3    H268178   4.646   1.436   1.043 -2.2326  0.7631 -3.8417
15563TIP3   OH268179   0.726   5.376  13.497  0.5000  0.4995 -0.2169
15563TIP3    H168180   0.680   5.343  13.419  1.5599 -1.9079  0.0806
15563TIP3    H268181   0.662   5.368  13.568  1.0747 -2.3822  0.1037
15564TIP3   OH268182   4.448   1.025  12.385  0.2731  0.0374 -0.6576
15564TIP3    H168183   4.517   0.966  12.415  0.7785  1.1293  0.4151
15564TIP3    H268184   4.483   1.112  12.402  0.0541  0.7255 -3.3198
15565TIP3   OH268185   2.669   3.563  16.565  0.3500  0.3092 -0.2728
15565TIP3    H168186   2.656   3.471  16.588 -0.4744  0.3075 -0.7104
15565TIP3    H268187   2.590   3.607  16.596  0.7742  0.8922  0.0036
15566TIP3   OH268188   5.671   2.014  13.102  0.0063  0.6082 -0.1072
15566TIP3    H168189   5.679   1.988  13.011 -1.3673 -1.0358  0.1914
15566TIP3    H268190   5.711   1.942  13.151 -4.4138 -1.5544  0.7738
15567TIP3   OH268191   2.747   1.175   1.175 -0.3932  0.3617 -0.2811
15567TIP3    H168192   2.662   1.211   1.202 -0.2467  0.6597 -0.2208
15567TIP3    H268193   2.736   1.080   1.183  0.3297  0.4622  2.9066
15568TIP3   OH268194   5.327   5.322   4.662 -0.2325  0.7108 -0.2886
15568TIP3    H168195   5.409   5.280   4.688 -0.5748  0.7096  0.8631
15568TIP3    H268196   5.279   5.255   4.614 -0.8827 -0.3515  1.7432
15569TIP3   OH268197   1.098   3.294  16.661 -0.0468 -0.1327  0.0584
15569TIP3    H168198   1.106   3.371  16.604 -2.7408  1.3628  1.5007
15569TIP3    H268199   1.126   3.325  16.747 -2.2207 -0.3829  0.9026
15570TIP3   OH268200   2.975   4.712  16.495 -0.2925 -0.3245  0.1380
15570TIP3    H168201   2.950   4.782  16.555  1.9913 -0.5047  1.4438
15570TIP3    H268202   2.901   4.652  16.495 -1.0406  0.5491  1.4545
15571TIP3   OH268203   6.011   2.569   6.854 -0.1096 -0.2693 -0.0316
15571TIP3    H168204   6.082   2.615   6.897 -1.3184  1.0643  0.6292
15571TIP3    H268205   5.984   2.501   6.916  1.2295 -1.4930 -0.7253
15572TIP3   OH268206   1.037   1.293   5.342 -0.4934 -0.0888 -0.1834
15572TIP3    H168207   0.951   1.271   5.379 -1.4332  2.5271 -0.5540
15572TIP3    H268208   1.016   1.340   5.261  1.4343 -2.7718 -2.4336
15573TIP3   OH268209   0.145   1.224  11.829  0.7275 -0.1992  0.5433
15573TIP3    H168210   0.230   1.266  11.844  0.6568  0.1012  0.1108
15573TIP3    H268211   0.134   1.165  11.904  1.0103  0.2594  0.9488
15574TIP3   OH268212   0.034   0.362   4.540 -0.0605  0.1754 -0.2955
15574TIP3    H168213   0.061   0.382   4.630  0.1381  0.6158 -0.4505
15574TIP3    H268214   0.116   0.362   4.490 -0.3233  1.5357 -0.7709
15575TIP3   OH268215   2.012   3.160   4.529  0.0383 -0.6512 -0.8116
15575TIP3    H168216   2.067   3.142   4.605 -0.4106 -1.9650 -0.7677
15575TIP3    H268217   1.935   3.204   4.565  0.5946  0.3001 -0.7502
15576TIP3   OH268218   0.975   3.027   2.430 -0.1344  0.3136  0.2196
15576TIP3    H168219   0.880   3.039   2.432 -0.4902 -1.8283 -0.5700
15576TIP3    H268220   1.006   3.062   2.513 -1.6543  0.7004  0.6551
15577TIP3   OH268221   4.236   0.028  14.359  0.3670  0.0902  0.1666
15577TIP3    H168222   4.194  -0.033  14.420  0.2595  1.1775  1.2050
15577TIP3    H268223   4.168   0.091  14.337  0.8362  0.5935  0.1350
15578TIP3   OH268224   2.121   2.336   4.958  0.0125 -0.7530  0.5263
15578TIP3    H168225   2.037   2.380   4.948  0.5320  0.2111  0.1848
15578TIP3    H268226   2.155   2.368   5.041  0.8019  0.2603 -0.1478
15579TIP3   OH268227   3.141   4.784  11.483 -0.3735 -1.0173  0.5121
15579TIP3    H168228   3.184   4.802  11.567  0.9535 -0.2468 -0.3119
15579TIP3    H268229   3.190   4.835  11.419 -2.7195  0.1590 -0.4552
15580TIP3   OH268230   2.379   6.281   4.812  0.2396  0.5743  0.4417
15580TIP3    H168231   2.425   6.315   4.735  0.0424 -0.7477 -0.2806
15580TIP3    H268232   2.402   6.189   4.815 -0.1087  0.5140  1.7366
15581TIP3   OH268233   4.707   0.516   1.611 -0.1074  0.4364  0.0556
15581TIP3    H168234   4.622   0.540   1.647  0.2173  1.3998  0.2285
15581TIP3    H268235   4.757   0.483   1.685 -0.0254  0.7677  0.1525
15582TIP3   OH268236   3.297   4.620   0.383  0.9406  0.3333  0.2878
15582TIP3    H168237   3.331   4.655   0.464  0.5875 -0.0075  0.5885
15582TIP3    H268238   3.238   4.687   0.350  0.7196  0.2705  0.5573
15583TIP3   OH268239   0.711   3.998   3.640 -0.1923  0.0865  0.4078
15583TIP3    H168240   0.632   3.963   3.683 -0.7064  0.5287 -0.1513
15583TIP3    H268241   0.771   4.018   3.712 -0.0867 -1.4418  0.7747
15584TIP3   OH268242   0.363   1.575   3.251 -0.5407  0.0541  0.3574
15584TIP3    H168243   0.433   1.584   3.316  0.4951  0.1690 -0.7378
15584TIP3    H268244   0.283   1.569   3.303  0.3548 -1.0316  1.6898
15585TIP3   OH268245   3.284   5.015   2.434 -0.1443 -0.0383  0.0774
15585TIP3    H168246   3.238   5.067   2.367  1.9840  1.9603  0.0490
15585TIP3    H268247   3.265   4.924   2.411 -4.2206  0.5953  0.2256
15586TIP3   OH268248   1.729   2.387  15.914  0.3312 -0.0324 -0.0890
15586TIP3    H168249   1.790   2.380  15.988 -0.5263 -1.1506  0.5455
15586TIP3    H268250   1.687   2.472  15.924  0.4197 -0.0619  0.5618
15587TIP3   OH268251   3.010   6.128   3.121 -0.3930  0.3200  0.4669
15587TIP3    H168252   3.081   6.184   3.089  0.1102 -1.3796 -1.5650
15587TIP3    H268253   3.055   6.053   3.159 -1.0237 -1.2147 -1.6651
15588TIP3   OH268254   6.125   1.444  12.695 -0.3574 -0.1402 -0.0703
15588TIP3    H168255   6.188   1.460  12.765 -2.7992  0.6325  2.0787
15588TIP3    H268256   6.162   1.369  12.648  2.3746  0.5725  0.7241
15589TIP3   OH268257   2.059   1.911   0.882 -0.2383  0.2870  0.5263
15589TIP3    H168258   2.032   1.994   0.843 -2.2745 -0.2122  0.7567
15589TIP3    H268259   2.052   1.847   0.812  1.7056  0.3335  0.2455
15590TIP3   OH268260   6.529   3.215  13.346 -0.1883 -0.2338  0.2578
15590TIP3    H168261   6.579   3.239  13.424 -0.2940  1.6546 -0.1929
15590TIP3    H268262   6.537   3.291  13.288  0.4188 -1.8156 -1.8661
15591TIP3   OH268263   6.480   1.734   1.247 -0.1194 -0.3043 -0.0735
15591TIP3    H168264   6.551   1.695   1.298 -0.4848  0.3696  0.9803
15591TIP3    H268265   6.422   1.661   1.226 -0.8608 -0.3709  1.9771
15592TIP3   OH268266   5.181   5.112  12.153 -0.2359 -0.2358  0.3329
15592TIP3    H168267   5.125   5.123  12.076  1.2459  0.0155 -0.7467
15592TIP3    H268268   5.206   5.201  12.177 -1.2342 -0.2598  1.5603
15593TIP3   OH268269   3.630   6.775   3.790  0.4472 -0.0438 -0.4768
15593TIP3    H168270   3.575   6.710   3.833 -2.0368  2.2957  0.1864
15593TIP3    H268271   3.707   6.782   3.847  1.2909 -2.9987 -1.1104
15594TIP3   OH268272   0.485   6.578  12.156  0.1399 -0.5042  0.0054
15594TIP3    H168273   0.414   6.533  12.109 -0.6047  1.4308 -0.8079
15594TIP3    H268274   0.515   6.513  12.219 -0.8126 -2.1840 -1.1580
15595TIP3   OH268275   2.217   0.173  10.983 -0.4475  0.4969 -0.2929
15595TIP3    H168276   2.293   0.198  10.929 -1.0779  0.2376 -1.3347
15595TIP3    H268277   2.222   0.231  11.059  1.8515 -0.7801  0.6417
15596TIP3   OH268278   1.265   1.459   0.839 -0.0507  0.5191 -0.0329
15596TIP3    H168279   1.198   1.393   0.821  0.6850  0.0832 -1.2651
15596TIP3    H268280   1.223   1.518   0.902 -1.0480 -0.5894  0.3890
15597TIP3   OH268281   5.921   0.177   1.468 -0.5907 -0.5289  0.3218
15597TIP3    H168282   5.865   0.099   1.468  1.4241 -2.1093  2.4362
15597TIP3    H268283   5.987   0.158   1.534  0.8060  2.4376 -0.1055
15598TIP3   OH268284   0.900   1.835  16.110 -0.6726 -0.7812  0.6735
15598TIP3    H168285   0.818   1.872  16.079 -0.0668 -0.3212 -0.4670
15598TIP3    H268286   0.887   1.820  16.203 -2.2286 -1.2314  0.4083
15599TIP3   OH268287   2.580   5.716  14.231  0.0309  0.2477 -0.0151
15599TIP3    H168288   2.494   5.751  14.210  0.1221  0.9830  0.8088
15599TIP3    H268289   2.564   5.649  14.298 -0.0339 -0.6270 -0.8745
15600TIP3   OH268290   6.755   0.639  12.605  0.0371 -0.2171  0.0494
15600TIP3    H168291   6.717   0.600  12.527  1.1653  0.5499 -0.9250
15600TIP3    H268292   6.746   0.733  12.592  1.0394 -0.0557  0.4022
15601TIP3   OH268293   4.485   1.546  14.419 -0.0765  0.1129 -0.5856
15601TIP3    H168294   4.547   1.617  14.436 -0.8345  1.2015 -2.0812
15601TIP3    H268295   4.534   1.482  14.369  0.2636  0.1904 -0.3545
15602TIP3   OH268296   3.085   5.848   0.436 -0.0648 -0.2454  0.0021
15602TIP3    H168297   3.005   5.878   0.481  0.5698  1.0862  0.3170
15602TIP3    H268298   3.151   5.914   0.459  0.8630 -0.7570 -1.0989
15603TIP3   OH268299   3.252   1.968  15.056  0.5057 -0.2094  0.0709
15603TIP3    H168300   3.312   2.042  15.048 -0.4796  0.5668 -0.3442
15603TIP3    H268301   3.199   1.989  15.133  0.7543 -0.8958  0.4395
15604TIP3   OH268302   3.130   0.274  13.176 -0.2132 -0.0973  0.2897
15604TIP3    H168303   3.161   0.188  13.150  1.3399  0.4275  0.3180
15604TIP3    H268304   3.100   0.262  13.267 -1.3690 -0.8948 -0.1658
15605TIP3   OH268305   1.652   5.484  16.881  0.3360 -0.1113  0.4864
15605TIP3    H168306   1.690   5.396  16.884  0.6256 -0.1204 -1.7935
15605TIP3    H268307   1.658   5.516  16.971  1.1920 -2.0070  1.1545
15606TIP3   OH268308   4.721   0.023   1.679 -0.0881 -0.0204  0.0523
15606TIP3    H168309   4.739   0.001   1.771 -3.3589  0.7605  1.0069
15606TIP3    H268310   4.747   0.115   1.672 -1.1223  0.3274  0.6292
15607TIP3   OH268311   6.784   0.619  12.899 -0.1133  0.5398 -0.5971
15607TIP3    H168312   6.790   0.531  12.936 -0.3017  0.9258  0.3878
15607TIP3    H268313   6.787   0.605  12.804  0.9537 -0.4326 -0.4444
15608TIP3   OH268314   0.813   2.411  10.810  0.0983 -0.1636 -0.0841
15608TIP3    H168315   0.833   2.487  10.755  0.8959 -0.2687  0.0514
15608TIP3    H268316   0.786   2.343  10.748  1.6208 -0.4863 -0.4413
15609TIP3   OH268317   3.708   5.036  15.119 -0.1305  0.2771  0.5617
15609TIP3    H168318   3.618   5.045  15.087 -1.0602  1.1629  3.1835
15609TIP3    H268319   3.702   4.975  15.192  1.6644 -0.6980 -0.0598
15610TIP3   OH268320   6.555   6.013  13.536 -0.2544  0.6123  0.1410
15610TIP3    H168321   6.647   6.020  13.564 -1.1945  2.5935  3.2118
15610TIP3    H268322   6.525   5.930  13.571  0.8560 -1.2967 -3.0065
15611TIP3   OH268323   4.242   5.047  10.411  0.3598  0.5654  0.3548
15611TIP3    H168324   4.318   5.082  10.364 -0.1891  0.8990 -0.2955
15611TIP3    H268325   4.175   5.037  10.344 -0.2948  0.6320  0.9904
15612TIP3   OH268326   5.188   2.288  12.819 -0.0657  0.7253 -0.1143
15612TIP3    H168327   5.140   2.293  12.902  2.8487  0.6429  1.7035
15612TIP3    H268328   5.168   2.201  12.785  0.2663 -0.0478  1.5831
15613TIP3   OH268329   0.163   0.856  14.214  0.6642  0.3501 -0.6728
15613TIP3    H168330   0.103   0.782  14.201  0.0516  0.3876  1.4974
15613TIP3    H268331   0.213   0.833  14.292  0.8325  1.9786 -0.2620
15614TIP3   OH268332   2.470   0.668  17.088 -0.1687  0.2072  0.1533
15614TIP3    H168333   2.447   0.631  17.002  0.0751 -1.3791  0.7324
15614TIP3    H268334   2.414   0.621  17.150 -1.3443  2.3160  0.7663
15615TIP3   OH268335   4.831   1.482  14.798  0.3834 -0.8314  0.0891
15615TIP3    H168336   4.813   1.414  14.733 -0.6888 -2.6185  2.1076
15615TIP3    H268337   4.924   1.470  14.820  0.6257 -0.5320 -0.7357
15616TIP3   OH268338   2.339   3.505   0.993  0.4494  0.4154  0.0948
15616TIP3    H168339   2.349   3.570   0.923  0.2546 -0.3037 -0.6119
15616TIP3    H268340   2.429   3.487   1.021  0.8190 -1.3879 -1.9520
15617TIP3   OH268341   5.180   2.201  15.885  1.0119  0.3142 -0.2946
15617TIP3    H168342   5.143   2.113  15.872  2.8501 -0.2468 -2.4573
15617TIP3    H268343   5.141   2.232  15.967  0.3450 -2.5407  0.5806
15618TIP3   OH268344   0.754   3.499  11.660 -0.5408  0.0318  0.5084
15618TIP3    H168345   0.809   3.486  11.737  0.9110  1.8842 -0.1243
15618TIP3    H268346   0.811   3.542  11.597 -1.5213 -1.9226 -1.8646
15619TIP3   OH268347   0.109   6.318   4.547 -0.0917 -0.0543 -0.2167
15619TIP3    H168348   0.054   6.313   4.625 -0.4433 -1.8382 -0.5371
15619TIP3    H268349   0.197   6.338   4.581 -0.3461 -0.2516  0.5811
15620TIP3   OH268350   0.185   6.570  15.779  0.2460 -0.3636  0.6748
15620TIP3    H168351   0.147   6.642  15.729  2.4048  0.8971  0.7086
15620TIP3    H268352   0.134   6.493  15.754 -0.1879  0.6317 -1.7645
15621TIP3   OH268353   5.530   6.437  12.466  0.2793  0.4177  0.1300
15621TIP3    H168354   5.511   6.468  12.377 -0.7328  1.2031  0.6086
15621TIP3    H268355   5.618   6.469  12.484  0.5853  0.0627 -0.6630
15622TIP3   OH268356   2.442   1.923   0.570  0.3717  0.1913  0.1734
15622TIP3    H168357   2.492   1.990   0.524 -0.3626  0.6751  0.0741
15622TIP3    H268358   2.406   1.868   0.501  1.9507 -1.0508  0.2803
15623TIP3   OH268359   5.072   5.298   3.981  0.1041  0.3303 -0.0236
15623TIP3    H168360   5.108   5.385   3.963  1.3334  0.1391  1.4172
15623TIP3    H268361   5.148   5.242   3.993 -0.6816 -0.8620 -0.4822
15624TIP3   OH268362   6.632   1.762  14.171  0.9057  0.1932  0.3509
15624TIP3    H168363   6.598   1.789  14.086 -0.2195  0.8302  0.9731
15624TIP3    H268364   6.717   1.723  14.152 -0.9158 -3.3929 -1.6153
15625TIP3   OH268365   5.279   5.063  16.535 -0.6279  0.3449  0.3201
15625TIP3    H168366   5.346   4.997  16.551 -0.5033  0.8269  1.8971
15625TIP3    H268367   5.286   5.124  16.608 -0.2981  2.4951 -1.3668
15626TIP3   OH268368   6.816   4.779   3.467  0.0154  0.3428 -0.2646
15626TIP3    H168369   6.803   4.792   3.373  0.5923  2.4609 -0.0969
15626TIP3    H268370   6.905   4.809   3.483  0.3539 -1.1132  0.8057
15627TIP3   OH268371   0.656   1.400   1.811 -0.0183 -0.8929 -0.0200
15627TIP3    H168372   0.584   1.347   1.844 -0.3797 -1.2369 -1.2888
15627TIP3    H268373   0.659   1.476   1.869 -1.2362 -1.0002  0.2150
15628TIP3   OH268374   1.819   4.994   0.739  0.0987 -0.1737  0.2075
15628TIP3    H168375   1.833   4.964   0.650 -0.7458  0.0930 -0.0296
15628TIP3    H268376   1.724   5.004   0.746  0.2763  4.9674 -0.6293
15629TIP3   OH268377   5.667   2.094   3.778 -0.8588  0.0061 -0.5368
15629TIP3    H168378   5.699   2.147   3.705  2.0070 -0.7989  0.0418
15629TIP3    H268379   5.618   2.156   3.833  0.2199  1.4772 -1.1862
15630TIP3   OH268380   4.365   4.123  13.919 -0.3504  0.3019 -0.3918
15630TIP3    H168381   4.441   4.065  13.923 -0.2705  0.3620 -1.0045
15630TIP3    H268382   4.378   4.184  13.991 -0.1309 -0.0640 -0.1142
15631TIP3   OH268383   5.010   3.197  11.241  0.3275  0.3718 -0.5164
15631TIP3    H168384   5.035   3.207  11.149  1.5357  0.6687 -0.1710
15631TIP3    H268385   5.001   3.102  11.253  1.2328  0.2563 -0.6860
15632TIP3   OH268386   5.765   1.175   4.075 -0.0680 -0.1417 -0.1035
15632TIP3    H168387   5.738   1.135   4.157  0.9509 -0.5422  0.0511
15632TIP3    H268388   5.685   1.212   4.039 -0.3192  1.1585  1.6688
15633TIP3   OH268389   2.469   6.165  11.150  0.4320  0.1715  0.3310
15633TIP3    H168390   2.465   6.229  11.078  0.8183 -0.0694  0.0889
15633TIP3    H268391   2.543   6.109  11.127  0.5689  0.1002  0.9316
15634TIP3   OH268392   6.489   6.211   5.634  0.3479 -0.4684 -0.3771
15634TIP3    H168393   6.487   6.305   5.619 -1.7810 -0.4841 -0.5392
15634TIP3    H268394   6.520   6.174   5.551  0.9154  0.0741 -0.4095
15635TIP3   OH268395   1.762   3.253  12.629 -0.2924  0.5294 -0.6191
15635TIP3    H168396   1.721   3.340  12.633 -0.7987  0.3019 -0.7220
15635TIP3    H268397   1.706   3.198  12.684  0.9380  0.6157  0.7663
15636TIP3   OH268398   4.468   3.729  15.856  0.2327  0.0233 -0.0784
15636TIP3    H168399   4.536   3.794  15.874 -0.5376  0.9800 -0.5412
15636TIP3    H268400   4.508   3.669  15.794  1.6264 -1.1246  1.8259
15637TIP3   OH268401   5.645   2.285  15.954  0.1069 -0.3288 -0.0189
15637TIP3    H168402   5.669   2.198  15.920 -0.5495 -0.5411  0.0456
15637TIP3    H268403   5.577   2.315  15.895 -0.0270 -0.0751  0.2641
15638TIP3   OH268404   0.946   1.157   2.927  0.1406 -0.4399 -0.1718
15638TIP3    H168405   0.902   1.081   2.888  0.4284 -0.1882 -1.0155
15638TIP3    H268406   1.039   1.134   2.927  0.3199  0.2002 -1.1541
15639TIP3   OH268407   4.812   6.163  13.722 -0.3712 -0.2095  0.0402
15639TIP3    H168408   4.810   6.069  13.734 -0.7407 -0.0043  1.9296
15639TIP3    H268409   4.810   6.199  13.811 -1.2249  1.5941 -0.6463
15640TIP3   OH268410   3.126   0.526   5.226 -0.1143 -0.4946 -0.3848
15640TIP3    H168411   3.043   0.563   5.258  0.9224 -0.5697  2.8039
15640TIP3    H268412   3.192   0.565   5.283  2.0606 -0.6760 -2.6338
15641TIP3   OH268413   2.826   1.663  11.572  0.1158 -0.6302  0.3777
15641TIP3    H168414   2.818   1.583  11.520 -1.3986 -1.0374  1.1693
15641TIP3    H268415   2.748   1.714  11.549  1.2429  0.8369 -0.4106
15642TIP3   OH268416   2.698   2.598  12.232  0.3112 -0.0899  0.1120
15642TIP3    H168417   2.760   2.646  12.287 -1.3222  0.2173  1.7798
15642TIP3    H268418   2.656   2.535  12.292 -0.1227 -1.1424 -1.2422
15643TIP3   OH268419   1.913   5.924  13.309  0.2351 -0.1545  0.2514
15643TIP3    H168420   2.002   5.953  13.291  0.6140 -2.0749 -1.2700
15643TIP3    H268421   1.910   5.834  13.278 -2.4619  0.0959 -0.4601
15644TIP3   OH268422   4.511   3.243  16.281  0.4396  0.1524  0.2805
15644TIP3    H168423   4.562   3.252  16.201 -1.8968 -0.3614 -1.3678
15644TIP3    H268424   4.472   3.329  16.295 -1.3581 -0.4268 -0.7927
15645TIP3   OH268425   1.896   2.548   5.216  0.1964 -0.0548  0.2296
15645TIP3    H168426   1.855   2.573   5.133 -1.3421 -1.4849  0.5101
15645TIP3    H268427   1.989   2.538   5.195  0.0709  1.0376 -0.9630
15646TIP3   OH268428   6.542   5.961  13.997  0.1094 -0.3875  0.3533
15646TIP3    H168429   6.596   5.929  13.924 -0.5256 -0.0741 -0.2745
15646TIP3    H268430   6.554   6.056  13.995  1.7988 -0.5255  2.0535
15647TIP3   OH268431   6.568   2.538  12.454 -0.0238  0.0213  0.0365
15647TIP3    H168432   6.600   2.549  12.544  1.2101  3.3684 -0.6825
15647TIP3    H268433   6.633   2.483  12.412  0.0586 -0.5145  0.8441
15648TIP3   OH268434   4.741   3.317   1.792  0.6075 -0.7437  0.4834
15648TIP3    H168435   4.781   3.265   1.722 -0.2150 -0.9675  0.1663
15648TIP3    H268436   4.648   3.292   1.790  0.0013  1.3339 -0.2149
15649TIP3   OH268437   0.750   3.038  13.712  0.2123  0.7680 -0.5482
15649TIP3    H168438   0.782   3.125  13.691 -1.4102  1.2741 -1.0641
15649TIP3    H268439   0.825   2.980  13.695  2.2430  2.2577  2.4985
15650TIP3   OH268440   1.651   0.215  16.573 -0.1626 -0.2986 -0.0022
15650TIP3    H168441   1.743   0.231  16.594 -0.3084 -0.0460  0.4544
15650TIP3    H268442   1.604   0.287  16.615 -0.4672  0.2141 -1.1702
15651TIP3   OH268443   4.753   3.601   2.385  0.0959  0.4610 -0.4789
15651TIP3    H168444   4.831   3.595   2.330  1.3977  1.2617  1.1671
15651TIP3    H268445   4.784   3.578   2.473 -1.7375 -0.0932  0.0707
15652TIP3   OH268446   0.285   5.963   1.098 -0.2102 -0.1420  0.3269
15652TIP3    H168447   0.233   6.011   1.035  0.2748 -0.4295 -0.3067
15652TIP3    H268448   0.222   5.910   1.147 -0.5825  0.0446  0.0471
15653TIP3   OH268449   1.600   2.526   4.933  0.5697  0.4630 -0.4157
15653TIP3    H168450   1.684   2.490   4.960  0.7675  1.9836  1.1613
15653TIP3    H268451   1.621   2.582   4.858  0.8597  0.3211 -0.4404
15654TIP3   OH268452   5.412   0.747   2.698 -0.2794  0.7918  0.0494
15654TIP3    H168453   5.379   0.658   2.684  0.9982  0.1940  0.5930
15654TIP3    H268454   5.374   0.799   2.628  1.9774 -1.0027 -2.7074
15655TIP3   OH268455   6.097   5.482   4.441  0.4638 -0.1480  0.4685
15655TIP3    H168456   6.049   5.557   4.474  0.3770  0.0627 -0.1264
15655TIP3    H268457   6.182   5.517   4.414 -0.4816  0.2795 -2.2668
15656TIP3   OH268458   5.516   0.346  14.365  1.0698  0.1674 -0.5230
15656TIP3    H168459   5.560   0.429  14.348  0.7638 -0.1023 -2.9943
15656TIP3    H268460   5.581   0.294  14.412  2.1207  1.0049 -0.9996
15657TIP3   OH268461   2.321   2.459   2.780  0.1587  0.3631  0.5733
15657TIP3    H168462   2.272   2.442   2.700  1.5795 -1.4792  0.0206
15657TIP3    H268463   2.262   2.512   2.834 -1.9634 -0.7818 -0.5056
15658TIP3   OH268464   0.835   3.195  14.603  0.2007 -0.6524 -0.2120
15658TIP3    H168465   0.834   3.101  14.622  1.4892 -1.1529 -2.2968
15658TIP3    H268466   0.900   3.230  14.665 -1.4754 -0.7786  1.7289
15659TIP3   OH268467   0.456   2.874   5.078 -0.5116 -0.1862 -0.2455
15659TIP3    H168468   0.409   2.917   5.006 -0.6842 -1.4645 -0.9339
15659TIP3    H268469   0.487   2.946   5.133 -2.3244  0.7414 -0.3615
15660TIP3   OH268470   6.438   1.722  12.494 -0.0253  0.2980 -0.2838
15660TIP3    H168471   6.509   1.765  12.445  2.3991 -2.0379  0.9010
15660TIP3    H268472   6.454   1.746  12.585 -0.5124 -0.5970  0.0468
15661TIP3   OH268473   0.384   1.100   4.386  1.0078 -0.2128  0.8745
15661TIP3    H168474   0.365   1.182   4.432  3.8487  0.8396  0.3908
15661TIP3    H268475   0.332   1.106   4.305 -1.1998 -0.3991  2.2018
15662TIP3   OH268476   1.781   6.385  14.159 -0.0450 -0.3734 -0.1436
15662TIP3    H168477   1.724   6.462  14.167 -2.0966 -1.6346 -1.6979
15662TIP3    H268478   1.848   6.411  14.096  0.4031  0.7266  0.7510
15663TIP3   OH268479   2.704   4.493  11.030 -0.0870 -0.0968  0.1872
15663TIP3    H168480   2.785   4.462  11.070  0.0263 -0.8370 -0.5906
15663TIP3    H268481   2.715   4.476  10.936 -1.3067 -0.5931  0.1131
15664TIP3   OH268482   6.224   1.120  13.118  0.1840  0.4011 -0.0070
15664TIP3    H168483   6.201   1.155  13.032  1.5297  2.8676  0.5478
15664TIP3    H268484   6.173   1.173  13.180 -0.7720 -1.3425  0.7762
15665TIP3   OH268485   5.592   5.890   5.149  0.0056  0.5557 -0.4476
15665TIP3    H168486   5.613   5.823   5.214 -4.3021 -1.2957 -0.6468
15665TIP3    H268487   5.545   5.843   5.080 -0.0350  3.2826 -2.4450
15666TIP3   OH268488   3.217   6.598   3.253 -0.1488 -0.1897  0.3297
15666TIP3    H168489   3.175   6.679   3.283 -1.0829 -0.7354  0.5436
15666TIP3    H268490   3.294   6.627   3.205 -0.6603  0.8462  0.1096
15667TIP3   OH268491   2.377   5.252  11.855 -0.1295 -0.0571 -0.0084
15667TIP3    H168492   2.442   5.188  11.883  1.9982  1.3656 -1.4293
15667TIP3    H268493   2.294   5.219  11.890  1.4186 -1.5456  2.5307
15668TIP3   OH268494   4.282   0.154  12.144  0.5494  0.2624  0.1431
15668TIP3    H168495   4.202   0.173  12.095 -0.2645 -0.1851  1.2507
15668TIP3    H268496   4.260   0.077  12.198  1.9844 -0.3748 -0.1291
15669TIP3   OH268497   0.191   4.142  13.803 -0.1225 -0.5951  0.0426
15669TIP3    H168498   0.197   4.219  13.746 -0.4240  0.3540  1.2280
15669TIP3    H268499   0.112   4.097  13.776 -0.8608  0.4475  0.4127
15670TIP3   OH268500   3.252   2.463   1.993  0.0051  0.0466 -0.1018
15670TIP3    H168501   3.328   2.479   1.937 -1.0092 -0.3494 -1.6498
15670TIP3    H268502   3.219   2.551   2.015  1.1870  0.2353  1.0309
15671TIP3   OH268503   0.680   1.670   4.587 -0.4233  0.2725 -0.0308
15671TIP3    H168504   0.769   1.702   4.575 -0.2512 -0.3327 -0.4139
15671TIP3    H268505   0.663   1.680   4.680 -1.0083  3.1052 -0.3539
15672TIP3   OH268506   0.692   3.083  12.915  0.2288 -0.1730  0.0614
15672TIP3    H168507   0.660   3.014  12.973 -0.4613 -0.7735 -1.0070
15672TIP3    H268508   0.788   3.076  12.921  0.1922  0.1028  1.4741
15673TIP3   OH268509   6.176   1.684   0.619  0.6328 -0.4761  0.4661
15673TIP3    H168510   6.096   1.657   0.664  0.0198  1.2260  0.5015
15673TIP3    H268511   6.238   1.704   0.689 -0.0431  1.3644  0.5969
15674TIP3   OH268512   1.822   2.649  14.181 -0.9004  0.5798  0.0864
15674TIP3    H168513   1.790   2.733  14.213 -1.6764  0.2402  0.2256
15674TIP3    H268514   1.744   2.594  14.175 -0.5509  0.1690 -0.9510
15675TIP3   OH268515   4.650   6.680   4.678 -0.1656  0.3891  0.8909
15675TIP3    H168516   4.624   6.593   4.706  0.0855 -0.0171 -0.1101
15675TIP3    H268517   4.717   6.665   4.611 -0.8744  1.3110 -0.0594
15676TIP3   OH268518   0.562   4.167  13.645  0.2288  0.2284  0.0377
15676TIP3    H168519   0.478   4.209  13.664 -0.2426 -0.6723  0.0133
15676TIP3    H268520   0.545   4.074  13.657  1.1279  0.0064 -0.3499
15677TIP3   OH268521   0.311   1.494   5.020  0.3067 -0.4305 -0.0220
15677TIP3    H168522   0.316   1.588   5.039 -0.4307 -0.2988 -0.4687
15677TIP3    H268523   0.217   1.476   5.012  0.4308 -1.2514  0.2750
15678TIP3   OH268524   0.279   0.038   0.294  0.2710 -0.4028 -0.2956
15678TIP3    H168525   0.310   0.068   0.380 -0.6175  0.0440 -0.1182
15678TIP3    H268526   0.351  -0.015   0.260  0.8518 -0.1490  0.4947
15679TIP3   OH268527   3.694   1.818  11.043 -0.3958  0.6596  0.0708
15679TIP3    H168528   3.785   1.788  11.046 -1.5519 -3.6979 -1.5403
15679TIP3    H268529   3.665   1.798  10.954 -3.3726  0.4377  0.9752
15680TIP3   OH268530   3.924   2.661   2.866  0.0120  0.2702  0.1957
15680TIP3    H168531   3.967   2.742   2.896 -2.2768  1.9198 -0.6920
15680TIP3    H268532   3.867   2.690   2.795 -0.0672 -2.3610 -0.8923
15681TIP3   OH268533   4.987   0.049  15.484  0.9148  0.2389 -0.2823
15681TIP3    H168534   4.894   0.052  15.460  0.3698 -1.8220  1.2433
15681TIP3    H268535   5.021   0.134  15.458 -1.8301  1.7879  0.7226
15682TIP3   OH268536   2.866   4.280   0.812  0.0425 -0.0595  0.0785
15682TIP3    H168537   2.813   4.355   0.783  0.5328 -0.0284 -0.7503
15682TIP3    H268538   2.955   4.302   0.786  0.0423 -1.4029 -1.1622
15683TIP3   OH268539   4.225   3.162  14.765 -0.0292  0.7210  0.3286
15683TIP3    H168540   4.219   3.237  14.705  0.5344  0.7309  0.2756
15683TIP3    H268541   4.313   3.127  14.749 -0.2321  0.1476  0.4718
15684TIP3   OH268542   0.651   3.375  12.000  0.2189 -0.5468  0.2492
15684TIP3    H168543   0.660   3.466  12.030  1.7404 -0.4012 -0.5756
15684TIP3    H268544   0.724   3.362  11.939  0.1390 -2.3870  0.4904
15685TIP3   OH268545   1.370   4.022  11.762 -0.2696  0.1847  0.1853
15685TIP3    H168546   1.378   4.077  11.685 -0.0400 -2.3331 -1.7271
15685TIP3    H268547   1.316   4.073  11.823 -0.8330  2.0850 -1.7889
15686TIP3   OH268548   0.396   1.816   5.497 -0.0277 -0.4367 -0.2642
15686TIP3    H168549   0.430   1.900   5.528  1.2259 -0.8896 -0.3647
15686TIP3    H268550   0.416   1.815   5.404 -1.0840 -0.3658 -0.5013
15687TIP3   OH268551   1.268   4.386   5.016  0.1822 -0.4881  0.3303
15687TIP3    H168552   1.289   4.473   5.049 -1.0023  0.0497 -0.2952
15687TIP3    H268553   1.187   4.397   4.966  0.0895 -1.9156  0.1069
15688TIP3   OH268554   4.882   0.894  11.230  0.1827  0.5607  0.0238
15688TIP3    H168555   4.937   0.927  11.159  0.3540  0.8623  0.2914
15688TIP3    H268556   4.799   0.873  11.188  0.0590  1.3734 -0.1560
15689TIP3   OH268557   5.337   3.456  16.857  0.1218  0.2289 -0.2439
15689TIP3    H168558   5.421   3.432  16.896  0.4322  1.4032 -0.1584
15689TIP3    H268559   5.359   3.509  16.781 -0.5416  1.2073  0.2201
15690TIP3   OH268560   2.912   2.819  15.251 -0.2626 -0.2301  0.2771
15690TIP3    H168561   2.945   2.876  15.181 -3.0908 -0.3100 -1.2968
15690TIP3    H268562   2.930   2.730  15.219 -0.1061 -0.2536  0.4318
15691TIP3   OH268563   4.180   1.215  13.589  0.2437 -0.4418 -0.4157
15691TIP3    H168564   4.158   1.307  13.602  1.7681 -0.0088 -0.6936
15691TIP3    H268565   4.111   1.183  13.530  0.7552  1.0465 -1.9145
15692TIP3   OH268566   1.479   6.006   3.015  0.0118 -0.1287  0.1696
15692TIP3    H168567   1.509   5.915   3.017 -1.1403 -0.6364 -1.8711
15692TIP3    H268568   1.524   6.045   2.940 -0.8031  0.4420 -0.0470
15693TIP3   OH268569   1.212   0.240   2.152 -0.7437 -0.4352  0.3199
15693TIP3    H168570   1.194   0.204   2.239 -1.3137 -2.6679 -0.6470
15693TIP3    H268571   1.282   0.185   2.117 -1.0154 -0.0261 -0.9178
15694TIP3   OH268572   0.521   1.912   2.718 -0.2400  0.0058  0.9188
15694TIP3    H168573   0.452   1.976   2.734 -0.1478 -0.0909  1.7367
15694TIP3    H268574   0.600   1.953   2.753 -0.3971 -1.0433  2.6115
15695TIP3   OH268575   6.412   2.555  12.722  0.1750  0.7572 -0.1632
15695TIP3    H168576   6.499   2.518  12.702 -0.2414 -0.7464  0.6818
15695TIP3    H268577   6.418   2.646  12.692  1.8215  0.5027 -0.7403
15696TIP3   OH268578   5.211   4.544  14.508  0.3182  0.2260 -0.1666
15696TIP3    H168579   5.216   4.486  14.432 -0.3271 -1.7665  1.2255
15696TIP3    H268580   5.118   4.547  14.531  0.5425  0.4413  0.7895
15697TIP3   OH268581   1.512   6.001   1.368  0.0201 -0.4258 -0.4407
15697TIP3    H168582   1.476   6.062   1.304 -1.2086 -0.9028 -0.2361
15697TIP3    H268583   1.465   6.022   1.449 -0.6623 -1.8336 -0.4459
15698TIP3   OH268584   4.731   4.729  15.167 -0.4168  0.2067 -0.2290
15698TIP3    H168585   4.761   4.681  15.244  0.9877 -1.3846 -1.6722
15698TIP3    H268586   4.697   4.661  15.108  0.7889  1.0515 -1.9723
15699TIP3   OH268587   4.789   6.405  13.462  0.7864  0.0743  0.5486
15699TIP3    H168588   4.754   6.392  13.373  0.2654 -2.0666  1.0097
15699TIP3    H268589   4.823   6.494  13.461 -0.6259  0.6652 -1.3251
15700TIP3   OH268590   6.470   2.830   1.404  0.1552 -0.2057  0.2314
15700TIP3    H168591   6.457   2.881   1.485  2.8939  0.6998  0.1971
15700TIP3    H268592   6.443   2.889   1.334  0.9897  0.2992  0.3264
15701TIP3   OH268593   2.936   5.196   6.029 -0.0923 -0.3448 -0.3356
15701TIP3    H168594   2.982   5.275   6.004  1.9306 -1.0714  0.8550
15701TIP3    H268595   3.003   5.128   6.030 -1.4358 -1.7290  0.2770
15702TIP3   OH268596   3.920   5.449   3.496 -0.4849 -0.4903  0.0451
15702TIP3    H168597   3.959   5.537   3.500  1.2940 -1.2421 -0.1234
15702TIP3    H268598   3.842   5.456   3.552  0.1544  0.9341  0.8392
15703TIP3   OH268599   5.673   6.006  16.750  0.3085  0.0830  0.0223
15703TIP3    H168600   5.614   6.020  16.824  1.9049 -1.3689  1.7103
15703TIP3    H268601   5.736   6.078  16.755  0.6895 -0.2691  0.3942
15704TIP3   OH268602   5.410   2.634   1.757 -0.2399 -0.0576  0.5335
15704TIP3    H168603   5.458   2.560   1.795 -2.0673 -1.2916  0.6033
15704TIP3    H268604   5.442   2.639   1.667  0.5605 -0.3301  0.7870
15705TIP3   OH268605   3.686   5.625  16.894 -1.2006 -0.2084 -0.3815
15705TIP3    H168606   3.671   5.639  16.988 -1.4456  2.3215 -0.7362
15705TIP3    H268607   3.657   5.706  16.853  1.0667 -0.3273 -2.4291
15706TIP3   OH268608   2.789   6.676  13.252  0.1150 -0.3644  0.4035
15706TIP3    H168609   2.790   6.736  13.326 -0.6137 -1.4235  1.3037
15706TIP3    H268610   2.881   6.653  13.238  0.8589  3.1710 -1.9030
15707TIP3   OH268611   6.505   0.602  14.096  0.1280  0.1739 -0.0107
15707TIP3    H168612   6.445   0.638  14.162  1.9760  0.2363  1.7240
15707TIP3    H268613   6.463   0.520  14.069 -2.2155  1.6361 -1.1486
15708TIP3   OH268614   6.436   6.246   6.527 -0.3039  0.7392 -0.2303
15708TIP3    H168615   6.527   6.243   6.498  0.1108  2.0714  0.8190
15708TIP3    H268616   6.396   6.166   6.491  0.6331  1.3202 -2.7397
15709TIP3   OH268617   5.981   0.628   3.329 -0.1724  0.3370  0.6732
15709TIP3    H168618   6.006   0.639   3.421 -0.4510  1.7543  0.6058
15709TIP3    H268619   5.899   0.676   3.321 -0.2245  0.1036 -0.2870
15710TIP3   OH268620   0.088   3.515   3.875  0.4298 -0.1878  0.0946
15710TIP3    H168621   0.167   3.569   3.873  0.0918  0.2979 -1.9634
15710TIP3    H268622   0.082   3.478   3.787 -0.3126 -2.2056  0.9440
15711TIP3   OH268623   2.296   3.826  14.228 -0.7886  0.1918  0.4841
15711TIP3    H168624   2.365   3.892  14.224 -0.1306 -0.5492 -0.9437
15711TIP3    H268625   2.243   3.841  14.150 -2.5235  0.9796  1.7340
15712TIP3   OH268626   0.928   2.775  13.940 -0.1010  0.9685  0.2899
15712TIP3    H168627   0.843   2.736  13.921 -0.1199  0.3424  1.5289
15712TIP3    H268628   0.915   2.823  14.022  0.4767  1.7552 -0.0687
15713TIP3   OH268629   0.172   2.311  12.713  0.0302  0.7167  0.2972
15713TIP3    H168630   0.235   2.353  12.771  0.7921 -0.7855  0.6111
15713TIP3    H268631   0.225   2.255  12.656 -0.9629 -0.1299  0.1706
15714TIP3   OH268632   5.342   3.052   2.306 -0.0455 -0.0768  0.0878
15714TIP3    H168633   5.368   3.097   2.226  0.3488 -0.5356 -0.0438
15714TIP3    H268634   5.253   3.019   2.288 -0.1326  0.2025  0.0035
15715TIP3   OH268635   3.368   6.508  17.271  0.7477  0.2981  0.1316
15715TIP3    H168636   3.325   6.543  17.349  2.7795  1.9364  0.6198
15715TIP3    H268637   3.328   6.557  17.198 -0.5830 -0.6629  0.1833
15716TIP3   OH268638   4.572   2.234  15.857 -0.0951 -0.7300 -0.4502
15716TIP3    H168639   4.627   2.306  15.889  0.1361  0.7211 -3.7313
15716TIP3    H268640   4.635   2.166  15.834 -0.1774 -1.2868  0.8578
15717TIP3   OH268641   4.541   2.581  16.629 -0.1053 -0.2079  0.3593
15717TIP3    H168642   4.628   2.566  16.667  0.3951 -1.3655 -1.1309
15717TIP3    H268643   4.511   2.494  16.603 -1.0462  0.3615 -0.5468
15718TIP3   OH268644   1.182   5.913   0.233 -0.4839  0.2362 -0.2344
15718TIP3    H168645   1.218   5.901   0.145 -1.3160 -0.8536 -0.4509
15718TIP3    H268646   1.259   5.912   0.291  0.0028  0.0939 -0.8752
15719TIP3   OH268647   2.410   4.521  14.929  0.1026  0.1850  0.1015
15719TIP3    H168648   2.335   4.465  14.906  0.7981 -0.7970  0.1624
15719TIP3    H268649   2.463   4.467  14.987  0.8875  0.8533  0.0235
15720TIP3   OH268650   2.784   6.393  12.169  0.1958  0.4153  0.3469
15720TIP3    H168651   2.702   6.373  12.216  1.0401  0.9624  2.1262
15720TIP3    H268652   2.834   6.312  12.174  0.1567  0.3738  0.0822
15721TIP3   OH268653   0.026   6.636  17.123 -0.1508  0.0240  0.6016
15721TIP3    H168654   0.118   6.621  17.097  0.0186  0.5476  0.8807
15721TIP3    H268655  -0.000   6.555  17.166 -0.0832 -0.4476 -0.2136
15722TIP3   OH268656   2.674   0.065   0.056 -0.1589 -0.0575  0.4259
15722TIP3    H168657   2.655  -0.028   0.043  0.2973 -0.1655  0.4906
15722TIP3    H268658   2.621   0.090   0.131  0.1844 -0.4229  0.7939
15723TIP3   OH268659   4.836   1.995   2.982 -0.3569  0.1851 -0.1103
15723TIP3    H168660   4.745   1.966   2.981 -1.0760  2.2992 -0.6014
15723TIP3    H268661   4.832   2.089   2.970  1.9484  0.2455 -1.1175
15724TIP3   OH268662   3.378   3.974   5.785  0.5550  0.4957  0.1546
15724TIP3    H168663   3.390   4.015   5.699 -0.5914 -0.0791 -0.3104
15724TIP3    H268664   3.461   3.929   5.802  0.5263 -0.0842 -1.0620
15725TIP3   OH268665   0.924   4.385  11.066 -0.2240 -0.3064  0.3571
15725TIP3    H168666   0.834   4.399  11.036  0.3536  0.9904 -0.9100
15725TIP3    H268667   0.977   4.398  10.988  1.1337 -0.1480  1.2788
15726TIP3   OH268668   5.237   3.655   4.174  0.6140  0.3905 -0.2448
15726TIP3    H168669   5.287   3.734   4.152 -0.5045  1.0120 -0.6454
15726TIP3    H268670   5.146   3.683   4.169  0.2346 -0.3883  1.7050
15727TIP3   OH268671   0.040   2.628  17.227  0.0952 -0.7458  0.6238
15727TIP3    H168672   0.045   2.714  17.185 -3.8261 -0.7007 -0.1304
15727TIP3    H268673   0.081   2.641  17.312  0.0729  1.7452  0.3385
15728TIP3   OH268674   2.429   5.084  14.341  0.0876  0.2780  0.9287
15728TIP3    H168675   2.338   5.112  14.333  0.3040  1.5355  2.3319
15728TIP3    H268676   2.478   5.165  14.356  1.6678 -0.1977 -1.1726
15729TIP3   OH268677   1.249   6.157  15.566  0.0219  0.0011 -0.7089
15729TIP3    H168678   1.175   6.102  15.593 -1.3909  1.1357 -2.0785
15729TIP3    H268679   1.318   6.136  15.628 -1.4906 -1.0211  0.7193
15730TIP3   OH268680   5.428   4.831   2.567  0.1967 -0.1837  0.1904
15730TIP3    H168681   5.519   4.859   2.557  0.7237 -1.1397  1.8208
15730TIP3    H268682   5.422   4.750   2.517  0.5683 -0.6934  0.9496
15731TIP3   OH268683   4.615   2.563  13.942  0.3122  0.0191  0.0862
15731TIP3    H168684   4.659   2.592  13.862 -0.3342  0.2843 -0.1779
15731TIP3    H268685   4.686   2.540  14.002  0.8259  1.1595 -0.0614
15732TIP3   OH268686   5.888   6.751   1.718 -0.2259 -0.8258  0.2373
15732TIP3    H168687   5.950   6.825   1.721 -1.2697  0.0872  0.0003
15732TIP3    H268688   5.902   6.705   1.801 -0.0810  0.0761  0.7261
15733TIP3   OH268689   0.026   1.741   2.586 -0.1861 -0.1888  0.4295
15733TIP3    H168690  -0.026   1.702   2.516  0.0452  1.6717 -0.8661
15733TIP3    H268691   0.088   1.673   2.610 -0.3026 -0.9139 -1.1649
15734TIP3   OH268692   3.211   1.659  11.726 -0.6763 -0.1705 -0.3590
15734TIP3    H168693   3.186   1.594  11.791  0.7905  1.3553  1.8986
15734TIP3    H268694   3.141   1.725  11.728  1.1176  1.8949  2.7757
15735TIP3   OH268695   5.520   5.017   3.431  0.4060 -0.0741  0.1890
15735TIP3    H168696   5.581   4.943   3.424  0.0898 -0.1936 -2.0427
15735TIP3    H268697   5.576   5.093   3.445  0.9131 -0.4341  0.1518
15736TIP3   OH268698   2.204   5.187  13.500 -0.3518  0.7644  0.4445
15736TIP3    H168699   2.163   5.226  13.578  0.3258 -0.8728  1.7015
15736TIP3    H268700   2.191   5.093  13.512  1.9213  0.3304 -0.1643
15737TIP3   OH268701   0.675   1.077  13.766  0.0012  0.2088 -0.2722
15737TIP3    H168702   0.731   0.999  13.771 -0.5001 -0.1871 -0.7050
15737TIP3    H268703   0.727   1.141  13.716  0.9717  0.6568  1.2555
15738TIP3   OH268704   0.716   4.776   1.214  0.7514 -0.3411  0.3635
15738TIP3    H168705   0.779   4.709   1.192 -0.8621 -1.9004  0.2695
15738TIP3    H268706   0.631   4.740   1.187 -0.0661  2.2693 -0.9020
15739TIP3   OH268707   3.841   1.383   2.484 -0.3877 -0.2124  0.2304
15739TIP3    H168708   3.862   1.327   2.559 -0.2450 -2.5043 -1.4279
15739TIP3    H268709   3.762   1.345   2.447 -2.4118  2.8784  1.0484
15740TIP3   OH268710   0.725   3.329   2.855 -0.0490  0.1007 -0.2535
15740TIP3    H168711   0.793   3.274   2.893  0.7349  0.2891 -1.3309
15740TIP3    H268712   0.680   3.272   2.792 -1.4701 -0.2719  1.0238
15741TIP3   OH268713   3.528   6.425   1.960 -0.0840 -0.2375  0.2374
15741TIP3    H168714   3.500   6.463   2.043 -0.7283  1.9074 -0.8852
15741TIP3    H268715   3.588   6.490   1.923  0.7076 -1.4466 -0.6971
15742TIP3   OH268716   3.840   5.043   5.991  0.2620  0.3025 -0.2371
15742TIP3    H168717   3.921   5.071   5.948  1.3501 -0.8169  0.9859
15742TIP3    H268718   3.830   5.102   6.065 -0.1886  0.6007 -0.5335
15743TIP3   OH268719   5.066   2.889  14.818 -0.2660 -0.3971  0.4562
15743TIP3    H168720   4.995   2.953  14.817  0.4604  0.4190 -1.1658
15743TIP3    H268721   5.143   2.938  14.844  0.0006 -0.9936  0.8357
15744TIP3   OH268722   0.812   5.781  15.446  0.2335  0.3896  0.1338
15744TIP3    H168723   0.900   5.748  15.461 -0.0155  0.5247  2.1890
15744TIP3    H268724   0.756   5.725  15.500 -0.9850  0.2332 -1.2237
15745TIP3   OH268725   1.345   5.237   1.780 -0.5864  0.6257  0.1244
15745TIP3    H168726   1.425   5.284   1.758 -0.2801 -0.6783 -1.9326
15745TIP3    H268727   1.276   5.282   1.731 -0.6974  0.4089  0.0753
15746TIP3   OH268728   2.860   3.256  16.066  0.3263  0.5301 -0.7385
15746TIP3    H168729   2.844   3.342  16.104  1.1815  1.2958 -2.0495
15746TIP3    H268730   2.780   3.206  16.085 -0.9496  2.1861 -1.5281
15747TIP3   OH268731   3.850   6.000   4.646 -0.5016 -0.0416 -0.5983
15747TIP3    H168732   3.758   5.982   4.665 -0.7072  0.7669 -0.7842
15747TIP3    H268733   3.851   6.092   4.617  0.0852 -0.6218 -2.5256
15748TIP3   OH268734   6.056   6.647  15.955 -0.1175 -0.2132  0.7024
15748TIP3    H168735   6.123   6.678  16.016  0.0577 -0.1430  0.4735
15748TIP3    H268736   6.059   6.709  15.883 -0.3538 -0.2740  0.6398
15749TIP3   OH268737   4.664   1.657  10.588 -0.0288 -0.5131  0.3064
15749TIP3    H168738   4.594   1.682  10.527  0.3847 -0.5922 -0.2129
15749TIP3    H268739   4.718   1.735  10.595 -1.0779  0.1027  2.0276
15750TIP3   OH268740   6.442   4.023   3.823  0.5478  0.3894  0.2996
15750TIP3    H168741   6.522   3.999   3.869  0.6430 -2.0872 -0.9360
15750TIP3    H268742   6.377   3.959   3.852 -0.6915  1.6410  0.4147
15751TIP3   OH268743   5.814   4.512   3.236  0.3626  0.0870  0.5352
15751TIP3    H168744   5.728   4.504   3.194  0.7490 -0.9122 -0.1138
15751TIP3    H268745   5.803   4.583   3.299 -0.8926  0.0871  0.3562
15752TIP3   OH268746   2.554   1.160   1.449  0.2313  0.1714 -0.2821
15752TIP3    H168747   2.522   1.219   1.382 -3.0554 -1.4387 -0.3514
15752TIP3    H268748   2.562   1.214   1.528 -0.7945  1.1109 -0.8017
15753TIP3   OH268749   1.105   5.204  12.517  0.3228  0.5064 -0.3516
15753TIP3    H168750   1.117   5.273  12.582  1.9660  0.4827 -0.6014
15753TIP3    H268751   1.126   5.123  12.563  0.3536  0.3714 -0.6020
15754TIP3   OH268752   0.785   3.768   3.076 -0.3593 -0.1466 -0.6549
15754TIP3    H168753   0.798   3.677   3.102 -0.4000 -0.0853 -0.4094
15754TIP3    H268754   0.860   3.814   3.114 -0.6337  0.0102 -0.2990
15755TIP3   OH268755   2.624   3.982   0.264  0.1242  0.2735  0.1439
15755TIP3    H168756   2.711   3.977   0.303  0.1122  2.5627  0.6296
15755TIP3    H268757   2.582   4.056   0.309 -1.0697  0.9572 -1.9576
15756TIP3   OH268758   3.795   3.989  12.498 -0.1637 -0.1890 -0.0940
15756TIP3    H168759   3.782   3.916  12.438 -0.2344  0.8534 -1.3940
15756TIP3    H268760   3.853   4.049  12.450  0.1867  0.4402  1.0888
15757TIP3   OH268761   3.192   2.947  14.766 -0.0514  0.0342  0.3397
15757TIP3    H168762   3.135   2.908  14.834 -1.7375  1.5806 -0.1138
15757TIP3    H268763   3.276   2.959  14.810 -1.2877  1.6835  2.4573
15758TIP3   OH268764   3.623   6.580  17.217 -0.3318 -0.1950  0.1759
15758TIP3    H168765   3.540   6.573  17.265  1.6147 -2.0967  3.6994
15758TIP3    H268766   3.640   6.492  17.186 -0.6767  0.6700 -2.7972
15759TIP3   OH268767   1.771   4.189  12.402 -0.4886 -0.1956  0.1734
15759TIP3    H168768   1.841   4.215  12.462 -1.6453 -0.8405  1.8660
15759TIP3    H268769   1.748   4.100  12.429 -1.8997 -0.0225 -0.3888
15760TIP3   OH268770   2.445   1.077   2.123  0.2768 -0.2069  0.1259
15760TIP3    H168771   2.466   1.170   2.133  0.8764 -0.2672 -0.4609
15760TIP3    H268772   2.435   1.065   2.028 -0.8104 -0.5384  0.2586
15761TIP3   OH268773   4.852   2.603  16.313 -0.4636  0.2421 -0.4821
15761TIP3    H168774   4.902   2.600  16.231 -0.3457 -0.1128 -0.3996
15761TIP3    H268775   4.917   2.625  16.380 -0.3885 -0.3407 -0.3559
15762TIP3   OH268776   2.419   1.030   6.205  0.1499  0.0745 -0.1901
15762TIP3    H168777   2.398   1.102   6.145  0.1373 -1.9839 -2.8681
15762TIP3    H268778   2.335   1.002   6.240 -0.3052 -0.7253 -1.8070
15763TIP3   OH268779   6.289   6.743   6.396  0.2656 -0.5308  0.7469
15763TIP3    H168780   6.364   6.792   6.363 -0.8033  0.0277 -0.9775
15763TIP3    H268781   6.217   6.767   6.338 -1.0018 -1.8794  1.6876
15764TIP3   OH268782   0.673   3.976   2.882  0.3288 -0.1646 -0.4389
15764TIP3    H168783   0.754   3.924   2.884  0.0096 -0.7583 -1.9008
15764TIP3    H268784   0.662   4.005   2.973  2.5776  0.5907 -0.3295
15765TIP3   OH268785   3.421   0.074  14.643 -0.0326 -0.3697  0.3200
15765TIP3    H168786   3.385   0.055  14.729 -1.2520 -0.7915 -0.2636
15765TIP3    H268787   3.429   0.169  14.640  1.0741 -0.4111  1.2911
15766TIP3   OH268788   5.614   3.140   5.388  0.3834  0.7197  0.2505
15766TIP3    H168789   5.574   3.197   5.322  1.3395  1.5620  0.3864
15766TIP3    H268790   5.673   3.197   5.437 -0.1367  0.0553  1.6939
15767TIP3   OH268791   6.809   3.934   2.750 -0.7635 -0.7668 -0.0415
15767TIP3    H168792   6.853   4.017   2.769  0.9639 -1.8079  0.7820
15767TIP3    H268793   6.716   3.953   2.762 -0.3325  0.7915  1.2197
15768TIP3   OH268794   5.139   5.970   4.543 -0.6190  0.3850  0.1516
15768TIP3    H168795   5.108   5.973   4.453 -2.3945  1.6006  0.7575
15768TIP3    H268796   5.152   5.876   4.561 -0.3165  0.1225 -1.3018
15769TIP3   OH268797   4.450   2.203  13.380  0.5828  0.0975  0.1488
15769TIP3    H168798   4.394   2.175  13.307 -1.1204  2.3104  0.5055
15769TIP3    H268799   4.390   2.206  13.455  1.6471  0.6037  0.9955
15770TIP3   OH268800   3.494   3.216   0.127 -0.1424 -0.7465  0.3803
15770TIP3    H168801   3.435   3.250   0.193 -0.9763 -0.9897 -0.2281
15770TIP3    H268802   3.580   3.253   0.151 -0.6038 -0.0521  1.0259
15771TIP3   OH268803   5.477   4.169   0.983  0.2291  0.2077 -0.8693
15771TIP3    H168804   5.572   4.177   0.970  0.1181 -0.3010 -2.0394
15771TIP3    H268805   5.454   4.086   0.943 -0.8511  0.7454 -1.4026
15772TIP3   OH268806   0.786   3.826   3.364  0.2012 -0.0810 -0.8257
15772TIP3    H168807   0.700   3.843   3.403  0.1124  1.4551 -1.6237
15772TIP3    H268808   0.767   3.789   3.278  0.3910 -2.0020 -0.0945
15773TIP3   OH268809   3.186   3.095   4.091  0.1423 -0.0770 -0.5938
15773TIP3    H168810   3.173   3.142   4.009  0.9500  3.0661  0.9357
15773TIP3    H268811   3.281   3.087   4.099  0.0857  0.0078  0.2077
15774TIP3   OH268812   4.483   1.378   5.063  0.2668 -0.3075 -0.1396
15774TIP3    H168813   4.577   1.366   5.076  0.0931 -0.7234  0.8641
15774TIP3    H268814   4.443   1.327   5.134 -0.7373 -0.9158 -1.1107
15775TIP3   OH268815   4.826   6.639  15.895  0.1867 -0.4248 -0.1493
15775TIP3    H168816   4.794   6.586  15.822  1.5378 -0.5079 -0.7037
15775TIP3    H268817   4.869   6.576  15.953 -2.3623 -0.6494  1.6602
15776TIP3   OH268818   5.230   3.761  13.927  0.1374  0.1593 -0.3703
15776TIP3    H168819   5.214   3.853  13.905 -1.4585  0.3677  1.4034
15776TIP3    H268820   5.324   3.757  13.944  0.3482  1.2927 -1.1263
15777TIP3   OH268821   4.871   5.820  12.846  0.5813  0.4593 -0.8672
15777TIP3    H168822   4.803   5.882  12.872 -0.0675 -0.4058 -0.4551
15777TIP3    H268823   4.900   5.852  12.760 -1.1357  0.2310 -1.5796
15778TIP3   OH268824   3.213   0.771  14.056 -0.3593 -0.1401 -0.7043
15778TIP3    H168825   3.235   0.810  13.971  0.0104  0.5077 -0.3241
15778TIP3    H268826   3.220   0.844  14.117  0.2010 -0.7860  0.0114
15779TIP3   OH268827   6.370   1.083   4.140 -0.2156 -0.3999 -0.0429
15779TIP3    H168828   6.401   1.121   4.222 -1.8989  0.4496  0.2555
15779TIP3    H268829   6.277   1.065   4.156 -0.9965  1.2179 -2.2047
15780TIP3   OH268830   5.286   3.618  16.312 -0.5654  0.4468  0.1142
15780TIP3    H168831   5.266   3.669  16.233  1.8864  1.5380  0.1364
15780TIP3    H268832   5.292   3.682  16.382 -3.3752 -0.5738  1.4563
15781TIP3   OH268833   1.489   6.245   5.360 -0.1054 -0.3256  0.0689
15781TIP3    H168834   1.411   6.294   5.388 -0.3319 -0.9497  0.5746
15781TIP3    H268835   1.479   6.236   5.265 -0.8015 -0.6273  0.1618
15782TIP3   OH268836   3.023   3.590   4.854 -0.0991  0.4852  0.4838
15782TIP3    H168837   2.976   3.516   4.816  0.4038 -0.0525  0.8901
15782TIP3    H268838   2.954   3.646   4.891 -0.6548  1.2618 -1.5601
15783TIP3   OH268839   1.153   3.420  11.921  0.3151  0.2660  0.0287
15783TIP3    H168840   1.205   3.436  11.842  0.3330 -1.9065 -0.4790
15783TIP3    H268841   1.190   3.339  11.957 -0.9541  0.1736  1.1759
15784TIP3   OH268842   5.096   5.844   3.379 -0.3351 -0.2695 -0.1220
15784TIP3    H168843   5.174   5.798   3.408 -0.3424  0.9201  2.0124
15784TIP3    H268844   5.098   5.838   3.284  1.5880 -1.4722 -0.0507
15785TIP3   OH268845   6.756   3.939   0.297 -0.2614  0.2504 -0.2531
15785TIP3    H168846   6.660   3.941   0.302 -0.2864 -1.8302  1.1261
15785TIP3    H268847   6.784   3.989   0.374 -0.1559  1.8464 -1.2630
15786TIP3   OH268848   5.041   2.675   2.983  0.1828 -0.4935 -0.1482
15786TIP3    H168849   4.951   2.702   2.963  0.7414  3.2777  1.5689
15786TIP3    H268850   5.031   2.615   3.057 -0.9236  0.5138  0.5602
15787TIP3   OH268851   2.698   5.049  16.466 -0.2036  0.0778  0.2839
15787TIP3    H168852   2.631   5.117  16.471 -1.3209 -1.0370  0.8811
15787TIP3    H268853   2.662   4.985  16.405  1.3900  0.5811 -1.2602
15788TIP3   OH268854   5.715   5.253  15.066  0.7035 -0.1588 -0.5900
15788TIP3    H168855   5.652   5.324  15.056 -0.6739 -1.3683 -0.8061
15788TIP3    H268856   5.778   5.267  14.996  0.9610  1.3277 -0.0976
15789TIP3   OH268857   2.036   6.030   3.231  0.6500 -0.3129  0.1173
15789TIP3    H168858   2.107   5.968   3.213  0.1922 -0.7938 -0.0866
15789TIP3    H268859   2.012   6.065   3.145 -0.4269 -1.3623 -0.0383
15790TIP3   OH268860   1.503   2.340  11.743  0.1547  0.5446 -0.0277
15790TIP3    H168861   1.536   2.430  11.737 -0.4551  0.7874  0.1782
15790TIP3    H268862   1.414   2.350  11.776 -0.2599 -0.0718 -0.9326
15791TIP3   OH268863   3.297   4.658   4.580  0.7574 -0.7062  0.2786
15791TIP3    H168864   3.236   4.610   4.524 -0.8555  1.5472 -0.0430
15791TIP3    H268865   3.288   4.618   4.666 -2.5926  0.6115  0.6775
15792TIP3   OH268866   0.652   5.888   1.469  0.0326  0.5823 -0.1184
15792TIP3    H168867   0.625   5.851   1.385  1.3438 -0.3744 -0.1442
15792TIP3    H268868   0.718   5.953   1.446  1.5426 -0.7789  0.2339
15793TIP3   OH268869   4.657   0.354  13.296  0.6715  0.1728 -0.2594
15793TIP3    H168870   4.675   0.438  13.339 -0.7133 -1.0209  2.9048
15793TIP3    H268871   4.600   0.376  13.223 -0.1850  1.9448  0.8886
15794TIP3   OH268872   2.675   5.817   2.160  0.0804 -0.1079 -0.3742
15794TIP3    H168873   2.664   5.725   2.184 -0.5268 -0.1040 -0.6199
15794TIP3    H268874   2.751   5.818   2.102  0.6602 -0.3194  0.3661
15795TIP3   OH268875   5.855   5.015  14.150  0.0763  0.8330 -0.3837
15795TIP3    H168876   5.914   5.064  14.207 -2.0899  1.7552  1.2535
15795TIP3    H268877   5.787   4.982  14.209 -1.9869  1.3536 -2.3106
15796TIP3   OH268878   4.419   3.570   2.609 -0.1364  0.4384 -0.0608
15796TIP3    H168879   4.363   3.547   2.683  0.3206  1.6721  0.7121
15796TIP3    H268880   4.494   3.511   2.616 -0.3100  0.2467  0.2010
15797TIP3   OH268881   2.501   5.475   3.535  0.5789 -0.7057 -0.3567
15797TIP3    H168882   2.520   5.547   3.594 -1.2517 -0.0689 -0.4675
15797TIP3    H268883   2.436   5.422   3.581 -2.6696  1.0583 -2.5477
15798TIP3   OH268884   4.155   6.319  11.439  0.4555 -0.0596  0.2293
15798TIP3    H168885   4.147   6.256  11.510 -0.6771  0.3393  0.4854
15798TIP3    H268886   4.081   6.379  11.452 -0.4226 -0.5633 -1.8573
15799TIP3   OH268887   5.409   3.198   1.844 -0.0344 -0.1438  0.0693
15799TIP3    H168888   5.460   3.140   1.787 -0.6872 -0.8358  0.1874
15799TIP3    H268889   5.471   3.267   1.868  1.1068 -1.4070  0.8833
15800TIP3   OH268890   1.187   1.074   4.170 -0.3601  0.3475 -0.1648
15800TIP3    H168891   1.180   1.145   4.106  0.2601  0.5156 -0.0603
15800TIP3    H268892   1.220   1.117   4.250  2.5478 -0.3952 -0.8199
15801TIP3   OH268893   0.273   5.198   4.342 -0.0765 -0.0218 -0.1815
15801TIP3    H168894   0.233   5.190   4.255  0.0294  0.1514 -0.2469
15801TIP3    H268895   0.200   5.187   4.403 -0.1369 -0.2347 -0.2890
15802TIP3   OH268896   4.677   4.406   0.933 -0.0211 -0.2125 -0.0849
15802TIP3    H168897   4.653   4.326   0.886  1.1872 -1.8409  1.9458
15802TIP3    H268898   4.617   4.409   1.007  0.2038  0.5875  0.0730
15803TIP3   OH268899   6.333   6.812  11.029  0.2898 -0.0438 -0.0862
15803TIP3    H168900   6.388   6.846  10.958  0.6533  2.3960  1.2485
15803TIP3    H268901   6.251   6.788  10.987 -0.2416  3.1967 -1.1554
15804TIP3   OH268902   5.425   6.375  16.481  0.1269  0.2193  0.5140
15804TIP3    H168903   5.445   6.291  16.524  1.2832  0.8909  1.3599
15804TIP3    H268904   5.505   6.396  16.433 -1.1130 -0.4705 -1.9956
15805TIP3   OH268905   1.952   1.072  13.639 -0.3341 -0.0708  0.0857
15805TIP3    H168906   1.892   1.144  13.657 -2.7012 -2.4826  2.5611
15805TIP3    H268907   1.896   0.996  13.624  2.0788 -2.0773  0.5570
15806TIP3   OH268908   5.883   1.073   2.111 -0.2709  0.2117  0.0947
15806TIP3    H168909   5.813   1.114   2.059  0.0775  1.4696  0.5873
15806TIP3    H268910   5.928   1.016   2.048 -0.4035  1.0238 -0.7670
15807TIP3   OH268911   5.563   3.679  16.980 -0.1116 -0.1981  0.1187
15807TIP3    H168912   5.579   3.585  16.988 -0.7380 -0.2179  1.2545
15807TIP3    H268913   5.575   3.713  17.069  0.2807  0.8301 -0.3144
15808TIP3   OH268914   0.746   3.848  13.093 -0.0930 -0.4070 -0.9592
15808TIP3    H168915   0.696   3.769  13.109  0.5688 -0.6479 -0.0015
15808TIP3    H268916   0.719   3.876  13.006 -0.3651 -1.6665 -1.3027
15809TIP3   OH268917   5.390   1.036   4.485  0.3958  0.2445 -0.1016
15809TIP3    H168918   5.357   1.105   4.542  2.1447  0.3020  0.9094
15809TIP3    H268919   5.418   0.967   4.546  0.2201 -0.6579 -1.0203
15810TIP3   OH268920   3.456   5.654  11.554  0.1771 -0.2563  0.4382
15810TIP3    H168921   3.518   5.686  11.487 -1.4387 -0.2811 -1.1361
15810TIP3    H268922   3.442   5.562  11.531 -0.4769 -0.2352  0.7366
15811TIP3   OH268923   0.553   6.275  16.829  0.1152  0.6976  0.3647
15811TIP3    H168924   0.592   6.213  16.891  0.5719  0.1352 -0.4622
15811TIP3    H268925   0.629   6.320  16.791 -0.2119  1.8650  1.0283
15812TIP3   OH268926   5.254   3.035   4.184 -0.1568  0.2332 -0.0651
15812TIP3    H168927   5.204   2.991   4.116  0.5491 -0.9212  0.1258
15812TIP3    H268928   5.192   3.048   4.255 -0.9077  1.4891 -0.9263
15813TIP3   OH268929   6.136   5.325   2.000  0.6388 -0.1080 -0.5847
15813TIP3    H168930   6.135   5.310   2.095 -1.4749  0.0572 -0.5291
15813TIP3    H268931   6.125   5.237   1.963  2.5252 -0.3164 -0.7633
15814TIP3   OH268932   4.776   4.497   4.445 -0.0961  0.1178  0.4621
15814TIP3    H168933   4.745   4.575   4.491 -0.3489 -0.2586  0.9404
15814TIP3    H268934   4.852   4.527   4.395  1.0434  0.2746  2.1926
15815TIP3   OH268935   2.221   1.100  14.302 -0.4411  0.1422 -0.2119
15815TIP3    H168936   2.283   1.115  14.374 -2.6608  2.0193  1.4819
15815TIP3    H268937   2.269   1.045  14.240  2.0537 -0.5035  2.0868
15816TIP3   OH268938   1.432   1.350  14.907 -0.2489 -0.0906 -0.1652
15816TIP3    H168939   1.505   1.394  14.863 -1.2064  0.8665 -0.8633
15816TIP3    H268940   1.439   1.259  14.880  0.2318  0.1421 -0.8536
15817TIP3   OH268941   4.724   5.040  17.196  0.0914 -0.5834 -0.0636
15817TIP3    H168942   4.694   5.046  17.286  0.5768  0.0601  0.0597
15817TIP3    H268943   4.652   4.996  17.150 -1.0740  0.9509  0.2101
15818TIP3   OH268944   4.890   5.449  12.898  0.5149  0.0337  0.0278
15818TIP3    H168945   4.796   5.462  12.885  0.6683  0.5016 -0.7085
15818TIP3    H268946   4.926   5.442  12.809  1.1225 -0.5429  0.3106
15819TIP3   OH268947   4.727   3.746   0.663 -0.1598 -0.2520 -0.4702
15819TIP3    H168948   4.708   3.679   0.728  0.0372 -0.2083 -0.3666
15819TIP3    H268949   4.805   3.714   0.617  2.0746  1.4338  1.8104
15820TIP3   OH268950   4.510   5.494  13.435 -0.1309 -0.1662 -0.4236
15820TIP3    H168951   4.432   5.536  13.471  0.9615  3.0287 -1.4917
15820TIP3    H268952   4.492   5.486  13.341  1.3410  2.1601 -0.9913
15821TIP3   OH268953   1.129   6.072  14.706 -0.5426  1.0240 -0.6503
15821TIP3    H168954   1.058   6.021  14.667  1.0548 -0.9671 -1.1365
15821TIP3    H268955   1.167   6.120  14.632 -1.2831  2.0491 -0.3988
15822TIP3   OH268956   6.235   1.620   2.737  0.3008  0.8397  0.1676
15822TIP3    H168957   6.171   1.674   2.783  1.3283  1.4688  0.8970
15822TIP3    H268958   6.267   1.559   2.804  1.8414  1.7905  0.3536
15823TIP3   OH268959   0.814   6.289  11.561 -0.6974  0.2268 -0.4254
15823TIP3    H168960   0.741   6.229  11.575 -0.1269 -0.1806  0.8850
15823TIP3    H268961   0.858   6.294  11.645 -0.4008  2.0711 -0.6470
15824TIP3   OH268962   0.764   1.043   4.834 -0.1968 -0.0112 -0.5735
15824TIP3    H168963   0.751   0.963   4.783 -2.2612  0.0684 -0.2516
15824TIP3    H268964   0.786   1.110   4.770 -0.1733 -0.4748 -1.0542
15825TIP3   OH268965   1.066   2.294  11.326 -0.2924  0.0213  0.1865
15825TIP3    H168966   1.117   2.218  11.355  0.3236  0.3326 -0.0685
15825TIP3    H268967   1.096   2.309  11.236 -1.5910 -0.4303 -0.3439
15826TIP3   OH268968   0.043   5.684  14.938 -0.3801  0.6631  0.3556
15826TIP3    H168969   0.081   5.672  15.025  0.2323 -1.4867 -0.1469
15826TIP3    H268970   0.108   5.735  14.890 -0.3266  1.1037  0.8899
15827TIP3   OH268971   3.935   4.317   5.988 -0.3069 -0.1818 -0.2796
15827TIP3    H168972   3.969   4.378   6.053 -1.1258 -0.6637  0.6362
15827TIP3    H268973   3.963   4.231   6.019  1.8368 -0.2721 -2.1630
15828TIP3   OH268974   1.239   4.339  13.183  0.0825  0.2978  0.7024
15828TIP3    H168975   1.160   4.373  13.139  0.8756  0.6916 -0.4731
15828TIP3    H268976   1.226   4.244  13.184  0.1468  0.2515 -0.6500
15829TIP3   OH268977   4.655   0.706   4.425 -0.2472  0.2413  0.4976
15829TIP3    H168978   4.561   0.693   4.408  0.0839 -1.7543 -0.0544
15829TIP3    H268979   4.684   0.763   4.354 -0.3567 -2.1946 -1.6659
15830TIP3   OH268980   0.533   2.793   3.863  0.3418 -0.8299 -0.1971
15830TIP3    H168981   0.613   2.743   3.848 -0.2036 -2.4171  1.8265
15830TIP3    H268982   0.462   2.731   3.846 -0.3602 -0.6128  1.7510
15831TIP3   OH268983   1.789   0.636  16.883 -0.0486 -0.8129  0.2313
15831TIP3    H168984   1.794   0.551  16.927 -1.8171 -0.8406  0.4225
15831TIP3    H268985   1.771   0.698  16.952  1.0810 -0.2656  0.0641
15832TIP3   OH268986   0.441   1.758  11.485 -0.7421 -0.3435 -0.2087
15832TIP3    H168987   0.521   1.734  11.530 -0.0576  0.0190 -1.2050
15832TIP3    H268988   0.448   1.717  11.399 -0.7679  1.1933 -0.9770
15833TIP3   OH268989   5.452   4.845  16.484 -0.4472  0.0052  0.3142
15833TIP3    H168990   5.405   4.762  16.494 -0.6566 -0.1574 -1.7190
15833TIP3    H268991   5.543   4.820  16.470 -0.0761  0.2499  1.9833
15834TIP3   OH268992   2.217   3.720   1.446 -0.6470 -0.1258 -0.4682
15834TIP3    H168993   2.140   3.726   1.502 -0.7424 -1.0759 -0.4830
15834TIP3    H268994   2.263   3.802   1.459 -1.4867  0.3077 -0.1973
15835TIP3   OH268995   2.468   4.107  16.889 -0.6790  0.8013  0.1966
15835TIP3    H168996   2.419   4.149  16.960 -0.5523  2.2951 -0.5693
15835TIP3    H268997   2.551   4.081  16.929 -0.0200  2.9167  0.3013
15836TIP3   OH268998   3.518   2.695   5.253 -0.2763  0.3684  0.0047
15836TIP3    H168999   3.472   2.776   5.229 -1.0119  0.2855  1.0232
15836TIP3    H269000   3.565   2.669   5.174  2.1908  3.2427  0.3334
15837TIP3   OH269001   2.108   2.411  11.199 -0.2746 -0.5293 -0.0788
15837TIP3    H169002   2.103   2.377  11.288 -1.0737  1.1890  0.5784
15837TIP3    H269003   2.056   2.491  11.201  1.1331  0.4872 -1.6395
15838TIP3   OH269004   3.997   3.075  14.870 -0.3665  0.1007 -0.3192
15838TIP3    H169005   3.925   3.112  14.820 -1.8162 -1.1485  0.7165
15838TIP3    H269006   4.074   3.084  14.814 -1.7704 -0.6383 -2.4631
15839TIP3   OH269007   5.451   6.477   0.399 -0.0034 -0.2186 -0.6890
15839TIP3    H169008   5.428   6.384   0.395  0.7561 -0.3982 -1.3426
15839TIP3    H269009   5.476   6.499   0.309  0.9957  0.3030 -0.3011
15840TIP3   OH269010   3.412   0.964   0.748  0.1595  0.2786 -0.0128
15840TIP3    H169011   3.317   0.957   0.744  0.2699 -1.9992  0.3394
15840TIP3    H269012   3.438   0.903   0.817  1.8168  1.7124  0.7139
15841TIP3   OH269013   1.244   0.398   5.073 -0.2500 -0.0966 -0.0633
15841TIP3    H169014   1.264   0.391   5.167  0.8010  0.2972 -0.2376
15841TIP3    H269015   1.323   0.438   5.035 -0.5190 -0.5707 -1.1652
15842TIP3   OH269016   1.259   0.293   0.056  0.1643  0.0670 -0.3913
15842TIP3    H169017   1.268   0.383   0.024  0.7549 -0.1741 -0.9040
15842TIP3    H269018   1.343   0.273   0.096  0.0585 -0.2884 -0.3452
15843TIP3   OH269019   0.016   4.895   4.301 -0.3601 -0.1223 -0.1714
15843TIP3    H169020  -0.010   4.959   4.366  0.6345 -1.0313  1.1716
15843TIP3    H269021  -0.055   4.896   4.237 -1.3794  0.7775  0.9235
15844TIP3   OH269022   4.540   4.017  13.202 -0.5989 -0.0716  0.0703
15844TIP3    H169023   4.527   4.104  13.163  2.6162  0.4068 -0.1784
15844TIP3    H269024   4.533   4.031  13.296  2.2196  1.0437  0.1931
15845TIP3   OH269025   4.095   1.897  13.742 -0.0402 -0.5547  0.4265
15845TIP3    H169026   4.066   1.810  13.769  0.0445  0.1356  2.9353
15845TIP3    H269027   4.176   1.912  13.791 -0.4585  1.2326  0.6219
15846TIP3   OH269028   2.700   5.438  16.130  0.0470  0.6153 -0.6858
15846TIP3    H169029   2.643   5.456  16.205 -0.3135  0.7024 -0.9717
15846TIP3    H269030   2.693   5.517  16.076 -1.7138 -0.4134 -2.0694
15847TIP3   OH269031   1.905   1.067   3.676  0.0787  0.5777 -0.0871
15847TIP3    H169032   1.867   1.116   3.603  0.2357  0.1596 -0.4482
15847TIP3    H269033   1.833   1.060   3.739 -0.5164 -0.3478 -0.8385
15848TIP3   OH269034   5.525   3.104  14.181  0.6670 -0.7211 -0.1575
15848TIP3    H169035   5.498   3.178  14.235 -0.3416 -1.5263  0.4820
15848TIP3    H269036   5.559   3.144  14.101  2.7927  0.5430  1.2703
15849TIP3   OH269037   0.351   6.629   0.781 -0.0374 -0.0545 -0.2177
15849TIP3    H169038   0.309   6.715   0.789 -2.8517 -1.3889  0.9595
15849TIP3    H269039   0.352   6.611   0.688 -2.9770 -0.2385 -0.3080
15850TIP3   OH269040   2.821   4.874   2.487  0.5537  0.6051 -0.1865
15850TIP3    H169041   2.838   4.963   2.517  2.3949  0.3641 -0.3758
15850TIP3    H269042   2.734   4.853   2.522  0.4143  2.1870  0.5130
15851TIP3   OH269043   2.503   3.478   5.067  0.0262  0.2159  0.4584
15851TIP3    H169044   2.472   3.410   5.007 -1.0396  0.8847  0.2275
15851TIP3    H269045   2.519   3.431   5.150 -1.2111 -0.2373  0.4596
15852TIP3   OH269046   1.505   3.774  11.821 -0.0040  0.2057  0.1209
15852TIP3    H169047   1.472   3.863  11.827 -0.2779  0.0574  1.0909
15852TIP3    H269048   1.569   3.776  11.750  0.4574  1.3185  0.5507
15853TIP3   OH269049   3.043   1.498  12.468 -0.4031 -0.1911  0.4071
15853TIP3    H169050   3.123   1.447  12.455 -0.0163  0.5065 -0.0570
15853TIP3    H269051   3.053   1.538  12.554 -0.5185 -0.5612  0.5946
15854TIP3   OH269052   2.009   1.049   6.180 -0.3919 -0.1223 -0.4105
15854TIP3    H169053   2.062   0.996   6.239 -1.5018  1.0231  1.7548
15854TIP3    H269054   2.042   1.138   6.194 -1.4252  0.3067 -0.6495
15855TIP3   OH269055   3.418   0.707  15.644 -0.2484  0.1080  0.2109
15855TIP3    H169056   3.363   0.710  15.722 -1.2952  1.2253 -0.5250
15855TIP3    H269057   3.504   0.679  15.676 -1.2479 -1.8716  1.3669
15856TIP3   OH269058   2.157   3.439  12.632  0.5090 -1.0079 -0.0936
15856TIP3    H169059   2.162   3.413  12.724 -1.2995 -0.8318  0.0969
15856TIP3    H269060   2.068   3.472  12.622  1.1722  0.4807 -1.5220
15857TIP3   OH269061   6.481   4.931   0.202 -0.1762 -0.8232 -0.0267
15857TIP3    H169062   6.537   4.859   0.174 -1.2347 -2.0785  0.9606
15857TIP3    H269063   6.409   4.889   0.250 -1.5750  0.7735 -0.6045
15858TIP3   OH269064   1.628   6.335   1.576  0.2196 -0.0118  0.0884
15858TIP3    H169065   1.579   6.315   1.656  0.2180  1.3125  0.4560
15858TIP3    H269066   1.695   6.398   1.604  1.0118 -0.4605 -0.7354
15859TIP3   OH269067   2.048   1.284  11.924  0.1764 -0.3827 -0.1626
15859TIP3    H169068   2.055   1.234  11.843 -0.7100 -0.6895 -0.0603
15859TIP3    H269069   2.003   1.365  11.899 -1.9189 -1.3259  0.3402
15860TIP3   OH269070   5.498   5.883  11.853  0.3484  0.6688 -0.4249
15860TIP3    H169071   5.552   5.817  11.811  0.0615  0.4006 -0.3732
15860TIP3    H269072   5.535   5.892  11.941 -0.3675 -0.3252 -0.0010
15861TIP3   OH269073   1.306   5.369  12.097  0.0355  0.5237 -0.3800
15861TIP3    H169074   1.385   5.399  12.053  0.7505 -0.3709  0.2739
15861TIP3    H269075   1.289   5.436  12.163  0.9322  0.1162  0.2722
15862TIP3   OH269076   1.089   3.053   0.176 -0.1004 -0.0993 -0.4013
15862TIP3    H169077   1.126   2.969   0.204 -0.6778 -0.2817 -0.1794
15862TIP3    H269078   1.162   3.115   0.185  0.4956 -0.6686 -1.0928
15863TIP3   OH269079   3.505   0.200   6.121 -0.1541 -0.1701  0.0817
15863TIP3    H169080   3.600   0.204   6.125 -0.0910  0.0766 -1.3556
15863TIP3    H269081   3.482   0.125   6.176  0.6964  1.0476  2.2100
15864TIP3   OH269082   6.129   2.559   0.553  0.4310 -1.3266 -0.1291
15864TIP3    H169083   6.161   2.640   0.591 -1.4745 -0.4746 -0.2436
15864TIP3    H269084   6.208   2.506   0.539  1.6385  0.2260  0.5426
15865TIP3   OH269085   2.448   3.924   0.686 -0.2147  0.4460 -0.4486
15865TIP3    H169086   2.460   4.007   0.730  0.4196 -0.3157  0.8756
15865TIP3    H269087   2.532   3.879   0.695 -0.5014 -0.2954 -1.2417
15866TIP3   OH269088   5.874   2.148   4.212 -0.1452 -0.6418  0.0735
15866TIP3    H169089   5.916   2.067   4.184 -2.8156 -1.8816 -0.6316
15866TIP3    H269090   5.807   2.165   4.146 -0.7023  1.2703  1.0530
15867TIP3   OH269091   4.715   6.763   3.131  0.6884  0.4078  0.5579
15867TIP3    H169092   4.774   6.748   3.205  1.6906  1.2074 -0.0607
15867TIP3    H269093   4.722   6.856   3.113 -1.5472  0.7209  1.0855
15868TIP3   OH269094   3.198   2.385  14.274 -0.0196 -0.2482 -0.2563
15868TIP3    H169095   3.160   2.439  14.204  0.5440  0.0484 -0.3359
15868TIP3    H269096   3.277   2.348  14.236  0.5368  0.2795  0.3701
15869TIP3   OH269097   2.019   3.627   2.018 -0.1120  0.0240 -0.1914
15869TIP3    H169098   2.051   3.541   1.995  0.4233  0.1854 -0.0538
15869TIP3    H269099   1.952   3.646   1.953 -0.5639 -0.6873  0.0584
15870TIP3   OH269100   5.906   1.005  14.370 -0.1010  0.9688 -0.2362
15870TIP3    H169101   5.811   0.999  14.358 -0.0161  1.2336 -1.1180
15870TIP3    H269102   5.917   1.058  14.449 -0.6852  3.0005 -1.4601
15871TIP3   OH269103   5.426   1.939  14.738  0.2902  0.2572  0.4389
15871TIP3    H169104   5.337   1.903  14.732  0.8601 -1.1378 -0.0119
15871TIP3    H269105   5.469   1.884  14.803  1.3594 -0.2280 -0.6675
15872TIP3   OH269106   5.405   4.895  10.964  0.2335 -0.5465  0.3132
15872TIP3    H169107   5.476   4.868  11.022  0.3575 -0.5187  0.1738
15872TIP3    H269108   5.430   4.982  10.933 -0.6995  0.2223  1.6365
15873TIP3   OH269109   2.405   1.869   4.669  0.0612 -0.2886  0.6076
15873TIP3    H169110   2.441   1.957   4.663  0.9382 -0.5511  1.4968
15873TIP3    H269111   2.399   1.852   4.764 -2.0997 -0.4118  0.4922
15874TIP3   OH269112   2.770   1.724  13.543  0.6521  0.6034 -0.0657
15874TIP3    H169113   2.862   1.703  13.525  0.2834 -0.1250 -1.2266
15874TIP3    H269114   2.738   1.649  13.594  0.4762  0.4056 -0.4583
15875TIP3   OH269115   5.045   0.983  13.774 -0.6673 -0.1796 -0.5746
15875TIP3    H169116   5.039   0.895  13.813 -1.5361 -0.0821 -0.4589
15875TIP3    H269117   4.973   1.032  13.815 -1.8117 -0.1523 -2.5027
15876TIP3   OH269118   3.062   1.782  14.270  0.1573 -0.0985  0.3514
15876TIP3    H169119   2.969   1.775  14.296 -0.5330 -0.5281 -2.0470
15876TIP3    H269120   3.090   1.691  14.261  0.0427  0.0251 -1.4201
15877TIP3   OH269121   3.384   0.052  13.971  0.2431 -0.0128  0.4133
15877TIP3    H169122   3.391   0.143  14.000 -0.6274  0.6250 -1.2478
15877TIP3    H269123   3.473   0.027  13.947  0.5422  0.2602  1.1802
15878TIP3   OH269124   2.526   0.265   1.599  0.3833  0.3262  0.2673
15878TIP3    H169125   2.530   0.359   1.580 -1.3078  0.0936 -1.5961
15878TIP3    H269126   2.454   0.233   1.545  0.1259 -1.8509  1.7749
15879TIP3   OH269127   0.893   5.146   4.292  0.0316  0.1710 -0.3383
15879TIP3    H169128   0.910   5.213   4.226  1.2630 -0.3505 -0.5632
15879TIP3    H269129   0.976   5.134   4.337  0.3265 -2.3629 -1.3820
15880TIP3   OH269130   1.228   3.461  16.337  0.2708  0.4428 -0.0566
15880TIP3    H169131   1.162   3.461  16.268  2.7442  1.2510 -2.6216
15880TIP3    H269132   1.196   3.525  16.401 -0.9859  1.5553 -1.6991
15881TIP3   OH269133   3.475   1.685  13.419  0.6146  0.4189 -0.5248
15881TIP3    H169134   3.429   1.703  13.337  0.0213 -0.2708 -0.3535
15881TIP3    H269135   3.473   1.768  13.467 -1.0917  0.2433 -0.2207
15882TIP3   OH269136   3.128   5.837  12.403  0.7970 -0.1943  0.3577
15882TIP3    H169137   3.133   5.827  12.307 -0.4875 -2.8041  0.4759
15882TIP3    H269138   3.210   5.799  12.435  1.0905  0.4035  0.3353
15883TIP3   OH269139   1.095   3.152  11.289 -0.2186  0.0603  0.0316
15883TIP3    H169140   1.159   3.222  11.295 -2.3394  2.4161 -2.2152
15883TIP3    H269141   1.140   3.083  11.239  1.3739  0.4989  0.8086
15884TIP3   OH269142   4.485   3.408   3.136  0.2797  0.0737  0.2268
15884TIP3    H169143   4.513   3.404   3.044 -1.2474 -3.3320 -0.2426
15884TIP3    H269144   4.556   3.365   3.184  0.6751  1.0664  0.5450
15885TIP3   OH269145   4.552   1.841  15.957 -0.0759 -0.3621  0.1900
15885TIP3    H169146   4.645   1.818  15.948  0.7190  3.0760 -2.7186
15885TIP3    H269147   4.515   1.826  15.870 -1.6170  0.6065  0.6402
15886TIP3   OH269148   5.793   5.419   0.284 -0.1611  0.1269  0.6146
15886TIP3    H169149   5.868   5.403   0.228  0.4225  0.7321  1.2092
15886TIP3    H269150   5.732   5.347   0.264 -0.4386  0.8775 -1.5550
15887TIP3   OH269151   4.279   3.454  13.963  0.2329  0.6583 -0.1732
15887TIP3    H169152   4.347   3.434  14.028 -2.5140 -0.1659  2.6821
15887TIP3    H269153   4.280   3.378  13.905  0.9264  0.0338  0.6115
15888TIP3   OH269154   2.136   6.521   1.469  0.4297  0.1837  0.2196
15888TIP3    H169155   2.213   6.552   1.422  1.3984  0.4614  1.9002
15888TIP3    H269156   2.090   6.466   1.406  1.3262  1.0189 -1.2228
15889TIP3   OH269157   3.977   6.092   2.749  0.0139 -0.0607 -0.1426
15889TIP3    H169158   3.884   6.108   2.736  0.0689 -0.2716 -0.7819
15889TIP3    H269159   3.982   6.048   2.834 -0.1851  2.9079  1.5464
15890TIP3   OH269160   1.008   5.505   4.772  0.0558 -0.8275 -0.2507
15890TIP3    H169161   0.973   5.459   4.696  1.6162 -1.4479 -0.6234
15890TIP3    H269162   0.973   5.457   4.848 -2.2083  0.3026 -0.4806
15891TIP3   OH269163   3.929   1.647   3.345 -0.0665 -0.3206  0.3628
15891TIP3    H169164   3.923   1.610   3.433 -0.1528  0.0756  0.5253
15891TIP3    H269165   3.980   1.583   3.295  0.5332 -0.2425  0.8680
15892TIP3   OH269166   4.602   6.806  10.718 -0.0492  0.5668 -0.3694
15892TIP3    H169167   4.689   6.807  10.679  0.4682  3.5120  0.5687
15892TIP3    H269168   4.617   6.807  10.812 -1.1088  0.7195 -0.1815
15893TIP3   OH269169   3.661   1.357  11.114 -0.1121  0.3621  0.5833
15893TIP3    H169170   3.570   1.362  11.086 -0.5020  0.2227  1.7801
15893TIP3    H269171   3.669   1.270  11.154  0.5974  0.2952  0.3067
15894TIP3   OH269172   1.406   4.645   0.708 -0.0721 -0.5108  0.5449
15894TIP3    H169173   1.373   4.641   0.798  2.4258 -1.4003  1.4936
15894TIP3    H269174   1.449   4.730   0.702 -1.4414  0.1567 -0.3201
15895TIP3   OH269175   0.793   3.559  16.602 -0.1955 -0.3716 -0.8122
15895TIP3    H169176   0.853   3.547  16.529  0.1161  0.4342 -0.6965
15895TIP3    H269177   0.843   3.531  16.679  0.2547  0.8513 -0.6422
15896TIP3   OH269178   6.187   5.695  12.283  0.6768 -0.3093  0.6351
15896TIP3    H169179   6.177   5.623  12.222  2.7249  0.6426 -0.9166
15896TIP3    H269180   6.225   5.655  12.362  2.1251 -0.8983 -0.3323
15897TIP3   OH269181   1.883   3.516  11.444 -0.0992 -0.7393  0.1660
15897TIP3    H169182   1.855   3.537  11.354  2.0183 -0.8037 -0.5581
15897TIP3    H269183   1.957   3.575  11.460  0.5863 -1.8609  1.2531
15898TIP3   OH269184   4.986   4.161   4.792  0.6498 -0.3756  0.0049
15898TIP3    H169185   4.929   4.213   4.736  1.9196  0.5424 -0.4837
15898TIP3    H269186   4.935   4.149   4.873  0.4319  1.9511  0.2831
15899TIP3   OH269187   1.675   4.126  12.886 -0.0170  0.5317 -0.2807
15899TIP3    H169188   1.595   4.153  12.932 -0.4678 -1.1529  0.0157
15899TIP3    H269189   1.654   4.039  12.852  1.7841 -0.0740  0.0526
15900TIP3   OH269190   1.208   3.745   4.017 -0.3111  0.7633 -0.1482
15900TIP3    H169191   1.188   3.680   3.949 -1.2548 -0.8964  1.6046
15900TIP3    H269192   1.123   3.775   4.047  0.0055  0.1865  1.4214
15901TIP3   OH269193   4.903   0.074   4.676  0.0137 -0.1343 -0.4740
15901TIP3    H169194   4.875   0.161   4.649 -0.9290 -0.1816  0.2890
15901TIP3    H269195   4.971   0.050   4.614 -2.4807 -0.5198 -3.2821
15902TIP3   OH269196   0.623   1.331  12.080 -0.0272 -0.6496  0.9869
15902TIP3    H169197   0.698   1.322  12.138 -0.2326  0.2335  1.4149
15902TIP3    H269198   0.619   1.425  12.060  0.3949 -0.9844 -0.9574
15903TIP3   OH269199   3.878   0.901  15.715 -0.1284  0.6151  0.6955
15903TIP3    H169200   3.876   0.933  15.805  2.6041 -2.6696  2.1635
15903TIP3    H269201   3.812   0.831  15.714  1.2953 -0.7845  0.8929
15904TIP3   OH269202   4.222   0.380  15.065 -0.2761 -0.6157 -0.2080
15904TIP3    H169203   4.229   0.394  14.970  1.3032  1.2740  0.1328
15904TIP3    H269204   4.153   0.440  15.093 -0.9775 -1.4157 -0.1732
15905TIP3   OH269205   3.166   0.234   1.004 -0.2079 -0.3036 -0.0880
15905TIP3    H169206   3.241   0.252   1.061  0.4399 -0.6512 -0.8146
15905TIP3    H269207   3.205   0.197   0.925 -1.1503 -0.4478 -0.4894
15906TIP3   OH269208   0.009   3.324   1.991  0.0128 -0.0794  0.8879
15906TIP3    H169209  -0.037   3.379   1.928 -1.9309 -0.4718  1.9021
15906TIP3    H269210   0.102   3.337   1.971 -0.4719  1.7999 -0.3442
15907TIP3   OH269211   2.530   6.584   2.564  0.6183 -0.8269  0.1642
15907TIP3    H169212   2.555   6.615   2.651 -1.2977  0.7730  0.2206
15907TIP3    H269213   2.482   6.657   2.525 -1.5067 -2.6680 -0.9326
15908TIP3   OH269214   6.794   4.757   6.132  0.1154 -0.0365  0.0338
15908TIP3    H169215   6.802   4.850   6.152  1.4470 -0.1158 -0.0601
15908TIP3    H269216   6.734   4.723   6.198 -2.1114  1.2577 -1.1997
15909TIP3   OH269217   2.761   6.584   1.082 -0.4831 -0.6351 -0.0056
15909TIP3    H169218   2.718   6.565   0.998  1.8162 -0.9557 -1.2135
15909TIP3    H269219   2.782   6.498   1.118  2.8547 -0.6812 -1.6024
15910TIP3   OH269220   4.341   3.140   2.816 -0.3548  0.2155 -0.0240
15910TIP3    H169221   4.386   3.125   2.733 -2.9701 -1.6051 -1.2758
15910TIP3    H269222   4.406   3.120   2.883  0.9936 -1.2923 -1.6854
15911TIP3   OH269223   3.292   1.843  12.906  0.5339  0.5359  0.1151
15911TIP3    H169224   3.344   1.793  12.843 -1.2598 -0.8329 -0.3550
15911TIP3    H269225   3.212   1.866  12.859 -1.3809 -1.5154  2.1140
15912TIP3   OH269226   4.020   2.582   4.234 -0.3089  0.0305  0.0671
15912TIP3    H169227   4.052   2.668   4.261  0.3756 -0.2515  0.1567
15912TIP3    H269228   4.055   2.570   4.146 -0.1166 -0.3078  0.1916
15913TIP3   OH269229   2.717   3.265   0.767 -0.2787  0.3284 -0.3693
15913TIP3    H169230   2.647   3.329   0.754  0.1496  0.6348 -1.2260
15913TIP3    H269231   2.682   3.183   0.731 -1.5700 -0.4702  2.3943
15914TIP3   OH269232   5.096   4.498   2.362 -0.3413 -0.1250 -0.0142
15914TIP3    H169233   5.155   4.559   2.406 -0.7625  0.3129 -0.0481
15914TIP3    H269234   5.154   4.431   2.325  0.0628 -0.1582  0.6613
15915TIP3   OH269235   2.018   5.678  14.679 -0.3847  0.5140  0.4276
15915TIP3    H169236   2.103   5.672  14.637  0.0496 -0.5902  1.4225
15915TIP3    H269237   2.014   5.768  14.712  0.9355  0.2226  1.4522
15916TIP3   OH269238   0.907   4.079  14.961 -0.0731 -0.0727  0.6472
15916TIP3    H169239   0.897   4.112  14.872 -2.3687 -0.6342  0.6449
15916TIP3    H269240   0.872   4.149  15.017  1.3743  0.2869  1.1471
15917TIP3   OH269241   4.217   4.513   1.614 -0.2290  0.0165 -0.3409
15917TIP3    H169242   4.188   4.594   1.573 -0.1899 -0.4709 -1.3514
15917TIP3    H269243   4.217   4.532   1.708 -0.6213  1.0483 -0.5436
15918TIP3   OH269244   5.392   0.248  16.801  0.0902 -0.0568 -0.0926
15918TIP3    H169245   5.332   0.176  16.783 -1.3308  1.2292 -0.6511
15918TIP3    H269246   5.348   0.300  16.867  1.2311  0.1822  0.5037
15919TIP3   OH269247   3.940   3.747  10.944 -0.1635  0.0315  0.3559
15919TIP3    H169248   3.976   3.799  10.872 -1.3572  0.0567 -0.2464
15919TIP3    H269249   4.015   3.729  11.000  0.9347 -0.5180 -1.2024
15920TIP3   OH269250   1.751   3.928   0.805  0.0224  0.0524 -0.3266
15920TIP3    H169251   1.708   4.002   0.761  0.5961  0.5533 -0.0527
15920TIP3    H269252   1.822   3.903   0.746  1.2289  1.1713  0.6079
15921TIP3   OH269253   5.098   5.837  12.997 -0.0297  0.3986 -0.2948
15921TIP3    H169254   5.120   5.749  13.027 -4.8107 -0.4377  1.6013
15921TIP3    H269255   5.025   5.824  12.936 -2.5435  2.9954  1.9008
15922TIP3   OH269256   1.877   2.441  15.435 -0.5469 -0.0018  0.1563
15922TIP3    H169257   1.876   2.537  15.433  1.6486  0.0770 -0.3604
15922TIP3    H269258   1.807   2.417  15.495 -0.5965  1.9665  0.9553
15923TIP3   OH269259   4.320   5.724  10.316 -0.4218 -0.2508 -0.4611
15923TIP3    H169260   4.407   5.722  10.357 -0.7469  0.0420  0.2665
15923TIP3    H269261   4.333   5.777  10.237  0.2364 -0.9013 -0.8011
15924TIP3   OH269262   2.942   1.910   4.076 -0.3607 -0.0614 -0.3084
15924TIP3    H169263   2.910   1.826   4.042 -1.2308 -0.3662  1.1694
15924TIP3    H269264   2.922   1.907   4.170 -1.8957  2.4362 -0.4597
15925TIP3   OH269265   5.234   2.031   1.280  0.2029  0.5824  0.1635
15925TIP3    H169266   5.214   2.018   1.187  1.3469 -0.5051  0.0451
15925TIP3    H269267   5.174   1.972   1.326  1.8289 -1.3866 -0.1025
15926TIP3   OH269268   0.356   1.385  13.285 -0.4410 -0.5290 -0.3710
15926TIP3    H169269   0.347   1.345  13.371 -0.3754 -3.2830 -1.5437
15926TIP3    H269270   0.443   1.425  13.287 -0.7954  0.2590  1.0940
15927TIP3   OH269271   1.360   3.038   3.690 -0.1805  0.7874 -0.2891
15927TIP3    H169272   1.362   3.049   3.595 -0.4184  0.2800 -0.3555
15927TIP3    H269273   1.367   2.943   3.704 -0.2114  0.8521  0.1972
15928TIP3   OH269274   1.379   0.723   3.314  0.5791  0.2383 -0.1505
15928TIP3    H169275   1.333   0.807   3.307 -0.7412 -0.5587 -1.4036
15928TIP3    H269276   1.316   0.664   3.356  1.4876 -0.1697  0.7050
15929TIP3   OH269277   0.281   3.801   6.673 -0.2862 -0.3172  0.8889
15929TIP3    H169278   0.311   3.865   6.737  1.3023 -1.2741  1.1612
15929TIP3    H269279   0.329   3.721   6.694 -1.6010 -1.3867  0.0511
15930TIP3   OH269280   1.048   5.674  12.863 -0.5947  0.7041 -0.0465
15930TIP3    H169281   0.967   5.721  12.884 -0.6787  0.0782  1.1900
15930TIP3    H269282   1.019   5.584  12.847 -0.1852  0.5484  0.0789
15931TIP3   OH269283   6.824   1.888   6.824 -0.3097 -0.0401 -0.2605
15931TIP3    H169284   6.784   1.970   6.796  1.3563  0.3029 -1.7921
15931TIP3    H269285   6.802   1.826   6.754  1.6880  0.1408 -1.0997
15932TIP3   OH269286   2.797   1.486  16.794  0.6411  0.3033  1.0526
15932TIP3    H169287   2.843   1.457  16.872  1.2735  2.4107  1.5391
15932TIP3    H269288   2.860   1.543  16.749 -0.6853  1.4369  0.5436
15933TIP3   OH269289   5.701   1.777   5.307  0.3819  0.1425 -0.1477
15933TIP3    H169290   5.781   1.780   5.360  0.6767 -0.7313 -0.5216
15933TIP3    H269291   5.646   1.846   5.342  1.3676  0.8648  0.0196
15934TIP3   OH269292   5.304   1.479  15.697 -0.0058 -0.2196  0.1490
15934TIP3    H169293   5.249   1.400  15.697 -2.2322  1.2503 -0.5778
15934TIP3    H269294   5.276   1.527  15.775  0.4279  0.4494 -0.0997
15935TIP3   OH269295   6.777   2.975   5.877 -0.1152 -0.0378  0.3585
15935TIP3    H169296   6.735   3.043   5.823  2.2428  1.2037 -0.0686
15935TIP3    H269297   6.830   3.025   5.940  1.6776 -1.4628  0.0493
15936TIP3   OH269298   2.341   1.444  13.195 -0.1165  0.1115 -0.2915
15936TIP3    H169299   2.414   1.439  13.133 -0.2982  0.3307 -0.5279
15936TIP3    H269300   2.352   1.529  13.238 -0.0878  0.0331 -0.1428
15937TIP3   OH269301   2.779   0.556   2.194 -0.1450  0.5097  0.5601
15937TIP3    H169302   2.789   0.613   2.271  1.2999  0.8150  0.1843
15937TIP3    H269303   2.827   0.477   2.216  1.6047  1.1980 -0.5650
15938TIP3   OH269304   4.826   1.084  13.926 -0.3603 -0.8678  0.8191
15938TIP3    H169305   4.771   1.011  13.956 -0.9344 -0.8530 -0.1619
15938TIP3    H269306   4.834   1.141  14.002 -1.7789 -0.8323  0.9563
15939TIP3   OH269307   3.042   4.425   1.380 -0.2828  0.2760  0.2416
15939TIP3    H169308   3.056   4.485   1.453 -1.7807 -1.7740  2.3954
15939TIP3    H269309   3.127   4.383   1.367 -0.1876  0.0215  1.4973
15940TIP3   OH269310   2.355   1.263   1.728  0.7954 -0.0268  0.1916
15940TIP3    H169311   2.339   1.177   1.688  1.9848 -0.0648 -0.2461
15940TIP3    H269312   2.433   1.250   1.782  0.4449  0.5654  0.8684
15941TIP3   OH269313   2.123   0.712  12.648  1.1027 -0.1915 -0.3335
15941TIP3    H169314   2.172   0.654  12.590  2.2467  0.9059 -0.5030
15941TIP3    H269315   2.031   0.695  12.627  1.4654 -0.8258 -1.4690
15942TIP3   OH269316   2.378   3.533  16.116  0.4820  0.0545 -0.0844
15942TIP3    H169317   2.315   3.543  16.046  0.3828  0.5843  0.0743
15942TIP3    H269318   2.450   3.484  16.077 -0.9473 -2.5179  0.3110
15943TIP3   OH269319   6.310   6.469   6.677  0.0440  0.1372 -0.3365
15943TIP3    H169320   6.363   6.404   6.632 -0.9229 -1.5722  0.8917
15943TIP3    H269321   6.358   6.551   6.667  1.5327 -0.8397 -1.5246
15944TIP3   OH269322   3.431   4.035  16.400 -0.1415  0.1510 -0.1243
15944TIP3    H169323   3.452   3.983  16.322 -0.7908 -3.5412  1.9348
15944TIP3    H269324   3.341   4.010  16.421 -0.2641  1.7073  1.3520
15945TIP3   OH269325   5.539   1.114  12.615  0.5652  0.3252 -0.2157
15945TIP3    H169326   5.599   1.113  12.541  2.2178 -1.7135  1.0090
15945TIP3    H269327   5.496   1.028  12.611 -0.1290  0.6271  0.5620
15946TIP3   OH269328   0.305   2.836   0.193  0.1674 -0.5237  0.0918
15946TIP3    H169329   0.291   2.925   0.159  0.0016 -0.4001  0.4712
15946TIP3    H269330   0.376   2.801   0.140  1.1714  0.3286  0.8103
15947TIP3   OH269331   6.515   3.761  12.197  0.1554 -0.1636  0.8154
15947TIP3    H169332   6.512   3.814  12.117 -0.2936 -1.1627  0.1600
15947TIP3    H269333   6.606   3.767  12.226  0.4581 -0.2913 -0.1048
15948TIP3   OH269334   2.982   3.631   3.829  0.1446 -0.8124 -0.4655
15948TIP3    H169335   3.027   3.622   3.746 -0.9033  0.6349 -1.2250
15948TIP3    H269336   2.919   3.702   3.816 -1.1913 -1.6331  1.0500
15949TIP3   OH269337   5.643   3.138   1.295  0.8013  0.3100 -0.0325
15949TIP3    H169338   5.731   3.175   1.287  1.4441 -0.4191  2.5526
15949TIP3    H269339   5.588   3.212   1.322  0.6791  0.6787 -1.2416
15950TIP3   OH269340   0.276   5.094   6.154 -0.2463  0.0503 -0.3794
15950TIP3    H169341   0.356   5.052   6.186  0.2546  1.1475 -0.1373
15950TIP3    H269342   0.305   5.179   6.123 -1.3604  0.5540 -0.0807
15951TIP3   OH269343   4.177   4.060  16.506 -0.0308 -0.2984 -0.3475
15951TIP3    H169344   4.171   3.995  16.437 -2.2944 -1.0598  0.4777
15951TIP3    H269345   4.143   4.016  16.584  1.9436  0.6990  1.1696
15952TIP3   OH269346   0.376   6.141   3.058  0.8421  0.1213  0.3833
15952TIP3    H169347   0.330   6.132   3.141 -1.0174 -0.3360 -0.6449
15952TIP3    H269348   0.441   6.209   3.074  0.6074 -0.0430  2.2287
15953TIP3   OH269349   0.504   2.343   5.100  0.5557  0.1119  0.2440
15953TIP3    H169350   0.526   2.252   5.121  1.0464  0.8173  3.1782
15953TIP3    H269351   0.409   2.348   5.113  0.8653  0.5663  2.7961
15954TIP3   OH269352   3.104   0.870  13.289  0.0107 -0.1485  0.5506
15954TIP3    H169353   3.019   0.828  13.278  0.4149 -0.6286 -1.0049
15954TIP3    H269354   3.083   0.961  13.310 -0.8813 -0.3362  0.5015
15955TIP3   OH269355   4.800   5.678   3.872  0.3396  0.2469 -0.4337
15955TIP3    H169356   4.744   5.608   3.904 -0.2795  0.9040 -0.0297
15955TIP3    H269357   4.750   5.717   3.799  0.5262  0.4693 -0.4425
15956TIP3   OH269358   4.459   4.490  15.091 -0.1021 -0.6189 -0.8319
15956TIP3    H169359   4.547   4.451  15.098 -0.7396 -2.0684 -0.4828
15956TIP3    H269360   4.431   4.502  15.181 -0.2644 -0.1525 -0.9432
15957TIP3   OH269361   0.809   5.801  10.387 -0.4211 -0.2592  0.0804
15957TIP3    H169362   0.784   5.880  10.339 -0.6736 -1.4530 -1.8426
15957TIP3    H269363   0.892   5.824  10.429 -0.7895  1.2126  0.0527
15958TIP3   OH269364   0.835   6.055   1.382  0.0876  0.1279  0.0569
15958TIP3    H169365   0.760   6.097   1.339  0.5689  1.6771  0.6778
15958TIP3    H269366   0.886   6.017   1.311  1.4202  3.5126 -0.9902
15959TIP3   OH269367   2.793   4.529  16.999  0.0466 -0.0829 -0.1155
15959TIP3    H169368   2.884   4.497  17.006 -0.1376 -0.4135  0.9273
15959TIP3    H269369   2.802   4.623  16.983  0.6358  0.6424  3.6144
15960TIP3   OH269370   2.613   6.023   0.044  0.2137 -0.3543  0.4481
15960TIP3    H169371   2.678   6.024  -0.026 -1.0425  0.6297 -0.7446
15960TIP3    H269372   2.555   5.951   0.022  0.0668 -0.3169  0.7122
15961TIP3   OH269373   5.711   1.942  17.268 -0.3277 -0.1335  0.0439
15961TIP3    H169374   5.661   2.003  17.323 -1.8599 -1.6219  0.3876
15961TIP3    H269375   5.699   1.857  17.310 -0.2030 -1.0636 -1.7200
15962TIP3   OH269376   3.962   5.372  16.143  0.4135  0.0274  0.0924
15962TIP3    H169377   3.942   5.400  16.054  1.1013  2.6265  0.6663
15962TIP3    H269378   4.043   5.418  16.165  0.7391 -1.2443  1.7681
15963TIP3   OH269379   4.740   2.669   0.691  0.3578 -0.5377 -0.4311
15963TIP3    H169380   4.724   2.579   0.663 -0.5818 -0.2126 -0.9902
15963TIP3    H269381   4.697   2.675   0.777 -0.3008 -0.3957 -0.7659
15964TIP3   OH269382   5.942   2.119  13.869  0.1604 -0.5080 -0.5057
15964TIP3    H169383   5.934   2.125  13.964  0.2355  0.5258 -0.5521
15964TIP3    H269384   5.945   2.025  13.851 -0.1786 -0.7199  0.4818
15965TIP3   OH269385   3.939   3.650   6.003  0.1155 -0.1366 -0.4238
15965TIP3    H169386   3.866   3.673   6.061 -0.5635 -0.7668 -1.0234
15965TIP3    H269387   3.978   3.735   5.979 -0.6566  0.2249 -0.4139
15966TIP3   OH269388   0.552   3.661   2.953  0.0174  0.0525  0.1905
15966TIP3    H169389   0.606   3.719   3.005  2.1250 -0.9097 -0.8243
15966TIP3    H269390   0.484   3.717   2.916  1.6409  1.7680 -0.3011
15967TIP3   OH269391   0.677   3.382   4.151 -0.0093 -0.2207  0.0686
15967TIP3    H169392   0.655   3.325   4.224 -0.3223  1.9816  1.8064
15967TIP3    H269393   0.617   3.356   4.081 -0.2106 -1.8784  0.8163
15968TIP3   OH269394   6.644   2.862   0.944  0.1156  0.7045  0.1521
15968TIP3    H169395   6.573   2.821   0.993 -0.2266  1.6056  0.4356
15968TIP3    H269396   6.711   2.795   0.938 -0.9503 -0.3410 -0.5460
15969TIP3   OH269397   4.466   0.688   1.898 -0.1100  0.8222 -0.0649
15969TIP3    H169398   4.466   0.662   1.806 -0.1221  2.2329 -0.4822
15969TIP3    H269399   4.378   0.666   1.929 -0.4039  1.1719 -0.6409
15970TIP3   OH269400   1.535   0.351  11.065  0.2420  0.0419  0.3440
15970TIP3    H169401   1.571   0.331  10.978  0.9999  0.5489  0.5286
15970TIP3    H269402   1.475   0.279  11.083  0.1571 -0.1301 -0.5551
15971TIP3   OH269403   1.347   6.701  12.563  0.2007 -0.2642 -0.0637
15971TIP3    H169404   1.330   6.607  12.562 -0.8030 -0.1681  2.4467
15971TIP3    H269405   1.372   6.721  12.473 -2.1546 -2.4465 -1.3371
15972TIP3   OH269406   2.495   4.626  16.552  0.0947 -0.1414 -0.4270
15972TIP3    H169407   2.475   4.556  16.614  1.3582  0.1488  0.3220
15972TIP3    H269408   2.446   4.702  16.584  1.5155  0.2935  0.8452
15973TIP3   OH269409   0.963   0.797   2.080  0.3450  0.3080 -0.2396
15973TIP3    H169410   0.980   0.891   2.092 -0.1509  0.2876  0.6909
15973TIP3    H269411   1.004   0.776   1.996  2.1669  0.9411  0.4369
15974TIP3   OH269412   4.455   1.217   3.676  0.1736  0.0765  0.2661
15974TIP3    H169413   4.404   1.150   3.721 -0.0300 -1.7968 -2.5328
15974TIP3    H269414   4.546   1.193   3.692  0.1559  0.6646  1.3497
15975TIP3   OH269415   5.400   0.674  17.218  0.1799 -0.5213  0.1085
15975TIP3    H169416   5.484   0.718  17.215  0.5319 -1.1963 -0.2512
15975TIP3    H269417   5.421   0.580  17.213 -0.5051 -0.7825  1.6465
15976TIP3   OH269418   0.059   5.910  15.485 -0.2215  0.3151  0.1801
15976TIP3    H169419   0.147   5.948  15.492 -0.8590  2.0013 -0.4684
15976TIP3    H269420   0.007   5.958  15.549 -0.7915 -0.3356  0.2170
15977TIP3   OH269421   1.078   6.465   2.417  0.3214  0.7538  0.1284
15977TIP3    H169422   1.143   6.439   2.352 -0.4293  0.7870 -0.6527
15977TIP3    H269423   1.069   6.389   2.475 -0.5418 -0.0945 -1.0707
15978TIP3   OH269424   4.911   1.545   5.407  0.4342 -0.2426  0.1823
15978TIP3    H169425   4.992   1.594   5.421  0.5917 -0.9210  2.0000
15978TIP3    H269426   4.940   1.463   5.368  0.1172  1.1888 -3.3893
15979TIP3   OH269427   2.621   1.136  11.697  0.0117  0.0934  0.6021
15979TIP3    H169428   2.543   1.166  11.742  0.4996 -0.2971  1.7507
15979TIP3    H269429   2.693   1.180  11.742  0.6002 -1.2883  1.0683
15980TIP3   OH269430   4.781   5.455   2.125  0.0741  0.0750  0.5640
15980TIP3    H169431   4.725   5.473   2.050  0.4380  1.5330  0.6089
15980TIP3    H269432   4.870   5.460   2.090  0.2317  0.3782  0.9966
15981TIP3   OH269433   3.624   3.094   0.698  0.0694 -0.0543  0.4717
15981TIP3    H169434   3.643   3.072   0.607 -1.9104  1.1888 -0.2967
15981TIP3    H269435   3.532   3.118   0.699  0.4542  1.6887  2.4591
15982TIP3   OH269436   2.584   4.103   4.387 -0.0660  0.5100  0.8111
15982TIP3    H169437   2.564   4.050   4.464 -0.3831  1.4000  1.3636
15982TIP3    H269438   2.675   4.129   4.399 -0.1568  0.7636  0.9632
15983TIP3   OH269439   0.878   0.353  15.478 -0.0827  0.1603 -0.0018
15983TIP3    H169440   0.855   0.377  15.568  0.5721 -0.5552  0.3668
15983TIP3    H269441   0.973   0.349  15.478 -0.0024  1.3481 -1.0522
15984TIP3   OH269442   1.466   1.178  16.575 -0.5142 -0.1489  0.2831
15984TIP3    H169443   1.457   1.273  16.582 -3.6038 -0.3329  0.0727
15984TIP3    H269444   1.542   1.158  16.631 -0.5052  2.2988  1.3111
15985TIP3   OH269445   2.642   1.544  14.862  0.1909 -0.1737  0.1429
15985TIP3    H169446   2.552   1.513  14.847 -0.6012  1.0498  2.0011
15985TIP3    H269447   2.695   1.464  14.861 -1.1856 -1.1327  0.7561
15986TIP3   OH269448   1.385   3.912   5.670 -0.0345  0.0021 -0.0849
15986TIP3    H169449   1.304   3.923   5.720 -1.2362 -2.6201 -1.2691
15986TIP3    H269450   1.416   3.825   5.693 -0.0041 -0.8326 -2.9493
15987TIP3   OH269451   2.866   4.625  14.863 -0.3551  0.8023  0.3724
15987TIP3    H169452   2.930   4.630  14.792  0.1470  1.7318  0.8808
15987TIP3    H269453   2.898   4.553  14.917 -1.3842 -0.7106 -0.9297
15988TIP3   OH269454   3.091   0.189  14.456 -0.0071  0.2905  0.0719
15988TIP3    H169455   3.173   0.237  14.446  0.3392 -0.2829  0.0936
15988TIP3    H269456   3.088   0.132  14.379 -1.3071  1.6307 -0.9123
15989TIP3   OH269457   5.691   5.811   4.670 -0.0761 -0.1130 -0.1560
15989TIP3    H169458   5.656   5.834   4.583  1.9968 -0.6140 -1.1973
15989TIP3    H269459   5.665   5.720   4.683  0.9827 -0.5596 -1.0265
15990TIP3   OH269460   3.939   2.796  14.498 -0.0354  0.2634  0.0817
15990TIP3    H169461   3.949   2.875  14.552  0.3445  0.5227 -0.3584
15990TIP3    H269462   3.890   2.735  14.553 -2.6479  1.7103 -0.4415
15991TIP3   OH269463   6.671   2.978  10.690 -0.4258  0.0415 -0.0568
15991TIP3    H169464   6.754   3.027  10.690  0.0718 -0.7711 -0.6841
15991TIP3    H269465   6.666   2.940  10.778 -0.2819  0.3427  0.0836
15992TIP3   OH269466   1.559   3.820  12.335  0.3959 -0.2958 -0.5088
15992TIP3    H169467   1.484   3.770  12.367  0.6150  0.8482  2.0267
15992TIP3    H269468   1.519   3.894  12.288  0.0423 -1.5491 -2.2440
15993TIP3   OH269469   5.763   6.131  15.270 -0.5919  0.1385  0.2366
15993TIP3    H169470   5.790   6.098  15.356 -0.4126 -0.4283 -0.0288
15993TIP3    H269471   5.699   6.066  15.239  0.5108 -0.5146 -0.7275
15994TIP3   OH269472   2.128   4.608  13.166  0.0939 -0.0706  0.3811
15994TIP3    H169473   2.139   4.697  13.199  0.3162  0.2653 -0.5693
15994TIP3    H269474   2.180   4.606  13.086  1.3798 -1.5121  1.1751
15995TIP3   OH269475   3.736   0.193   1.628  0.4224 -0.2718  0.1732
15995TIP3    H169476   3.795   0.244   1.683  0.2181 -0.0407  0.1857
15995TIP3    H269477   3.648   0.218   1.659  0.3270 -1.5966  1.0427
15996TIP3   OH269478   1.062   2.724   0.404  0.0997 -0.2111  0.0470
15996TIP3    H169479   0.983   2.765   0.438  0.1257  0.6866 -0.9299
15996TIP3    H269480   1.132   2.753   0.462 -0.2761 -1.0381  0.9367
15997TIP3   OH269481   4.836   0.882  13.516  0.4246  0.0739  0.2091
15997TIP3    H169482   4.777   0.892  13.442 -0.3763 -0.1718  0.7957
15997TIP3    H269483   4.825   0.963  13.567  0.2146 -0.1765  0.5730
15998TIP3   OH269484   5.212   0.583   1.496 -0.8112 -0.2998 -0.1524
15998TIP3    H169485   5.283   0.518   1.488 -2.4924 -2.3365  0.4774
15998TIP3    H269486   5.138   0.543   1.450 -1.8093  1.4216 -0.1305
15999TIP3   OH269487   0.870   3.048  11.693 -0.7907 -0.6852 -0.1072
15999TIP3    H169488   0.893   3.108  11.622 -0.6164 -2.7735 -1.9494
15999TIP3    H269489   0.780   3.024  11.675 -1.3120  0.0234  1.4149
16000TIP3   OH269490   1.517   6.652   4.389  0.6802  0.0181  0.0459
16000TIP3    H169491   1.457   6.600   4.335  0.2608 -1.5396  1.9006
16000TIP3    H269492   1.487   6.636   4.479  0.8693  3.1017  0.7549
16001TIP3   OH269493   4.880   0.035  16.923  0.6071  0.2258  0.3117
16001TIP3    H169494   4.883   0.121  16.881  0.6582  0.8792  1.5986
16001TIP3    H269495   4.898  -0.027  16.853  2.6517  1.3926 -0.2670
16002TIP3   OH269496   6.736   5.959   1.742  0.7322 -0.1232 -0.4339
16002TIP3    H169497   6.753   5.951   1.835 -2.1933  1.0953  0.3198
16002TIP3    H269498   6.762   6.049   1.720  0.3500 -0.0290 -0.5087
16003TIP3   OH269499   1.458   2.045  11.724  0.2265  0.4466 -0.1427
16003TIP3    H169500   1.381   2.031  11.778  1.5417 -0.4692  1.6092
16003TIP3    H269501   1.493   2.129  11.753  0.2195  0.5915 -0.5396
16004TIP3   OH269502   2.876   1.930  11.962 -0.2916 -0.3554 -0.3160
16004TIP3    H169503   2.967   1.946  11.935 -0.2823 -1.1771 -0.8300
16004TIP3    H269504   2.855   2.002  12.021  0.0683  0.8894 -1.6706
16005TIP3   OH269505   1.413   1.490  13.695  0.2746  1.1043 -0.1263
16005TIP3    H169506   1.429   1.458  13.784 -0.0876  1.0311 -0.0853
16005TIP3    H269507   1.459   1.574  13.691  0.9983  0.7176 -0.1406
16006TIP3   OH269508   6.082   1.532  16.086  0.3596 -0.0424  0.3154
16006TIP3    H169509   5.988   1.525  16.068  0.8177 -0.8906 -2.1446
16006TIP3    H269510   6.107   1.445  16.117  0.7896 -0.7986 -1.9272
16007TIP3   OH269511   0.703   5.926   2.991  0.4496 -0.6430 -0.2036
16007TIP3    H169512   0.701   6.021   2.986  1.4263 -0.6030  0.0442
16007TIP3    H269513   0.616   5.899   2.959 -0.0465  0.3388  0.2741
16008TIP3   OH269514   1.936   1.394  14.433  0.5319 -0.2839 -0.0981
16008TIP3    H169515   1.859   1.340  14.452  1.1146 -1.2254 -0.3530
16008TIP3    H269516   1.971   1.418  14.519 -0.3165  0.5852  0.0329
16009TIP3   OH269517   2.282   6.605  12.866 -0.6637 -0.2086 -0.2210
16009TIP3    H169518   2.203   6.555  12.884 -0.9849  0.9543  2.0614
16009TIP3    H269519   2.260   6.695  12.892  1.4139  0.1241  0.6095
16010TIP3   OH269520   1.267   3.630   5.217  0.0567  0.2342  0.1711
16010TIP3    H169521   1.257   3.703   5.157  2.1095  0.2595 -0.2071
16010TIP3    H269522   1.215   3.654   5.293 -0.4392  1.4212 -0.5189
16011TIP3   OH269523   3.813   4.227   2.250 -0.3654  0.8407  0.0412
16011TIP3    H169524   3.766   4.168   2.191  1.5888  1.5391 -2.3763
16011TIP3    H269525   3.893   4.179   2.272  0.6164  1.9843 -0.8770
16012TIP3   OH269526   3.256   1.547  13.873 -0.0250 -0.1126  0.0908
16012TIP3    H169527   3.239   1.453  13.872  1.3045 -0.3697  0.2218
16012TIP3    H269528   3.211   1.580  13.795 -0.5046 -0.8477  0.0436
16013TIP3   OH269529   6.232   2.182   6.771  0.0436 -0.1355 -0.6414
16013TIP3    H169530   6.143   2.175   6.736  0.2149 -0.6771 -0.9748
16013TIP3    H269531   6.259   2.271   6.750 -0.1598 -0.1935 -1.1634
16014TIP3   OH269532   5.620   2.647  15.605  0.9289  0.4939 -0.2724
16014TIP3    H169533   5.690   2.698  15.647  0.8912  0.3295 -0.0071
16014TIP3    H269534   5.540   2.696  15.625  0.9311  0.5068 -0.2951
16015TIP3   OH269535   3.319   0.688   1.582 -0.2930  0.3902  0.1634
16015TIP3    H169536   3.360   0.628   1.520 -1.0087  0.1283 -0.0677
16015TIP3    H269537   3.251   0.635   1.625 -0.7681  0.9662  0.1336
16016TIP3   OH269538   1.881   0.554  16.533  0.1004  0.2565  0.4440
16016TIP3    H169539   1.831   0.622  16.579  0.6471 -0.2816  1.9169
16016TIP3    H269540   1.941   0.603  16.477  0.0713  0.9894  1.0248
16017TIP3   OH269541   3.353   1.346   3.848  0.0087 -0.5986 -0.2039
16017TIP3    H169542   3.409   1.268   3.842 -0.1082 -0.8651  1.6481
16017TIP3    H269543   3.331   1.366   3.757  3.0047 -0.5572 -1.0366
16018TIP3   OH269544   5.774   2.167  15.353 -0.4975  0.2887 -0.8950
16018TIP3    H169545   5.715   2.220  15.407 -1.2387  0.3810 -1.7639
16018TIP3    H269546   5.828   2.230  15.306 -0.3536  0.2333 -0.8028
16019TIP3   OH269547   5.442   4.219  14.585  0.0207  0.1580  0.1386
16019TIP3    H169548   5.535   4.210  14.606  0.1592  0.7278 -0.1723
16019TIP3    H269549   5.397   4.209  14.668  0.6355  3.8523  1.1254
16020TIP3   OH269550   4.672   4.107  13.627 -0.4883  0.1194  0.3531
16020TIP3    H169551   4.746   4.143  13.579 -0.6890  2.0772  1.3949
16020TIP3    H269552   4.705   4.026  13.666  0.9653  0.7033  0.3803
16021TIP3   OH269553   6.077   5.184  16.822 -0.2272 -0.6539 -0.2591
16021TIP3    H169554   6.092   5.224  16.908  0.0881  0.2122 -0.7097
16021TIP3    H269555   6.003   5.126  16.836 -0.6451  0.0258  0.4343
16022TIP3   OH269556   3.066   0.407  16.678  0.0155  0.8984  0.0764
16022TIP3    H169557   3.129   0.411  16.605  1.0646  0.2844  0.9140
16022TIP3    H269558   3.014   0.328  16.660  0.7457  0.3432  0.3434
16023TIP3   OH269559   0.370   5.098  11.301 -0.1392  0.1610  0.5654
16023TIP3    H169560   0.352   5.032  11.233 -0.5379  0.2081  0.6216
16023TIP3    H269561   0.293   5.095  11.358 -0.2486  0.8151  0.4559
16024TIP3   OH269562   6.772   3.950  16.027  0.0909  0.1511  0.4522
16024TIP3    H169563   6.681   3.922  16.035 -0.1927  0.7101 -0.6923
16024TIP3    H269564   6.773   4.038  16.065  0.2095  0.0422  0.7022
16025TIP3   OH269565   4.073   5.967   5.002 -0.2927  0.0132 -0.0825
16025TIP3    H169566   3.998   6.026   5.000 -1.4804 -1.4596 -1.2425
16025TIP3    H269567   4.148   6.022   4.981 -0.8839  1.6633  1.7813
16026TIP3   OH269568   6.253   1.480  14.078 -0.1563  0.1901 -0.3826
16026TIP3    H169569   6.162   1.500  14.056 -0.4723 -2.4484 -1.8967
16026TIP3    H269570   6.252   1.464  14.173 -1.2368  0.2378 -0.3748
16027TIP3   OH269571   0.690   5.514  12.564 -0.2335  0.1515 -0.1857
16027TIP3    H169572   0.630   5.565  12.619  1.0046  1.1159  0.3317
16027TIP3    H269573   0.662   5.533  12.474 -0.7156  0.5717  0.0472
16028TIP3   OH269574   5.647   4.921   3.715 -0.0474  0.0459 -0.1827
16028TIP3    H169575   5.704   4.941   3.641  0.9664 -0.7796  0.3329
16028TIP3    H269576   5.599   4.842   3.688 -0.3667  0.2852 -0.3152
16029TIP3   OH269577   5.706   0.398   6.103 -0.0742 -0.4608  0.6707
16029TIP3    H169578   5.631   0.378   6.047 -0.3229 -0.1800  0.9010
16029TIP3    H269579   5.667   0.427   6.186  0.2752 -1.9383  1.3993
16030TIP3   OH269580   6.739   4.977   2.986  0.1732  0.2827 -0.0202
16030TIP3    H169581   6.803   5.030   3.033 -1.6473  0.5734  2.3193
16030TIP3    H269582   6.685   4.938   3.055 -1.9566 -0.2321 -1.8698
16031TIP3   OH269583   2.837   0.300  15.764 -0.4877  0.4356  0.0676
16031TIP3    H169584   2.855   0.256  15.681 -0.6385  1.3772 -0.4793
16031TIP3    H269585   2.921   0.299  15.810 -0.0301  1.1389 -0.7049
16032TIP3   OH269586   5.178   1.447   2.414  0.4963 -0.3355  0.5945
16032TIP3    H169587   5.119   1.415   2.482 -0.9244  0.2137 -0.3487
16032TIP3    H269588   5.238   1.374   2.398 -0.0327 -0.9685  1.4460
16033TIP3   OH269589   5.714   0.432  11.387 -0.4380 -1.0951 -0.5133
16033TIP3    H169590   5.763   0.411  11.308 -1.3633 -0.0912 -1.3808
16033TIP3    H269591   5.626   0.398  11.371 -0.4073 -1.6950  0.4778
16034TIP3   OH269592   5.144   1.667  13.555 -0.5344 -0.1535  0.5664
16034TIP3    H169593   5.048   1.667  13.558 -0.5216 -0.4310  1.7463
16034TIP3    H269594   5.169   1.750  13.596 -0.2641  0.4205 -0.7125
16035TIP3   OH269595   5.699   1.653  15.793 -0.1674 -0.2417 -0.2381
16035TIP3    H169596   5.688   1.579  15.854 -1.9627 -0.2182 -0.4547
16035TIP3    H269597   5.632   1.637  15.725 -0.7922  1.7156 -0.1386
16036TIP3   OH269598   3.340   5.453  15.404  0.6753  0.3132 -0.0465
16036TIP3    H169599   3.358   5.387  15.337 -1.0137  0.2646 -0.4975
16036TIP3    H269600   3.410   5.518  15.394  0.9985 -0.1934 -1.1807
16037TIP3   OH269601   4.493   6.128  12.107 -0.3348 -0.0355  0.4295
16037TIP3    H169602   4.497   6.221  12.083 -0.1040  0.1647  1.2209
16037TIP3    H269603   4.404   6.116  12.141 -0.1150  0.0762  1.0461
16038TIP3   OH269604   0.635   5.838  10.649 -0.1647 -0.7229 -0.3515
16038TIP3    H169605   0.697   5.911  10.647 -0.7605 -0.0490  2.1123
16038TIP3    H269606   0.650   5.792  10.567  0.8576  1.6450 -1.6038
16039TIP3   OH269607   4.554   6.503   3.681  0.2813  0.3791 -0.4277
16039TIP3    H169608   4.599   6.426   3.717 -0.6006  0.1534  0.2323
16039TIP3    H269609   4.625   6.561   3.654  0.9685 -0.4662 -0.5180
16040TIP3   OH269610   6.009   1.847   6.022 -0.8243  0.3401  0.1791
16040TIP3    H169611   5.986   1.768   5.973 -0.2269 -1.2467  2.2852
16040TIP3    H269612   5.932   1.864   6.077 -1.0952  1.4718 -0.5310
16041TIP3   OH269613   5.714   1.557   2.971  0.3461  0.2823 -0.2698
16041TIP3    H169614   5.803   1.525   2.983  1.2956  2.4879 -0.9392
16041TIP3    H269615   5.697   1.547   2.877 -1.1549 -2.4735  0.1853
16042TIP3   OH269616   2.602   6.005   0.871  0.4477 -0.0766  0.5193
16042TIP3    H169617   2.646   5.933   0.916  1.3917  0.5152  0.5755
16042TIP3    H269618   2.614   5.987   0.778  1.6273  0.5399  0.5291
16043TIP3   OH269619   0.420   4.276   3.923 -0.0020  0.7424 -0.6043
16043TIP3    H169620   0.337   4.300   3.966 -0.0884 -0.9025  0.2344
16043TIP3    H269621   0.484   4.274   3.994  0.7981  2.0457 -1.2564
16044TIP3   OH269622   4.148   6.340   0.220  0.3684 -0.2042 -0.2375
16044TIP3    H169623   4.060   6.311   0.244  0.9770 -0.4755  1.8875
16044TIP3    H269624   4.154   6.324   0.126 -2.1889  0.7787 -0.6559
16045TIP3   OH269625   6.397   2.346   2.985 -0.2248  0.3779  0.4122
16045TIP3    H169626   6.405   2.311   3.074  1.2710  0.1191  0.1946
16045TIP3    H269627   6.460   2.296   2.933 -0.0782  1.4624 -0.4977
16046TIP3   OH269628   1.260   5.799  14.451 -0.0961  0.1825  0.1778
16046TIP3    H169629   1.200   5.853  14.399  1.0831  2.4144  0.9989
16046TIP3    H269630   1.204   5.729  14.487 -1.2611 -0.4693 -2.6280
16047TIP3   OH269631   2.870   0.673  16.669 -0.3220  0.0543  0.0684
16047TIP3    H169632   2.852   0.647  16.578  1.0815 -3.4495  0.6433
16047TIP3    H269633   2.961   0.702  16.667 -0.7251  1.3782  0.1490
16048TIP3   OH269634   2.080   2.897   1.113 -0.3677 -0.0251 -0.0058
16048TIP3    H169635   2.061   2.846   1.191  0.8746  1.0080  1.0064
16048TIP3    H269636   2.167   2.868   1.086 -0.6712 -0.1744 -0.8649
16049TIP3   OH269637   6.814   4.433   5.248  0.3877  0.5225 -0.0182
16049TIP3    H169638   6.849   4.487   5.178  1.5259  1.5233  1.2804
16049TIP3    H269639   6.772   4.494   5.308 -3.0834 -0.5423 -1.0994
16050TIP3   OH269640   1.993   4.929   1.309  0.2862 -0.0026 -0.0645
16050TIP3    H169641   2.088   4.931   1.304  0.2721 -1.3821 -1.4116
16050TIP3    H269642   1.964   4.910   1.220 -1.1493 -1.6397  0.6795
16051TIP3   OH269643   2.898   6.443  15.991  0.4172 -0.4172 -0.5642
16051TIP3    H169644   2.984   6.459  16.029  0.4287 -1.8881  0.1169
16051TIP3    H269645   2.903   6.354  15.957 -0.7640 -0.4496 -0.6974
16052TIP3   OH269646   4.311   3.002   1.179 -0.0378 -0.3453  0.3140
16052TIP3    H169647   4.392   3.052   1.187 -0.4715  0.6304 -1.0577
16052TIP3    H269648   4.289   2.978   1.269  0.7434  1.0405  0.9080
16053TIP3   OH269649   5.317   1.955  11.244  0.6512 -0.1335 -0.0035
16053TIP3    H169650   5.326   1.981  11.335  2.6355 -0.6541 -0.0165
16053TIP3    H269651   5.281   1.866  11.247 -1.5404  0.7017  0.1612
16054TIP3   OH269652   0.723   2.100   1.270  0.7001  0.4480 -0.1532
16054TIP3    H169653   0.755   2.016   1.303 -0.2826 -0.2072 -0.8085
16054TIP3    H269654   0.770   2.113   1.187  1.4424  0.9516  0.3344
16055TIP3   OH269655   3.648   3.546  14.293 -0.5816 -0.6323 -0.0954
16055TIP3    H169656   3.600   3.629  14.289 -1.3223 -0.9664  1.2323
16055TIP3    H269657   3.583   3.483  14.324  0.7683 -1.0269  2.1508
16056TIP3   OH269658   5.568   4.044  16.124 -0.4114 -0.1322  0.3196
16056TIP3    H169659   5.559   3.952  16.098  1.6894  0.0086 -1.1060
16056TIP3    H269660   5.478   4.073  16.140 -1.4408 -1.6174 -2.1848
16057TIP3   OH269661   4.489   6.327  13.355  0.8263 -0.0725 -0.1404
16057TIP3    H169662   4.516   6.287  13.438  0.4547 -0.1985 -0.0807
16057TIP3    H269663   4.477   6.420  13.377 -0.7538 -0.3556  0.3170
16058TIP3   OH269664   4.270   3.978   1.363  0.4888  0.2526  0.6438
16058TIP3    H169665   4.246   4.066   1.391  1.0672  0.9969 -1.0764
16058TIP3    H269666   4.195   3.948   1.311  1.3802  0.8385 -1.0430
16059TIP3   OH269667   0.470   3.931  14.100  0.1242 -0.6183 -0.3238
16059TIP3    H169668   0.470   3.966  14.189 -1.7351  1.8463 -1.2024
16059TIP3    H269669   0.524   3.992  14.050 -1.6305  0.0419 -1.5161
16060TIP3   OH269670   2.209   6.414   1.078  0.4046  0.5888 -0.2319
16060TIP3    H169671   2.225   6.448   1.166 -0.2535 -0.0522  0.1433
16060TIP3    H269672   2.245   6.325   1.079 -1.9955 -0.4618  0.2762
16061TIP3   OH269673   3.780   4.975   4.300  0.0871  0.5218 -1.1724
16061TIP3    H169674   3.803   4.884   4.280 -1.0706 -0.8904  2.9653
16061TIP3    H269675   3.863   5.023   4.292  1.1049 -1.2128 -1.6962
16062TIP3   OH269676   5.574   0.961   5.016  0.1068 -0.4937 -0.1545
16062TIP3    H169677   5.669   0.956   5.005  0.1532 -0.0407  0.0244
16062TIP3    H269678   5.550   1.047   4.981 -0.2333 -0.5914 -0.1666
16063TIP3   OH269679   2.046   0.150  13.210  0.1611 -0.8667  0.2805
16063TIP3    H169680   2.073   0.162  13.118  0.0363 -2.3474  0.0247
16063TIP3    H269681   2.046   0.239  13.246 -0.4284 -0.1611 -1.3257
16064TIP3   OH269682   1.332   4.928  12.663  0.1518 -0.3876  0.0867
16064TIP3    H169683   1.425   4.934  12.638  0.2757 -2.5324 -0.1856
16064TIP3    H269684   1.318   4.835  12.680 -2.1725 -0.2514 -0.6991
16065TIP3   OH269685   6.438   2.074   5.997  0.6268  0.0590  0.1059
16065TIP3    H169686   6.498   2.098   5.927 -0.1653 -0.9740 -0.9801
16065TIP3    H269687   6.488   2.084   6.078  1.7272  0.7739 -0.6505
16066TIP3   OH269688   0.479   6.567  16.464 -0.0214 -0.2455 -0.1130
16066TIP3    H169689   0.439   6.654  16.457  0.9413  0.2271  0.0393
16066TIP3    H269690   0.573   6.583  16.450  0.2768 -1.1398  0.7865
16067TIP3   OH269691   6.288   3.670   4.474  0.8559  0.5312 -0.0706
16067TIP3    H169692   6.236   3.751   4.476  0.0231 -0.0160  2.0366
16067TIP3    H269693   6.347   3.678   4.548 -0.7223 -1.6921  1.5413
16068TIP3   OH269694   4.015   5.121  15.213 -0.1835 -0.0322 -0.0877
16068TIP3    H169695   4.004   5.215  15.198  0.2488 -0.1139 -0.9510
16068TIP3    H269696   3.991   5.109  15.305 -0.5218  0.8745 -0.0454
16069TIP3   OH269697   1.657   5.478   4.867 -0.2834 -0.2088 -0.0916
16069TIP3    H169698   1.726   5.531   4.907  1.3591 -1.6087 -0.9282
16069TIP3    H269699   1.667   5.494   4.773 -0.6553 -0.9392 -0.2569
16070TIP3   OH269700   5.496   2.841  14.286  0.3085  0.3366  0.6755
16070TIP3    H169701   5.538   2.832  14.372  0.3691 -0.2150  0.5932
16070TIP3    H269702   5.487   2.936  14.273  0.3377  0.4252  1.2704
16071TIP3   OH269703   3.117   0.159   0.622 -0.9850 -1.0294  0.9339
16071TIP3    H169704   3.190   0.217   0.644 -0.4846 -2.3178  3.0697
16071TIP3    H269705   3.087   0.188   0.536  2.7216 -1.0674 -0.5798
16072TIP3   OH269706   5.988   0.717  11.018  0.5238  0.1995  0.3467
16072TIP3    H169707   5.935   0.651  10.973 -1.0642  1.1737  0.6839
16072TIP3    H269708   5.957   0.801  10.982  1.2169  0.8504  1.2138
16073TIP3   OH269709   2.947   5.503   2.109 -0.1057  0.2775 -0.3230
16073TIP3    H169710   3.032   5.511   2.066 -0.0541  0.0450 -0.2659
16073TIP3    H269711   2.899   5.582   2.083  0.0699  0.3313 -0.4830
16074TIP3   OH269712   0.769   4.487  13.165 -0.1998  0.5507  0.0188
16074TIP3    H169713   0.716   4.542  13.224 -1.9575  0.4087 -1.3308
16074TIP3    H269714   0.718   4.406  13.156  0.5090  0.1937 -0.9526
16075TIP3   OH269715   0.623   1.687  16.023 -0.4591 -0.2787  0.0220
16075TIP3    H169716   0.528   1.682  16.014 -0.5543  0.1177  0.7701
16075TIP3    H269717   0.645   1.619  16.087 -0.1544 -0.8325 -0.6518
16076TIP3   OH269718   2.981   1.862  11.407 -0.0811  0.4278  0.1855
16076TIP3    H169719   2.902   1.850  11.354  0.2210 -0.4147 -0.0894
16076TIP3    H269720   2.961   1.938  11.462 -0.8726  0.5615 -0.2592
16077TIP3   OH269721   1.311   3.717  13.742  0.1299 -0.1780  0.2577
16077TIP3    H169722   1.308   3.764  13.825 -2.0779 -1.3380  0.9035
16077TIP3    H269723   1.326   3.625  13.767  1.3404 -0.2968 -0.7858
16078TIP3   OH269724   1.563   4.313   2.765  0.1650 -0.1881 -0.9911
16078TIP3    H169725   1.567   4.221   2.791  0.1175 -0.1083 -0.6990
16078TIP3    H269726   1.531   4.359   2.843 -0.1159  0.0362 -1.2334
16079TIP3   OH269727   1.320   5.437  11.202 -0.2636 -0.2616 -0.4800
16079TIP3    H169728   1.288   5.516  11.158 -0.9006  0.1816  0.7393
16079TIP3    H269729   1.402   5.465  11.244 -0.6761 -0.1408  0.2553
16080TIP3   OH269730   1.155   3.403   2.741  0.1902 -0.4456 -0.7002
16080TIP3    H169731   1.235   3.350   2.744 -0.8533 -2.1260 -1.2477
16080TIP3    H269732   1.093   3.356   2.796 -0.2258  1.2719  0.3812
16081TIP3   OH269733   4.627   2.732  13.513 -0.1200  0.5133 -0.4151
16081TIP3    H169734   4.584   2.647  13.518 -1.6878  1.2528 -0.4757
16081TIP3    H269735   4.622   2.755  13.420  0.1915  0.7253 -0.3808
16082TIP3   OH269736   3.109   6.170   1.252  0.1458  0.0136 -0.4600
16082TIP3    H169737   3.137   6.259   1.275  0.1719  0.1969 -1.1896
16082TIP3    H269738   3.134   6.160   1.161  1.9633 -1.4511  0.1371
16083TIP3   OH269739   5.431   2.762   1.161 -0.0012 -0.1509 -0.3088
16083TIP3    H169740   5.351   2.754   1.212 -1.1299  2.1679 -1.6004
16083TIP3    H269741   5.451   2.672   1.133 -2.4472 -0.7199 -0.3995
16084TIP3   OH269742   6.750   3.565   6.573 -0.7675 -0.5217  0.6017
16084TIP3    H169743   6.728   3.643   6.623 -1.9293 -1.1464  1.1136
16084TIP3    H269744   6.838   3.541   6.604 -1.0029 -0.2465  1.5300
16085TIP3   OH269745   5.422   2.556  16.530 -0.4142 -0.0071  0.2634
16085TIP3    H169746   5.459   2.517  16.451 -2.3262  1.3977 -1.4449
16085TIP3    H269747   5.457   2.503  16.602  1.8401 -1.0090 -1.4398
16086TIP3   OH269748   5.653   4.876  14.293 -0.7674 -0.5403 -0.5393
16086TIP3    H169749   5.573   4.929  14.288 -0.6400 -0.1960  0.6903
16086TIP3    H269750   5.634   4.811  14.360 -0.2532 -0.8801 -0.7182
16087TIP3   OH269751   2.661   3.033  14.348  0.1842  0.3894 -0.0602
16087TIP3    H169752   2.720   3.041  14.424  0.7011  3.1300 -0.6403
16087TIP3    H269753   2.623   2.945  14.356  1.8673 -0.2252  2.1478
16088TIP3   OH269754   5.379   1.038  17.061  0.1199  0.2408 -0.1836
16088TIP3    H169755   5.424   1.010  17.141  2.6413  1.0927 -1.1980
16088TIP3    H269756   5.426   1.117  17.034 -0.5198 -0.1550 -2.6472
16089TIP3   OH269757   4.719   0.746   4.953  0.1551  0.3823  0.6584
16089TIP3    H169758   4.730   0.749   4.858 -1.2173  1.5355  0.5045
16089TIP3    H269759   4.743   0.833   4.984  1.9678 -0.3939  1.5737
16090TIP3   OH269760   3.277   4.025  14.059 -0.0039  0.1812 -0.0231
16090TIP3    H169761   3.243   3.974  14.132  0.8716 -1.3952 -0.6633
16090TIP3    H269762   3.253   4.116  14.079 -0.6156 -0.3312  1.7177
16091TIP3   OH269763   3.667   3.718  15.719  0.3919  0.0854 -0.6511
16091TIP3    H169764   3.698   3.804  15.689 -1.7829  0.2022 -2.9411
16091TIP3    H269765   3.597   3.738  15.780  0.4337 -0.0774 -0.5497
16092TIP3   OH269766   1.827   2.055   5.177 -0.1091 -0.1204 -0.0520
16092TIP3    H169767   1.756   2.040   5.115  0.0389  0.1641 -0.2931
16092TIP3    H269768   1.905   2.064   5.122  0.4994 -2.5403  0.3035
16093TIP3   OH269769   0.995   5.994  16.042 -0.6283  0.6715  0.4033
16093TIP3    H169770   0.996   6.001  15.946 -1.2726  0.1621  0.3492
16093TIP3    H269771   0.977   5.902  16.059  0.1252  0.6283  1.0271
16094TIP3   OH269772   6.575   2.940   3.178 -0.1644 -0.3237  0.8173
16094TIP3    H169773   6.482   2.951   3.196 -0.4103  1.1790 -1.0651
16094TIP3    H269774   6.584   2.963   3.086  2.0753 -0.4857  0.9539
16095TIP3   OH269775   5.604   6.518  11.219  0.6104  0.2658  0.3568
16095TIP3    H169776   5.590   6.603  11.178 -0.6181 -1.0117 -2.1208
16095TIP3    H269777   5.659   6.470  11.156  1.9685 -0.5445  2.0777
16096TIP3   OH269778   4.283   1.132  15.486  0.0601  0.0459 -0.6595
16096TIP3    H169779   4.276   1.214  15.535 -2.9820  0.3521 -1.3925
16096TIP3    H269780   4.349   1.149  15.420  1.9074  0.6996  1.2279
16097TIP3   OH269781   4.421   4.181  15.053 -0.2967  0.2172  0.6062
16097TIP3    H169782   4.395   4.253  14.995 -1.4680 -1.8325 -1.5740
16097TIP3    H269783   4.470   4.121  14.997 -0.9762 -1.6119  1.8823
16098TIP3   OH269784   2.271   6.706  10.920  0.3317 -0.4475 -0.1350
16098TIP3    H169785   2.225   6.663  10.849 -0.5274 -1.4771  1.0054
16098TIP3    H269786   2.284   6.796  10.889  0.6441 -1.0455 -1.8597
16099TIP3   OH269787   6.642   6.351   3.541 -0.0497  0.5910 -0.7173
16099TIP3    H169788   6.642   6.388   3.453  0.6840  1.5454 -0.3301
16099TIP3    H269789   6.669   6.260   3.528  2.4510  1.3250 -1.2752
16100TIP3   OH269790   5.593   3.984  14.761  0.1028 -0.1897 -0.0876
16100TIP3    H169791   5.607   3.901  14.808 -1.4232 -0.0672  0.6347
16100TIP3    H269792   5.568   4.046  14.830 -1.8029  0.0993 -0.9751
16101TIP3   OH269793   3.553   6.666  10.849  0.1115 -0.0381  0.5425
16101TIP3    H169794   3.565   6.602  10.919  1.3220  1.7982  2.1248
16101TIP3    H269795   3.640   6.705  10.838 -0.3510  0.5748 -1.1346
16102TIP3   OH269796   2.374   5.995   2.045  0.0934 -0.0739  0.1306
16102TIP3    H169797   2.375   5.935   2.119 -0.7568  0.7322  0.8244
16102TIP3    H269798   2.286   6.032   2.046 -0.5466 -1.2848 -2.3177
16103TIP3   OH269799   6.367   5.850   6.636  0.7174 -0.3861 -0.0251
16103TIP3    H169800   6.276   5.825   6.651  0.8826 -0.6541  0.5677
16103TIP3    H269801   6.365   5.901   6.556 -0.0141 -0.0595  0.1921
16104TIP3   OH269802   5.510   0.060   1.018  0.6687 -0.0653  0.1145
16104TIP3    H169803   5.480  -0.009   0.959 -0.9531 -0.2509  1.0933
16104TIP3    H269804   5.536   0.132   0.960  1.2737 -1.0495 -0.8793
16105TIP3   OH269805   3.127   4.859   1.709 -0.1947  0.1008 -0.5898
16105TIP3    H169806   3.123   4.783   1.652 -0.3253 -0.3611  0.0190
16105TIP3    H269807   3.218   4.889   1.704  0.1760 -0.8686  0.1447
16106TIP3   OH269808   0.267   5.417  11.229 -0.1470  0.6319 -0.0491
16106TIP3    H169809   0.266   5.489  11.165  0.0756  1.2371  0.6242
16106TIP3    H269810   0.335   5.358  11.196  0.9077  1.5885  0.3086
16107TIP3   OH269811   5.584   5.914   1.578  0.5929  0.4844  0.0272
16107TIP3    H169812   5.571   5.873   1.664  0.2366  1.0003  0.2294
16107TIP3    H269813   5.544   6.001   1.588 -1.2299 -0.1522 -1.2774
16108TIP3   OH269814   1.992   6.235   3.415  0.6412 -0.1434 -0.1206
16108TIP3    H169815   2.010   6.171   3.345  0.8299 -1.1313  0.8028
16108TIP3    H269816   1.954   6.310   3.369  2.7517  0.1315 -1.5694
16109TIP3   OH269817   3.886   2.818  17.237  0.3704 -0.1128  0.7834
16109TIP3    H169818   3.931   2.733  17.240 -0.1409 -0.5038 -1.3316
16109TIP3    H269819   3.809   2.806  17.293  0.6989 -0.8000  1.0983
16110TIP3   OH269820   0.671   4.074   2.601 -0.4176  0.8624  0.0093
16110TIP3    H169821   0.759   4.051   2.569 -0.9785 -0.8995 -0.3601
16110TIP3    H269822   0.667   4.035   2.689 -1.4711 -0.7441 -0.7115
16111TIP3   OH269823   1.367   1.756  13.457 -0.3984 -0.0969 -0.1897
16111TIP3    H169824   1.423   1.829  13.433 -0.1897  0.0592  0.7150
16111TIP3    H269825   1.282   1.776  13.418 -0.7155  1.3087  1.1051
16112TIP3   OH269826   0.189   4.008  16.367  0.0589 -0.1047 -0.2711
16112TIP3    H169827   0.208   3.935  16.308  1.3263 -0.9249  1.0868
16112TIP3    H269828   0.153   3.967  16.445  1.1473  0.6577  0.6717
16113TIP3   OH269829   2.070   5.053  16.220 -0.1923  0.0143  0.5170
16113TIP3    H169830   2.072   5.100  16.137  0.3078  0.0479  0.5455
16113TIP3    H269831   2.054   5.121  16.286 -0.7975 -0.0403  0.4345
16114TIP3   OH269832   2.316   2.198   4.195 -0.8180 -0.3836  0.0145
16114TIP3    H169833   2.305   2.288   4.226 -0.0441 -1.0755  2.5291
16114TIP3    H269834   2.232   2.155   4.216 -0.9998 -0.4026 -0.7111
16115TIP3   OH269835   0.609   5.800   4.558  0.0957 -0.3809  0.4810
16115TIP3    H169836   0.559   5.779   4.479  0.2548  2.5063 -0.5182
16115TIP3    H269837   0.701   5.785   4.534  0.0758 -0.4465  0.4482
16116TIP3   OH269838   3.776   3.135  12.337  0.2837  0.4385 -0.2864
16116TIP3    H169839   3.765   3.230  12.334 -0.3200  0.5237  2.4780
16116TIP3    H269840   3.687   3.100  12.330  0.6006 -0.0691 -2.7383
16117TIP3   OH269841   5.362   3.761  12.208  0.2964 -0.2752 -0.3541
16117TIP3    H169842   5.300   3.799  12.146  1.8136  1.0309 -1.1113
16117TIP3    H269843   5.439   3.739  12.156  1.6667  1.0015  1.0257
16118TIP3   OH269844   3.102   1.007  16.236  0.0353 -0.2979  0.6011
16118TIP3    H169845   3.069   0.917  16.231  0.6274 -0.4756 -1.1831
16118TIP3    H269846   3.026   1.062  16.218 -0.0757 -0.5104  0.4172
16119TIP3   OH269847   1.091   2.177   1.897  0.0684 -0.5221  0.2324
16119TIP3    H169848   1.177   2.197   1.934  0.7843 -1.0660 -1.0947
16119TIP3    H269849   1.101   2.192   1.803 -1.8032  1.1735  0.2210
16120TIP3   OH269850   5.297   6.496  15.399  0.0393  0.1682  0.0513
16120TIP3    H169851   5.207   6.505  15.431  0.0973 -0.7099  0.4757
16120TIP3    H269852   5.290   6.516  15.306 -0.5845  0.1864  0.0915
16121TIP3   OH269853   1.807   0.624   3.152  0.1205 -0.1313 -1.0405
16121TIP3    H169854   1.746   0.698   3.157  0.5369  0.1588  0.9611
16121TIP3    H269855   1.865   0.636   3.228  2.0621 -0.9320 -2.3055
16122TIP3   OH269856   6.790   5.682  12.598 -0.0336 -0.0876  0.3735
16122TIP3    H169857   6.733   5.621  12.552  1.4503 -0.0267 -1.7407
16122TIP3    H269858   6.778   5.663  12.691 -1.6556 -1.6690 -0.1213
16123TIP3   OH269859   5.538   1.637  11.842  0.1177 -0.1259 -0.1939
16123TIP3    H169860   5.449   1.648  11.808 -0.9955 -0.3397  2.3849
16123TIP3    H269861   5.574   1.725  11.843 -0.4380  0.1100 -0.3919
16124TIP3   OH269862   2.400   5.836  13.418  0.2987 -0.2085 -0.4942
16124TIP3    H169863   2.486   5.870  13.394  0.0100  1.2957  0.4714
16124TIP3    H269864   2.368   5.792  13.339  3.1835 -3.5509 -0.0411
16125TIP3   OH269865   0.652   5.887  13.578 -0.2808  0.0346  0.0775
16125TIP3    H169866   0.690   5.806  13.544 -2.2797 -0.8989 -0.1024
16125TIP3    H269867   0.653   5.876  13.673 -1.3667 -0.6426  0.0296
16126TIP3   OH269868   4.054   4.488   0.963  0.7057  0.2545  0.2492
16126TIP3    H169869   4.091   4.553   1.022  1.6072  0.7167 -0.7793
16126TIP3    H269870   4.119   4.480   0.893 -0.3107 -0.2927 -0.6595
16127TIP3   OH269871   0.697   2.471  12.305  0.1262  0.1923  0.3821
16127TIP3    H169872   0.616   2.452  12.352  0.6576 -1.7750  0.5777
16127TIP3    H269873   0.693   2.415  12.227  0.7993  0.9051 -0.1756
16128TIP3   OH269874   2.476   6.601   0.630  0.1619 -0.4800 -0.2216
16128TIP3    H169875   2.405   6.641   0.679  1.0484  0.4021  0.3991
16128TIP3    H269876   2.521   6.675   0.589  1.3705 -0.8926  0.3080
16129TIP3   OH269877   5.940   1.032   2.982  0.3912 -0.2882  0.4030
16129TIP3    H169878   6.003   1.097   3.012  0.6234 -0.1953 -0.2714
16129TIP3    H269879   5.899   1.000   3.062  1.1808 -0.2385  0.8364
16130TIP3   OH269880   4.322   2.883   3.817 -0.3231  0.3130  0.0326
16130TIP3    H169881   4.375   2.833   3.755 -0.4782  0.1917 -0.0013
16130TIP3    H269882   4.232   2.853   3.802 -0.6646  1.7310 -1.1164
16131TIP3   OH269883   2.931   2.616  15.637 -0.1969  0.2474  0.0807
16131TIP3    H169884   3.011   2.583  15.679 -0.8407 -0.3802  0.8469
16131TIP3    H269885   2.868   2.622  15.708 -0.5778  1.6200 -0.3566
16132TIP3   OH269886   5.937   1.689  14.525 -0.1185 -0.0277 -0.3463
16132TIP3    H169887   5.980   1.775  14.521  1.2039 -0.6086  0.8374
16132TIP3    H269888   5.901   1.685  14.613 -1.1645 -0.2687 -0.7599
16133TIP3   OH269889   6.606   2.796   3.457 -0.7081 -0.2099 -0.4753
16133TIP3    H169890   6.614   2.838   3.371  0.2562  1.9775  0.6176
16133TIP3    H269891   6.540   2.848   3.503 -0.5130 -0.7678  0.4663
16134TIP3   OH269892   3.074   0.855   3.332  0.5180 -0.0048  0.4401
16134TIP3    H169893   3.002   0.822   3.277 -0.5151  0.5231  1.4242
16134TIP3    H269894   3.095   0.781   3.390  0.1467  0.1197  0.7422
16135TIP3   OH269895   6.242   5.208  14.495  0.3148  0.1084  0.2753
16135TIP3    H169896   6.255   5.244  14.583  0.0321 -1.5302  1.0203
16135TIP3    H269897   6.330   5.193  14.462  0.4199 -0.3940  0.7732
16136TIP3   OH269898   0.828   6.210   1.040  0.0705  0.3127  0.0860
16136TIP3    H169899   0.778   6.249   1.113  0.6015  0.4219  0.3949
16136TIP3    H269900   0.919   6.226   1.063  0.3166 -1.1919  0.2659
16137TIP3   OH269901   2.000   0.792   3.684 -0.0796  0.3213 -0.5484
16137TIP3    H169902   2.095   0.798   3.671  0.0053  1.7050  0.4804
16137TIP3    H269903   1.981   0.857   3.752 -1.6657 -0.4626 -0.2048
16138TIP3   OH269904   4.992   0.480  15.326 -0.1370  0.1483  0.2968
16138TIP3    H169905   4.948   0.497  15.409  0.1495 -1.4361  0.7961
16138TIP3    H269906   5.008   0.567  15.289  0.5124  0.9239  2.3036
16139TIP3   OH269907   5.745   0.659  13.709  0.2035  0.0203 -0.0037
16139TIP3    H169908   5.817   0.708  13.668 -0.8587  1.5005 -0.1696
16139TIP3    H269909   5.789   0.598  13.768  1.5968  1.1130  0.1511
16140TIP3   OH269910   6.711   6.397  11.686  0.0776 -0.6014  0.2719
16140TIP3    H169911   6.769   6.473  11.677 -1.6810  0.6302 -1.4828
16140TIP3    H269912   6.712   6.377  11.780  3.2438 -0.6428  0.3235
16141TIP3   OH269913   3.703   6.414   2.401  0.0700 -0.2152 -0.0968
16141TIP3    H169914   3.762   6.456   2.465  1.0541 -1.3976 -0.1894
16141TIP3    H269915   3.755   6.408   2.321 -0.9819  0.7803 -0.8832
16142TIP3   OH269916   5.372   4.272  13.410 -0.2282  0.0014 -0.1880
16142TIP3    H169917   5.302   4.305  13.354 -0.3678 -0.6638 -0.4115
16142TIP3    H269918   5.428   4.347  13.425 -0.0986  0.1530 -1.3580
16143TIP3   OH269919   6.453   0.291  13.149  0.3306  0.2625  0.0637
16143TIP3    H169920   6.378   0.253  13.103  0.2156  2.1773 -1.4310
16143TIP3    H269921   6.529   0.265  13.095  0.3842  1.0299 -0.2375
16144TIP3   OH269922   1.313   4.745  13.140 -0.3523  0.1913  0.2122
16144TIP3    H169923   1.293   4.686  13.212  0.7781 -1.8311 -1.0592
16144TIP3    H269924   1.343   4.689  13.069  1.6689  2.3541 -0.7921
16145TIP3   OH269925   0.419   1.604  11.056  0.2416  0.0673  0.1280
16145TIP3    H169926   0.338   1.652  11.039  0.6037  0.9515  0.8372
16145TIP3    H269927   0.462   1.652  11.127 -0.1468 -2.2099  2.0281
16146TIP3   OH269928   0.018   3.138   0.584  0.2264  0.1782 -0.3685
16146TIP3    H169929   0.082   3.152   0.514 -1.4778 -0.2335 -2.1232
16146TIP3    H269930   0.014   3.043   0.594  0.7349  0.2495  0.5922
16147TIP3   OH269931   4.032   4.176  16.789  0.5116  0.5020  0.5513
16147TIP3    H169932   4.107   4.197  16.845 -0.2280  2.5045  0.8672
16147TIP3    H269933   4.044   4.229  16.711 -0.1356  0.1742  0.2141
16148TIP3   OH269934   1.525   2.264   6.558  0.6220  0.4773  0.1035
16148TIP3    H169935   1.499   2.172   6.554  0.9512  0.3823  0.1143
16148TIP3    H269936   1.443   2.313   6.555  0.5396  0.2893 -2.6704
16149TIP3   OH269937   2.474   6.273   0.506 -0.1048 -0.3461 -0.1024
16149TIP3    H169938   2.420   6.352   0.510  2.0929  1.3601 -1.7637
16149TIP3    H269939   2.464   6.242   0.416  1.0522 -0.4425 -0.2071
16150TIP3   OH269940   1.982   5.418   2.145  0.0187 -0.0253  0.0485
16150TIP3    H169941   1.940   5.410   2.231  0.5680  1.4491  0.4874
16150TIP3    H269942   1.998   5.512   2.136  0.0262 -0.1708 -1.6502
16151TIP3   OH269943   6.400   5.418   0.299 -0.5602  0.0762 -0.0784
16151TIP3    H169944   6.361   5.406   0.212  0.9112 -0.9269 -0.6228
16151TIP3    H269945   6.492   5.396   0.288 -0.3923 -0.3466  1.8135
16152TIP3   OH269946   2.197   5.843   0.276  0.8635  0.3708  0.1010
16152TIP3    H169947   2.189   5.792   0.195 -0.8867  0.0351  0.4498
16152TIP3    H269948   2.230   5.928   0.247  0.9946  0.0065 -0.8635
16153TIP3   OH269949   4.328   5.337   1.218 -0.1487  0.5619 -0.5736
16153TIP3    H169950   4.240   5.301   1.220 -0.0343  0.2468 -1.0839
16153TIP3    H269951   4.380   5.271   1.172  0.3173  0.8192 -0.4227
16154TIP3   OH269952   0.236   6.663  11.210  0.0993 -0.7531  0.2583
16154TIP3    H169953   0.301   6.623  11.152  0.0166 -2.1290  1.0528
16154TIP3    H269954   0.282   6.673  11.294  0.4305  1.8258 -0.1590
16155TIP3   OH269955   0.559   2.457  12.975  0.8257  0.2175 -0.4047
16155TIP3    H169956   0.618   2.474  13.049  1.1496 -0.9644 -0.3807
16155TIP3    H269957   0.611   2.405  12.914  0.3987  0.7705 -1.2500
16156TIP3   OH269958   1.863   0.980   5.970  0.1600 -0.4806  0.1598
16156TIP3    H169959   1.778   1.022   5.981  0.2592 -0.5422  1.1816
16156TIP3    H269960   1.910   0.997   6.051  0.7047 -1.4186  0.0612
16157TIP3   OH269961   1.119   6.674  10.716  0.4056 -0.1855 -0.9288
16157TIP3    H169962   1.126   6.679  10.621  0.3415  0.1794 -0.9129
16157TIP3    H269963   1.210   6.677  10.746  0.3651  1.3598 -0.8962
16158TIP3   OH269964   0.192   4.981   1.443  0.7731 -0.3693  0.1559
16158TIP3    H169965   0.115   5.005   1.495  1.1811  1.2414  0.0651
16158TIP3    H269966   0.229   4.906   1.490 -0.4272 -0.7113  0.6090
16159TIP3   OH269967   1.508   1.077  11.828 -0.6562 -0.0956  0.0655
16159TIP3    H169968   1.594   1.050  11.859  0.6733  3.0594 -0.5478
16159TIP3    H269969   1.447   1.029  11.885  1.4498 -1.6642  1.1862
16160TIP3   OH269970   2.346   3.449  13.536  0.3310  0.1106 -0.8854
16160TIP3    H169971   2.340   3.412  13.624 -0.9884  1.4636 -0.3580
16160TIP3    H269972   2.394   3.531  13.549 -2.6544  1.9823 -0.7811
16161TIP3   OH269973   6.617   5.971  12.067  0.2152 -0.9008 -0.6384
16161TIP3    H169974   6.575   6.048  12.105  1.9626 -0.1191 -0.1636
16161TIP3    H269975   6.632   5.912  12.142 -1.2669 -1.8261 -1.0238
16162TIP3   OH269976   1.237   5.940   5.101 -0.3473  0.3127  0.8977
16162TIP3    H169977   1.215   5.892   5.021  0.0101  0.2102  0.8600
16162TIP3    H269978   1.253   6.030   5.072  2.3268 -0.2505  0.4592
16163TIP3   OH269979   1.413   5.967  12.301  0.2182  0.1914  0.0477
16163TIP3    H169980   1.376   6.052  12.276 -0.6302  0.2809  1.4769
16163TIP3    H269981   1.476   5.988  12.370 -1.3411 -0.4472  1.7458
16164TIP3   OH269982   1.782   6.530  16.267 -0.2041 -0.4016  0.5559
16164TIP3    H169983   1.724   6.473  16.218 -1.3601  0.4555  0.8873
16164TIP3    H269984   1.829   6.472  16.326 -0.4599 -1.1522  0.0320
16165TIP3   OH269985   0.287   0.275   3.425  0.0105  0.1117 -0.1913
16165TIP3    H169986   0.298   0.322   3.342 -0.3627  0.3854 -0.0913
16165TIP3    H269987   0.363   0.299   3.477  0.6956 -0.7454 -0.7725
16166TIP3   OH269988   1.532   0.821  16.461 -0.0607 -0.1451 -0.2392
16166TIP3    H169989   1.600   0.816  16.528 -0.7125 -1.4402  0.3787
16166TIP3    H269990   1.454   0.786  16.504 -1.7950  3.3850 -0.1755
16167TIP3   OH269991   4.839   4.621  16.911 -0.1482  0.2943 -0.4609
16167TIP3    H169992   4.893   4.542  16.903  1.3742  1.1321  0.7507
16167TIP3    H269993   4.790   4.608  16.992 -0.4098  0.2866 -0.6233
16168TIP3   OH269994   3.280   5.183  13.798 -0.4787  0.0677  0.6184
16168TIP3    H169995   3.199   5.233  13.811  0.2045  1.1075  1.0080
16168TIP3    H269996   3.332   5.201  13.876 -0.0092 -0.8729  0.5304
16169TIP3   OH269997   0.334   6.663   5.754  0.1831  0.7953  0.4482
16169TIP3    H169998   0.269   6.656   5.824  0.2726  0.0603  0.4699
16169TIP3    H269999   0.309   6.594   5.692  1.6452 -0.3396  1.0576
16170TIP3   OH270000   6.377   3.282  11.716 -0.2443 -0.4024 -0.0371
16170TIP3    H170001   6.425   3.364  11.712  1.7847 -1.5695 -0.7593
16170TIP3    H270002   6.402   3.235  11.636 -1.8713 -1.4713  0.0219
16171TIP3   OH270003   5.299   1.705  12.953  0.8784 -0.4067  0.6679
16171TIP3    H170004   5.296   1.757  13.033 -0.1568  1.4912 -0.5342
16171TIP3    H270005   5.224   1.646  12.959 -0.4201  1.1348  0.2461
16172TIP3   OH270006   0.232   5.444  16.330 -0.0560  0.5509 -0.8602
16172TIP3    H170007   0.161   5.434  16.393 -1.1197 -2.7251 -2.3348
16172TIP3    H270008   0.277   5.360  16.333  2.0002  1.5501 -2.0501
16173TIP3   OH270009   0.698   1.515  16.851 -0.3911 -0.3616  0.3420
16173TIP3    H170010   0.747   1.483  16.926 -0.4148  1.0282  0.9887
16173TIP3    H270011   0.695   1.441  16.790  0.6388 -1.1427  1.2056
16174TIP3   OH270012   2.338   3.730  16.996 -0.0191  0.1936  0.0243
16174TIP3    H170013   2.409   3.759  16.938  0.4666  1.5170  1.2260
16174TIP3    H270014   2.314   3.644  16.962  1.5574  0.0919 -0.9614
16175TIP3   OH270015   2.580   0.773  14.828  0.0422 -0.0890 -0.1047
16175TIP3    H170016   2.591   0.839  14.759 -0.0122  0.1806  0.1393
16175TIP3    H270017   2.643   0.800  14.896 -0.3191 -0.0119  0.2009
16176TIP3   OH270018   3.741   1.468  14.285  0.3035  0.7009  0.5871
16176TIP3    H170019   3.736   1.525  14.209 -0.8743  1.1362  0.9668
16176TIP3    H270020   3.703   1.519  14.356 -0.3194 -0.3648  1.0489
16177TIP3   OH270021   2.265   3.025   3.399 -0.4238 -0.1764  0.3463
16177TIP3    H170022   2.234   2.938   3.372 -0.9191 -0.2915  1.2658
16177TIP3    H270023   2.359   3.013   3.412 -0.2608 -0.2534 -0.7475
16178TIP3   OH270024   3.480   4.236  12.636  0.3964  0.4692  0.5358
16178TIP3    H170025   3.547   4.299  12.663  1.6457 -0.4095 -0.3991
16178TIP3    H270026   3.508   4.154  12.676 -1.3924  0.5106  2.0151
16179TIP3   OH270027   6.255   2.260  15.373  0.5707  0.5489  0.2381
16179TIP3    H170028   6.209   2.207  15.308  1.0129 -0.2672  0.5758
16179TIP3    H270029   6.344   2.225  15.374  0.4536  0.2374  1.5925
16180TIP3   OH270030   4.148   0.053   6.182 -0.6906 -0.0195 -0.0281
16180TIP3    H170031   4.096   0.131   6.165 -1.9155 -1.0207 -1.1800
16180TIP3    H270032   4.238   0.084   6.187 -1.2538  1.5889  0.6351
16181TIP3   OH270033   3.157   1.936   4.373  0.1197  0.0667 -0.1967
16181TIP3    H170034   3.128   1.868   4.434 -0.3120  0.5768  0.1696
16181TIP3    H270035   3.252   1.932   4.376  0.1043 -0.8466 -0.5419
16182TIP3   OH270036   1.606   1.754  16.277  0.2544 -0.2411  0.6310
16182TIP3    H170037   1.599   1.690  16.348 -0.3023  0.2289  1.0113
16182TIP3    H270038   1.573   1.835  16.315  0.9269  0.2689  0.1425
16183TIP3   OH270039   2.442   1.618   5.053  0.7925  0.1153 -0.1141
16183TIP3    H170040   2.530   1.648   5.028  0.5713  0.4950 -0.4528
16183TIP3    H270041   2.383   1.676   5.006  0.3556  0.4089  0.7797
16184TIP3   OH270042   0.268   4.993   4.846 -0.1328  0.1087 -0.2276
16184TIP3    H170043   0.322   4.923   4.809  2.0615  1.0993  0.9030
16184TIP3    H270044   0.331   5.062   4.867 -1.9953  1.6873  0.3916
16185TIP3   OH270045   5.091   0.141  15.035  0.4950 -0.1038  0.0519
16185TIP3    H170046   5.178   0.163  15.068 -0.1919  0.4721  1.5947
16185TIP3    H270047   5.051   0.226  15.016 -0.1538 -0.2994  0.5272
16186TIP3   OH270048   5.125   2.531   4.611 -0.0720 -0.2252 -0.7278
16186TIP3    H170049   5.172   2.614   4.615 -1.6807  0.7472 -0.9378
16186TIP3    H270050   5.140   2.490   4.696  1.0799  0.0673 -0.7757
16187TIP3   OH270051   4.970   0.302   3.214 -0.1165  0.0408 -0.0838
16187TIP3    H170052   4.881   0.290   3.247 -0.0370  0.8679  0.4544
16187TIP3    H270053   4.989   0.394   3.228  0.2161  0.2607 -1.7478
16188TIP3   OH270054   5.313   2.180  15.328  0.7045 -1.0519 -0.4204
16188TIP3    H170055   5.392   2.128  15.321  0.5307 -1.1992 -1.3721
16188TIP3    H270056   5.310   2.231  15.247  0.5015 -0.0817  0.1803
16189TIP3   OH270057   5.061   3.279  13.229  0.8283 -0.3775  0.1270
16189TIP3    H170058   5.080   3.204  13.173  0.7944  0.1038 -0.5326
16189TIP3    H270059   5.088   3.251  13.317  1.0474 -1.0662 -0.1570
16190TIP3   OH270060   3.923   1.498   4.996 -0.1945 -0.1646  0.1660
16190TIP3    H170061   3.943   1.436   4.927  2.3229  1.5894 -0.8237
16190TIP3    H270062   3.979   1.471   5.069 -0.5973 -0.2277  0.4551
16191TIP3   OH270063   1.991   5.697   2.068  0.3022  0.2328  0.1173
16191TIP3    H170064   1.990   5.783   2.110  0.5910  0.6840 -0.7746
16191TIP3    H270065   1.913   5.696   2.013  1.0877  0.5550 -1.0564
16192TIP3   OH270066   3.381   4.067  16.967  0.3993  0.1546  0.0562
16192TIP3    H170067   3.336   3.983  16.977 -0.1618  0.5632  1.0593
16192TIP3    H270068   3.474   4.044  16.964  0.2109 -0.6027 -0.9678
16193TIP3   OH270069   5.741   4.382  13.211 -0.0636  0.2147  0.0773
16193TIP3    H170070   5.740   4.444  13.139 -1.6894  2.8467  2.1627
16193TIP3    H270071   5.677   4.315  13.187  0.6810  0.0758 -1.6174
16194TIP3   OH270072   5.517   6.301   2.367 -0.4396 -0.1892  0.3487
16194TIP3    H170073   5.547   6.220   2.409 -0.9481 -1.5673 -1.7801
16194TIP3    H270074   5.440   6.275   2.317  0.6344  1.0727 -2.1544
16195TIP3   OH270075   6.046   2.107   2.047  0.6382 -0.1201  0.0223
16195TIP3    H170076   5.985   2.065   2.108  0.1062 -0.7782 -0.9417
16195TIP3    H270077   6.110   2.150   2.103 -0.1161 -0.3035  1.0501
16196TIP3   OH270078   1.865   2.507  16.892 -0.4923 -0.0970 -0.3030
16196TIP3    H170079   1.913   2.454  16.956 -0.8562 -0.6516 -0.4801
16196TIP3    H270080   1.806   2.561  16.945  0.9170  1.2561 -0.0141
16197TIP3   OH270081   1.802   4.671  12.063 -0.1169 -0.1068  0.1548
16197TIP3    H170082   1.835   4.671  12.152 -0.2531  1.9524  0.2346
16197TIP3    H270083   1.757   4.755  12.053 -3.7212 -1.9237 -0.5342
16198TIP3   OH270084   1.811   6.586   5.897  0.0207 -0.2678  0.1433
16198TIP3    H170085   1.733   6.640   5.905 -0.5638 -1.1689  0.6542
16198TIP3    H270086   1.819   6.543   5.981 -0.0420 -1.6671 -0.5414
16199TIP3   OH270087   0.572   2.859   4.160  0.1029  0.4475 -0.2760
16199TIP3    H170088   0.540   2.814   4.082 -0.3269  1.3267 -0.6124
16199TIP3    H270089   0.615   2.937   4.128  0.4979  0.4901  0.3319
16200TIP3   OH270090   1.217   6.594  16.685  0.2081  0.0848 -0.0783
16200TIP3    H170091   1.202   6.505  16.717  3.2050 -0.1787  0.9531
16200TIP3    H270092   1.226   6.584  16.590 -4.1027  0.1513 -0.6943
16201TIP3   OH270093   4.887   2.804  13.067 -0.4309  0.2028  0.2836
16201TIP3    H170094   4.957   2.806  13.133 -0.5220  1.0285  0.3620
16201TIP3    H270095   4.874   2.711  13.050  0.4637  0.0224  0.5080
16202TIP3   OH270096   6.180   0.284   1.587  0.3109 -0.0111 -0.4369
16202TIP3    H170097   6.245   0.275   1.518  1.2296 -0.6099  0.4875
16202TIP3    H270098   6.174   0.378   1.602  1.5031  0.0180 -0.0455
16203TIP3   OH270099   6.452   4.273  16.984 -0.0594 -0.0181  0.3578
16203TIP3    H170100   6.375   4.230  17.021  0.1458 -1.1133 -0.4304
16203TIP3    H270101   6.431   4.367  16.987 -1.4550 -0.3016  0.0873
16204TIP3   OH270102   2.840   2.469  17.140 -0.0061 -0.4377 -0.7197
16204TIP3    H170103   2.762   2.431  17.180  0.3727 -1.2714 -0.7578
16204TIP3    H270104   2.912   2.416  17.173  0.8193  1.6035  0.9869
16205TIP3   OH270105   6.479   5.449  14.490 -0.1740 -0.0069  0.2972
16205TIP3    H170106   6.511   5.435  14.579  0.5072  1.9619  0.4033
16205TIP3    H270107   6.405   5.508  14.500 -1.7007 -1.7323 -0.2729
16206TIP3   OH270108   0.738   6.036   6.135 -0.4590 -0.3722 -0.0876
16206TIP3    H170109   0.828   6.004   6.136 -0.4514 -0.4778 -1.6904
16206TIP3    H270110   0.740   6.117   6.186  0.8333  0.3330 -1.2063
16207TIP3   OH270111   3.249   3.756  15.983  0.2749  0.1679 -0.2943
16207TIP3    H170112   3.269   3.712  15.900 -3.0498  1.7554 -2.1303
16207TIP3    H270113   3.202   3.690  16.034  1.0775 -0.3733 -0.2337
16208TIP3   OH270114   4.526   6.662  15.276  0.0913  0.2855  0.5458
16208TIP3    H170115   4.616   6.629  15.276  0.4865  1.3272  1.0383
16208TIP3    H270116   4.476   6.594  15.231  1.0465 -0.5091  0.6463
16209TIP3   OH270117   3.579   5.661   2.424  0.1683  0.8341 -0.3932
16209TIP3    H170118   3.607   5.731   2.365  0.2127  0.8457 -0.3584
16209TIP3    H270119   3.650   5.653   2.487  0.2165  0.6749 -0.4682
16210TIP3   OH270120   6.174   6.657   1.322 -0.4043  0.1619  0.7624
16210TIP3    H170121   6.203   6.679   1.411  0.6381  0.4666  0.3712
16210TIP3    H270122   6.254   6.662   1.269 -0.7940 -1.1462  0.0039
16211TIP3   OH270123   2.554   4.037  12.700 -0.3359 -0.1335  0.3608
16211TIP3    H170124   2.554   4.085  12.782  1.0064  0.8088 -0.1401
16211TIP3    H270125   2.478   3.980  12.705  0.5336 -1.2126  2.9029
16212TIP3   OH270126   4.248   3.123  11.700 -0.1836  0.1740  0.1424
16212TIP3    H170127   4.278   3.130  11.610 -0.9286  2.7386 -0.0043
16212TIP3    H270128   4.267   3.033  11.725 -0.5089 -0.8145 -2.7566
16213TIP3   OH270129   6.085   2.754  14.995 -0.1001  0.1943  0.3566
16213TIP3    H170130   6.118   2.668  15.021 -1.9812 -0.3183  1.2264
16213TIP3    H270131   6.063   2.797  15.078 -2.1986  0.2202 -0.1775
16214TIP3   OH270132   4.149   1.997   1.834 -0.1651 -0.0654  0.1165
16214TIP3    H170133   4.105   1.945   1.902  0.2742 -3.4864 -1.9478
16214TIP3    H270134   4.238   2.010   1.867 -0.8294  1.1334  1.5100
16215TIP3   OH270135   0.885   2.611  12.439 -0.4148 -0.0729 -0.2048
16215TIP3    H170136   0.804   2.585  12.396 -0.1740  1.8776 -1.9785
16215TIP3    H270137   0.857   2.672  12.507 -0.4058  1.7069 -1.7333
16216TIP3   OH270138   3.985   2.175   6.839  0.2356 -0.1142  0.8300
16216TIP3    H170139   3.917   2.114   6.809 -0.4573  2.1856 -2.8805
16216TIP3    H270140   4.041   2.121   6.895 -1.3989 -3.6387 -0.5726
16217TIP3   OH270141   1.155   4.262  13.637 -0.1647  0.1801  0.4952
16217TIP3    H170142   1.123   4.188  13.688 -0.9240  1.0344  1.3184
16217TIP3    H270143   1.075   4.302  13.601  0.2647  0.3515 -0.2884
16218TIP3   OH270144   0.029   1.550  14.641 -0.0054 -0.6339 -0.0319
16218TIP3    H170145   0.096   1.489  14.609 -0.0506 -0.6266 -0.1431
16218TIP3    H270146   0.045   1.557  14.735  1.9627  1.5629 -0.4434
16219TIP3   OH270147   3.182   0.920   4.283  0.0494  0.1959 -0.2901
16219TIP3    H170148   3.121   0.994   4.288  2.2182  2.0020  2.7412
16219TIP3    H270149   3.266   0.960   4.262  1.1185 -1.5536  0.4810
16220TIP3   OH270150   6.006   3.876   6.013  0.1254  0.3372 -0.0162
16220TIP3    H170151   5.985   3.917   5.929  1.1091 -0.1063 -0.4931
16220TIP3    H270152   5.922   3.871   6.059 -0.2049  1.8597 -0.3868
16221TIP3   OH270153   0.851   0.078   4.985  0.1671 -0.0918 -0.2093
16221TIP3    H170154   0.947   0.083   4.983  0.1358  0.4516 -0.4192
16221TIP3    H270155   0.822   0.164   4.956 -0.4048 -0.9898 -2.4651
16222TIP3   OH270156   3.419   3.195   5.519  0.1626  0.6317  0.4012
16222TIP3    H170157   3.396   3.133   5.588  0.1228  1.6337  1.3006
16222TIP3    H270158   3.485   3.252   5.558  0.7370  0.7160 -0.6475
16223TIP3   OH270159   4.108   2.071   3.165 -0.0635  0.2273  0.0573
16223TIP3    H170160   4.040   2.031   3.220 -0.0161 -0.8334 -0.6294
16223TIP3    H270161   4.061   2.132   3.109 -0.3994 -0.2230 -0.1545
16224TIP3   OH270162   5.365   3.474   2.815  0.3234  0.4364 -0.0521
16224TIP3    H170163   5.361   3.565   2.844  0.9210 -0.0646  1.7562
16224TIP3    H270164   5.354   3.478   2.720  1.0508  2.4439 -0.0992
16225TIP3   OH270165   2.470   4.828   3.323  0.3434 -0.3377  0.5156
16225TIP3    H170166   2.471   4.916   3.286  0.0860 -0.7079 -0.3834
16225TIP3    H270167   2.410   4.834   3.397 -1.9260 -0.4193 -1.2286
16226TIP3   OH270168   5.588   4.285   4.399 -0.0141 -0.6355 -0.7501
16226TIP3    H170169   5.660   4.342   4.424  0.5603 -1.3292 -0.8030
16226TIP3    H270170   5.616   4.198   4.424 -1.2634 -0.8013  0.1880
16227TIP3   OH270171   1.966   4.170  16.967  0.3526 -0.6194  0.3417
16227TIP3    H170172   1.986   4.093  17.020  1.6155 -1.4169 -1.1859
16227TIP3    H270173   2.052   4.204  16.941 -0.1954 -0.3766 -1.3024
16228TIP3   OH270174   6.388   3.155   0.418 -0.1705  0.4788  0.1434
16228TIP3    H170175   6.295   3.176   0.413 -0.3796  0.6015  2.9691
16228TIP3    H270176   6.433   3.239   0.406 -0.6824  1.3025  3.1997
16229TIP3   OH270177   5.844   0.670  13.142  0.4571 -0.3004  0.5280
16229TIP3    H170178   5.773   0.609  13.159  0.7823 -0.7547  0.2818
16229TIP3    H270179   5.801   0.749  13.111 -0.0731  0.1264  2.2584
16230TIP3   OH270180   1.471   4.161  14.130 -0.0423 -0.1238  0.8330
16230TIP3    H170181   1.411   4.101  14.175  1.2200 -0.4853  2.1098
16230TIP3    H270182   1.437   4.248  14.149 -2.1010 -0.3684 -1.3299
16231TIP3   OH270183   5.835   1.342   4.262  0.6007  0.5790 -0.2253
16231TIP3    H170184   5.822   1.290   4.183 -0.3199 -0.8511  0.8049
16231TIP3    H270185   5.746   1.364   4.292  0.5946 -2.5209  2.6195
16232TIP3   OH270186   5.111   2.530  13.720 -0.8501  0.3154 -0.3570
16232TIP3    H170187   5.195   2.516  13.675 -0.0726  1.4449  0.6672
16232TIP3    H270188   5.059   2.581  13.658 -1.3789 -1.6447 -1.5968
16233TIP3   OH270189   2.203   2.269   3.942  0.7911 -0.7601  0.4021
16233TIP3    H170190   2.251   2.341   3.901  0.1321  0.1845  1.2422
16233TIP3    H270191   2.255   2.247   4.019  2.0213 -2.5236 -0.8595
16234TIP3   OH270192   4.647   5.055   1.507 -0.3271  0.2074 -0.6888
16234TIP3    H170193   4.592   4.977   1.494  2.2421 -1.7151 -0.7191
16234TIP3    H270194   4.641   5.073   1.601  0.9005 -1.5670 -0.2230
16235TIP3   OH270195   1.781   0.103   0.833  0.0704  0.7723  0.0611
16235TIP3    H170196   1.761   0.069   0.921  0.2572 -0.1112 -0.2308
16235TIP3    H270197   1.877   0.108   0.831  0.0292  1.9824  0.3373
16236TIP3   OH270198   1.972   5.406   3.643 -0.2855  0.2871 -0.5471
16236TIP3    H170199   1.919   5.327   3.631 -0.3147 -0.1102  1.8099
16236TIP3    H270200   1.912   5.469   3.683  0.7172  0.1725  1.1986
16237TIP3   OH270201   2.924   3.340   5.893  0.1057  0.3744  0.3895
16237TIP3    H170202   2.999   3.325   5.835  1.0679  1.0559  1.4174
16237TIP3    H270203   2.852   3.364   5.834  0.2768 -1.6232 -0.7502
16238TIP3   OH270204   2.755   2.721  13.595 -0.0759 -0.1788 -0.3387
16238TIP3    H170205   2.686   2.720  13.662  1.3978  1.0425  1.2996
16238TIP3    H270206   2.737   2.800  13.544  0.2863  0.3468  0.3266
16239TIP3   OH270207   0.821   2.595   5.602 -0.5871  0.0681  0.0932
16239TIP3    H170208   0.849   2.685   5.584 -0.1632 -0.2604 -0.9150
16239TIP3    H270209   0.735   2.588   5.560 -0.5076 -0.0794 -0.0424
16240TIP3   OH270210   2.348   0.412   4.887  0.2503  0.2776  0.1401
16240TIP3    H170211   2.362   0.382   4.797 -2.5934 -0.7453 -0.0418
16240TIP3    H270212   2.321   0.504   4.878  1.4316  0.6439  0.1158
16241TIP3   OH270213   0.112   4.503   0.515 -0.4585 -0.1705  0.6324
16241TIP3    H170214   0.197   4.519   0.474  0.3781 -3.7480  0.7014
16241TIP3    H270215   0.127   4.431   0.576 -3.4149 -0.5006  1.1411
16242TIP3   OH270216   0.094   5.676  11.572 -0.3479  0.0671  0.0296
16242TIP3    H170217   0.128   5.593  11.540  0.6214  0.1478  0.7880
16242TIP3    H270218   0.172   5.725  11.598 -0.9345  1.0179  0.0628
16243TIP3   OH270219   4.414   5.411  13.191  0.2357 -0.5252  0.0052
16243TIP3    H170220   4.336   5.428  13.138  0.8036 -1.7855 -1.2650
16243TIP3    H270221   4.391   5.334  13.243  0.6463 -0.9495 -0.4318
16244TIP3   OH270222   1.417   2.195  16.442 -0.3621 -0.6281 -0.0638
16244TIP3    H170223   1.469   2.236  16.511 -1.3408 -0.2460  0.4552
16244TIP3    H270224   1.354   2.262  16.416 -1.1523 -1.3607 -0.0828
16245TIP3   OH270225   4.313   6.176  12.820  0.2768 -0.0707 -0.6462
16245TIP3    H170226   4.351   6.244  12.875  0.2015 -0.6274  0.1117
16245TIP3    H270227   4.384   6.150  12.761  0.1813  0.9431 -1.2163
16246TIP3   OH270228   2.453   4.848   4.065  0.3677  0.1332  0.0498
16246TIP3    H170229   2.432   4.868   3.974  0.1111  0.8466  0.2586
16246TIP3    H270230   2.530   4.791   4.060 -0.1228 -0.4950 -0.6377
16247TIP3   OH270231   1.696   4.262  11.637 -0.7772 -0.0316 -0.5408
16247TIP3    H170232   1.778   4.293  11.676  0.8199 -0.8244 -3.0213
16247TIP3    H270233   1.632   4.267  11.708  1.4957  0.2220  1.6301
16248TIP3   OH270234   1.495   0.234  13.204 -0.0369 -0.0886 -0.5812
16248TIP3    H170235   1.480   0.299  13.135 -0.7981  1.7296  1.2232
16248TIP3    H270236   1.581   0.256  13.240 -1.0252  1.0930  1.1846
16249TIP3   OH270237   6.520   3.992  14.708  0.0309  0.3137 -0.2370
16249TIP3    H170238   6.543   3.915  14.761 -1.2007  0.1230  0.0673
16249TIP3    H270239   6.560   4.066  14.754 -3.0909  0.5178  2.5620
16250TIP3   OH270240   5.694   5.343   2.474  0.1586 -0.2228  0.2903
16250TIP3    H170241   5.622   5.286   2.502 -1.2658  0.3964 -1.8884
16250TIP3    H270242   5.733   5.298   2.399 -1.9060  2.1442 -2.4109
16251TIP3   OH270243   2.647   3.896   2.807 -0.1828 -0.3699  0.2577
16251TIP3    H170244   2.604   3.978   2.830  1.7422  0.4406  1.2139
16251TIP3    H270245   2.645   3.844   2.887 -0.5639 -0.8649 -0.0718
16252TIP3   OH270246   6.518   5.736  16.140  0.4519  0.2511 -0.0764
16252TIP3    H170247   6.511   5.688  16.223 -1.9244  0.1490 -0.2689
16252TIP3    H270248   6.597   5.789  16.149  0.3790  0.0550  2.1663
16253TIP3   OH270249   3.804   0.692   2.237  0.5165  0.2515 -0.2237
16253TIP3    H170250   3.779   0.605   2.207  0.7252 -0.3229  1.2174
16253TIP3    H270251   3.745   0.712   2.309  0.3428  1.4073 -0.6494
16254TIP3   OH270252   6.767   4.364   3.242  0.0593 -0.0371 -0.3553
16254TIP3    H170253   6.830   4.432   3.220  0.3844  0.9772  3.0966
16254TIP3    H270254   6.821   4.292   3.277 -0.5098 -0.3603 -0.1286
16255TIP3   OH270255   4.507   1.759  16.262  0.5984 -0.3063 -0.0224
16255TIP3    H170256   4.468   1.673  16.274  1.4008 -0.5150  1.1891
16255TIP3    H270257   4.470   1.791  16.179 -1.6328 -0.7554  0.7415
16256TIP3   OH270258   0.796   1.563  15.792 -0.0840 -0.2338 -0.5544
16256TIP3    H170259   0.807   1.658  15.792  1.0277 -0.3274  0.5064
16256TIP3    H270260   0.809   1.538  15.883 -0.0444 -1.4374 -0.8750
16257TIP3   OH270261   4.224   6.428   0.456  0.2418 -0.1498  0.2925
16257TIP3    H170262   4.293   6.491   0.435 -0.9224  0.5482 -1.7501
16257TIP3    H270263   4.202   6.388   0.372 -0.5410 -1.7343  1.2102
16258TIP3   OH270264   4.249   4.603   5.853 -0.0967  0.2564 -0.6276
16258TIP3    H170265   4.263   4.527   5.797  2.1790  0.1901 -0.0527
16258TIP3    H270266   4.303   4.587   5.930  0.2477  2.3203 -0.3707
16259TIP3   OH270267   0.056   2.522   5.646  0.3657  0.0912  0.2639
16259TIP3    H170268   0.026   2.437   5.679  1.6414  0.0558  1.4534
16259TIP3    H270269  -0.018   2.557   5.598 -0.2609 -1.6153 -0.1045
16260TIP3   OH270270   1.667   1.495   4.711 -0.2668 -0.0256 -0.3400
16260TIP3    H170271   1.589   1.452   4.677 -0.4736  0.2743 -0.2540
16260TIP3    H270272   1.658   1.488   4.807  0.8053 -1.7539 -0.3191
16261TIP3   OH270273   0.041   6.055   4.507  0.5794  0.2505  0.1502
16261TIP3    H170274   0.069   6.144   4.529 -2.5892  1.1817  0.9903
16261TIP3    H270275  -0.038   6.068   4.454  0.5884 -2.1018 -0.5402
16262TIP3   OH270276   5.984   2.250  14.812  0.3187  0.3186 -0.1859
16262TIP3    H170277   5.931   2.172  14.792 -0.6179  0.9897 -0.4173
16262TIP3    H270278   6.065   2.238  14.763  1.3070 -1.7081  1.7680
16263TIP3   OH270279   0.352   6.446  16.057  0.1027  0.5309 -0.0204
16263TIP3    H170280   0.354   6.425  15.963 -1.5127  1.5125 -0.3080
16263TIP3    H270281   0.407   6.525  16.064  0.1903  0.4824 -0.1432
16264TIP3   OH270282   0.976   0.126  15.121 -0.7615 -0.1515  0.2632
16264TIP3    H170283   0.919   0.166  15.055  1.1900  1.0563 -0.7863
16264TIP3    H270284   0.953   0.033  15.119 -2.6693  0.2837 -0.0987
16265TIP3   OH270285   3.297   2.727   5.548 -0.4819 -0.4262  0.0398
16265TIP3    H170286   3.355   2.793   5.510  0.1158 -0.1622  1.3627
16265TIP3    H270287   3.337   2.704   5.631 -0.9733 -2.0897 -0.1475
16266TIP3   OH270288   1.323   4.900  11.572 -0.2184  0.9314 -0.3847
16266TIP3    H170289   1.376   4.946  11.636  0.3601  0.0568 -0.2114
16266TIP3    H270290   1.240   4.882  11.618  0.1633  0.3743  0.1032
16267TIP3   OH270291   3.169   2.760   5.244 -0.1507  0.3580 -0.6892
16267TIP3    H170292   3.157   2.675   5.202  2.3928 -0.5664  0.3005
16267TIP3    H270293   3.202   2.740   5.332  0.8765  2.3659 -0.5542
16268TIP3   OH270294   5.151   4.805  14.580 -0.1898  0.2171 -0.3718
16268TIP3    H170295   5.179   4.714  14.572 -3.7113 -0.9149 -1.4394
16268TIP3    H270296   5.108   4.809  14.665  0.3664  1.0564 -0.1193
16269TIP3   OH270297   5.411   3.000   4.431  0.2191  0.2628  0.1213
16269TIP3    H170298   5.397   2.998   4.336  1.2286 -0.5820 -0.0233
16269TIP3    H270299   5.481   3.065   4.443  0.4694 -0.0260  0.2321
16270TIP3   OH270300   2.618   0.936   4.312 -0.3660 -0.2579  0.2070
16270TIP3    H170301   2.537   0.988   4.319 -0.9343 -1.1544  0.5474
16270TIP3    H270302   2.679   0.978   4.373 -0.7399  0.1446  0.3103
16271TIP3   OH270303   4.875   5.196   4.967  0.5815 -0.7571  0.1904
16271TIP3    H170304   4.929   5.243   4.903 -0.2260 -0.2849 -0.1456
16271TIP3    H270305   4.936   5.133   5.006  2.2056  1.7501  2.0145
16272TIP3   OH270306   6.702   5.747   4.662 -0.6309  0.1555  0.1347
16272TIP3    H170307   6.724   5.771   4.572 -0.0124  2.7571  0.8843
16272TIP3    H270308   6.759   5.672   4.681 -1.6722 -1.2700 -1.9796
16273TIP3   OH270309   3.132   4.089  16.278 -0.3795  0.3520 -0.0750
16273TIP3    H170310   3.123   4.120  16.369 -2.8563 -0.7014  0.1172
16273TIP3    H270311   3.077   4.011  16.274  0.2042  0.0031 -2.3350
16274TIP3   OH270312   2.618   0.211   5.681 -0.3409  0.5313  0.1397
16274TIP3    H170313   2.562   0.271   5.730  0.6822  3.3623 -1.9394
16274TIP3    H270314   2.570   0.193   5.601 -0.8416 -1.9871  0.8905
16275TIP3   OH270315   0.484   3.916   5.322 -0.1322 -0.1524 -0.0341
16275TIP3    H170316   0.526   3.981   5.265 -0.9026 -0.6846 -1.2435
16275TIP3    H270317   0.433   3.861   5.263 -1.4790 -0.3380  1.2428
16276TIP3   OH270318   5.391   2.856   3.832 -0.1173 -0.3574  0.4770
16276TIP3    H170319   5.444   2.915   3.885  0.9939 -1.7541  0.9815
16276TIP3    H270320   5.309   2.847   3.881 -0.1791  0.4752  0.5539
16277TIP3   OH270321   1.832   1.577  14.672 -0.3551 -0.4852 -0.2412
16277TIP3    H170322   1.781   1.584  14.591  0.3323 -1.8662 -0.8155
16277TIP3    H270323   1.780   1.520  14.729 -1.5837  1.6729  0.9433
16278TIP3   OH270324   5.543   4.302  16.834  0.3899  0.2738  0.0689
16278TIP3    H170325   5.495   4.384  16.846  1.0858  0.8053 -0.6322
16278TIP3    H270326   5.633   4.330  16.814  0.3201 -0.6068 -1.6434
16279TIP3   OH270327   1.280   0.277   5.512 -0.0790  0.2145 -0.1160
16279TIP3    H170328   1.358   0.318   5.548  0.1964  1.0791 -1.5965
16279TIP3    H270329   1.278   0.306   5.420 -0.3567 -2.3816 -1.0228
16280TIP3   OH270330   2.476   2.975   5.112  0.1501  0.0568  0.2457
16280TIP3    H170331   2.554   3.030   5.120 -0.7975  1.7374 -1.2494
16280TIP3    H270332   2.434   2.981   5.198  0.1618  1.5999  0.1716
16281TIP3   OH270333   0.577   0.216  10.061  0.3432  0.1375 -0.5024
16281TIP3    H170334   0.529   0.259  10.131 -0.1520 -0.7460 -0.2914
16281TIP3    H270335   0.603   0.288  10.002 -2.1068  0.5525 -1.1754
16282TIP3   OH270336   1.072   2.474  13.151 -0.1224 -0.3028  0.2550
16282TIP3    H170337   1.110   2.399  13.196 -1.7640 -0.8149  0.8716
16282TIP3    H270338   1.086   2.456  13.058 -0.4580 -1.3714  0.4005
16283TIP3   OH270339   6.329   3.121   4.257  0.4270  0.1240 -0.0909
16283TIP3    H170340   6.422   3.142   4.261  0.0643  1.6724  1.3551
16283TIP3    H270341   6.316   3.088   4.168  1.9046  2.1284 -1.1250
16284TIP3   OH270342   2.178   5.478   6.274  0.2255 -0.1429 -0.4168
16284TIP3    H170343   2.190   5.562   6.318  0.0517  0.2978 -1.1995
16284TIP3    H270344   2.099   5.441   6.313  0.0551  0.2578 -0.3884
16285TIP3   OH270345   3.729   5.419   2.385 -0.2038  0.1333 -0.0256
16285TIP3    H170346   3.734   5.432   2.290 -0.8962  0.3720 -0.0356
16285TIP3    H270347   3.635   5.413   2.403 -0.1571  1.4196  0.8083
16286TIP3   OH270348   6.115   5.971  16.196  0.5569 -0.3042 -0.2208
16286TIP3    H170349   6.165   6.030  16.252 -1.0584  1.0234 -0.1070
16286TIP3    H270350   6.024   5.992  16.214 -0.0387 -1.3313 -1.8116
16287TIP3   OH270351   3.213   5.998  15.032  0.6219  0.1363 -0.2164
16287TIP3    H170352   3.285   5.937  15.051  0.5930  0.5612  1.4244
16287TIP3    H270353   3.134   5.949  15.057  0.5078  0.4101 -0.0392
16288TIP3   OH270354   5.699   2.262   4.969  0.4854 -0.1462 -0.3676
16288TIP3    H170355   5.688   2.277   5.062 -0.5847 -0.7500 -0.3803
16288TIP3    H270356   5.698   2.349   4.930 -1.3487  0.0349 -0.0179
16289TIP3   OH270357   6.783   3.858  11.312 -0.1378  0.0663 -0.0036
16289TIP3    H170358   6.807   3.773  11.347 -3.7141 -1.2123 -0.2580
16289TIP3    H270359   6.816   3.857  11.222  0.1860 -0.8515  0.1177
16290TIP3   OH270360   6.411   2.549  13.008  0.0477 -0.1799 -0.0283
16290TIP3    H170361   6.402   2.542  12.913  0.6782  1.3045 -0.2118
16290TIP3    H270362   6.331   2.593  13.036  0.4721  0.6078 -0.0398
16291TIP3   OH270363   4.043   3.417  15.922  0.3371  0.0303  0.3303
16291TIP3    H170364   3.987   3.472  15.867  1.1066 -0.2104 -0.7291
16291TIP3    H270365   4.124   3.408  15.873  0.7190 -0.9596  1.0916
16292TIP3   OH270366   3.862   5.622  17.205 -0.2987 -0.4729 -0.2647
16292TIP3    H170367   3.768   5.600  17.205 -0.2438 -0.7118 -0.6616
16292TIP3    H270368   3.878   5.655  17.293 -0.9321  0.3056 -0.4295
16293TIP3   OH270369   1.738   2.656  16.291  0.0020  0.2304  0.5288
16293TIP3    H170370   1.659   2.601  16.294 -1.7704  2.4840 -1.2689
16293TIP3    H270371   1.753   2.680  16.383 -0.5745 -1.2684  1.0583
16294TIP3   OH270372   1.609   0.137  13.551  0.5745 -0.0719 -0.3247
16294TIP3    H170373   1.551   0.071  13.588 -0.3012 -1.4505 -3.8013
16294TIP3    H270374   1.551   0.210  13.528  0.9810  0.4400  0.2252
16295TIP3   OH270375   4.581   2.394  15.608  0.1369 -0.0250  0.4061
16295TIP3    H170376   4.546   2.306  15.618  1.8802 -0.8945 -0.8137
16295TIP3    H270377   4.572   2.414  15.515  2.3471 -0.0890  0.1322
16296TIP3   OH270378   3.314   5.415   1.395 -0.4111  0.8738  0.3890
16296TIP3    H170379   3.408   5.431   1.399 -0.1553 -0.4717  0.1486
16296TIP3    H270380   3.277   5.471   1.464  0.5867  1.2362  0.6446
16297TIP3   OH270381   6.418   1.724   0.756  0.4222  0.3735  0.6990
16297TIP3    H170382   6.449   1.634   0.763 -0.5285  0.0162  0.5591
16297TIP3    H270383   6.467   1.772   0.822  1.8394  0.0229 -0.0618
16298TIP3   OH270384   3.634   6.143   3.301 -0.2600 -0.0871 -0.3212
16298TIP3    H170385   3.538   6.140   3.301 -0.5025  3.2446 -0.8792
16298TIP3    H270386   3.659   6.114   3.389 -1.9799  0.9137  0.5643
16299TIP3   OH270387   3.784   4.457   0.908 -0.1271  0.4372  0.3519
16299TIP3    H170388   3.873   4.437   0.939 -0.8868 -3.1213  0.7076
16299TIP3    H270389   3.778   4.412   0.823 -2.2354 -1.4888  1.4169
16300TIP3   OH270390   6.671   1.060  15.840 -0.9840 -0.3855  0.0842
16300TIP3    H170391   6.668   1.016  15.925  1.8876  0.8413  0.9355
16300TIP3    H270392   6.704   1.147  15.859  1.4090 -0.6033 -2.4362
16301TIP3   OH270393   5.095   1.221  14.639  0.0533 -0.1657  0.4281
16301TIP3    H170394   5.171   1.275  14.662  0.6730 -1.6219  2.0735
16301TIP3    H270395   5.063   1.257  14.557  1.2968  1.7700  0.7380
16302TIP3   OH270396   0.339   3.191   3.681  0.1611 -0.6363  0.2409
16302TIP3    H170397   0.407   3.201   3.615  0.2558  3.1819  0.6973
16302TIP3    H270398   0.257   3.193   3.631  0.2895 -0.6245  0.0296
16303TIP3   OH270399   3.680   1.675  14.079  0.0241  0.2113  0.3351
16303TIP3    H170400   3.606   1.726  14.112  0.0161 -0.8241  2.0178
16303TIP3    H270401   3.640   1.605  14.028  0.0348  1.7742 -2.0109
16304TIP3   OH270402   5.500   4.597  14.154  1.0487 -0.4778 -0.2747
16304TIP3    H170403   5.408   4.610  14.131  0.5698 -2.2820  0.4392
16304TIP3    H270404   5.542   4.681  14.135 -1.0593  0.9449  0.9451
16305TIP3   OH270405   5.698   6.150   0.124  0.4824  0.7032 -0.3959
16305TIP3    H170406   5.636   6.121   0.191  0.6524 -0.5491 -0.7587
16305TIP3    H270407   5.727   6.236   0.155 -1.6987  1.5219 -0.3989
16306TIP3   OH270408   4.055   2.971  12.761 -0.4349  0.6378 -0.2259
16306TIP3    H170409   4.150   2.964  12.764 -0.3733  1.1976 -0.7190
16306TIP3    H270410   4.035   3.052  12.808 -0.6147  0.8738 -0.6983
16307TIP3   OH270411   6.786   6.617   3.066  0.2649  0.3555 -0.3612
16307TIP3    H170412   6.831   6.641   2.985  0.3247 -0.7979 -0.6901
16307TIP3    H270413   6.847   6.639   3.135  0.6790  0.2901 -0.7022
16308TIP3   OH270414   6.679   0.330   4.165 -0.5279 -0.2368  0.3068
16308TIP3    H170415   6.757   0.382   4.183 -1.7944  2.6383 -1.7466
16308TIP3    H270416   6.705   0.272   4.094 -0.4914  1.6760 -1.3419
16309TIP3   OH270417   2.606   2.067   1.026 -0.3067 -0.0655 -0.1639
16309TIP3    H170418   2.662   2.117   0.967  0.2214  1.2430  1.3905
16309TIP3    H270419   2.538   2.030   0.969  0.7040  0.3736 -1.7051
16310TIP3   OH270420   6.293   5.315  14.737 -0.2335  0.3827 -0.5434
16310TIP3    H170421   6.307   5.409  14.730  2.5909  0.0715 -0.4033
16310TIP3    H270422   6.328   5.291  14.823 -0.6537 -0.8192 -0.6792
16311TIP3   OH270423   3.131   0.369   3.397 -0.3509  0.1535  0.0660
16311TIP3    H170424   3.226   0.356   3.391 -0.6663 -2.0651 -1.4631
16311TIP3    H270425   3.121   0.461   3.421  2.1848  0.7974 -0.9829
16312TIP3   OH270426   3.667   1.158   5.375  0.3344  0.3035 -0.0888
16312TIP3    H170427   3.707   1.120   5.454 -0.9369 -0.1790  0.3483
16312TIP3    H270428   3.589   1.204   5.407  0.0522  0.4995 -1.0180
16313TIP3   OH270429   1.284   2.933  13.466  0.1424 -0.3178  0.4787
16313TIP3    H170430   1.356   2.995  13.477  0.8399 -1.3647  2.2472
16313TIP3    H270431   1.308   2.882  13.388  1.6828 -1.0613  1.3856
16314TIP3   OH270432   1.835   6.743   1.099  0.7651  0.0977  0.0602
16314TIP3    H170433   1.911   6.799   1.118  1.4085 -0.3276 -1.1699
16314TIP3    H270434   1.836   6.678   1.169  0.6159  0.9969  0.9231
16315TIP3   OH270435   0.539   6.749   4.112 -0.0612  0.0961  0.0891
16315TIP3    H170436   0.473   6.810   4.078 -0.1422  0.0608  0.1837
16315TIP3    H270437   0.620   6.801   4.115  0.2582 -0.2604 -1.4151
16316TIP3   OH270438   3.210   2.742   0.459 -0.1773  0.3390  0.1646
16316TIP3    H170439   3.178   2.829   0.485 -0.9974  0.3093 -0.7206
16316TIP3    H270440   3.298   2.759   0.425 -0.4734  0.8866 -0.3574
16317TIP3   OH270441   5.148   6.144  16.044  0.5129  0.0499  0.2140
16317TIP3    H170442   5.118   6.203  16.114  0.3619  0.6406 -0.3329
16317TIP3    H270443   5.178   6.203  15.975 -1.0512 -0.4839 -0.9736
16318TIP3   OH270444   5.472   1.170   0.409  0.3297  0.1663 -0.0270
16318TIP3    H170445   5.387   1.210   0.390  0.4329  0.7166  0.6266
16318TIP3    H270446   5.517   1.235   0.463  1.3068  0.0346 -0.6548
16319TIP3   OH270447   1.177   0.901   1.628 -0.7457 -0.0598  0.4367
16319TIP3    H170448   1.091   0.859   1.625 -0.8064  0.1114 -1.5061
16319TIP3    H270449   1.198   0.907   1.721 -3.0077  0.2851  0.9721
16320TIP3   OH270450   3.763   3.773   6.212  0.0502 -0.0025  0.6381
16320TIP3    H170451   3.721   3.734   6.289  0.9658  0.7575  1.5471
16320TIP3    H270452   3.692   3.782   6.148 -0.7504 -0.5580  1.4278
16321TIP3   OH270453   5.646   4.380   1.954  0.4034  0.4432 -0.5188
16321TIP3    H170454   5.703   4.421   2.018  1.3631 -0.0717 -1.0152
16321TIP3    H270455   5.598   4.452   1.914 -0.1500  0.7739  0.7038
16322TIP3   OH270456   6.556   6.641   3.202  0.3187  0.5812 -0.2848
16322TIP3    H170457   6.517   6.728   3.187  0.8828  0.5977 -1.8158
16322TIP3    H270458   6.641   6.645   3.158 -0.1586 -1.1438 -1.4562
16323TIP3   OH270459   4.191   3.778   1.554 -0.0720  0.0563  0.2775
16323TIP3    H170460   4.231   3.843   1.496 -0.8841  0.3799  0.0692
16323TIP3    H270461   4.148   3.717   1.495  0.4465 -0.5296  0.4860
16324TIP3   OH270462   4.837   2.066  14.543 -0.3851  0.2355 -0.5238
16324TIP3    H170463   4.865   2.001  14.479  0.0495 -0.3052  0.1949
16324TIP3    H270464   4.896   2.140  14.529 -0.5840  0.3017 -1.0400
16325TIP3   OH270465   2.010   4.160  15.885 -0.4031 -0.3699  0.3301
16325TIP3    H170466   1.983   4.240  15.840 -1.5973 -0.9120  0.0349
16325TIP3    H270467   1.995   4.091  15.820  1.4711 -0.7471  0.2628
16326TIP3   OH270468   5.077   6.143  17.049 -0.1740  0.1405  0.2224
16326TIP3    H170469   4.992   6.101  17.031  0.4264 -0.9857 -0.1189
16326TIP3    H270470   5.121   6.143  16.964  0.2213  0.5863  0.4285
16327TIP3   OH270471   0.461   1.052   4.650  0.2851 -0.0037 -0.2110
16327TIP3    H170472   0.384   1.060   4.594  0.2488 -0.8655 -0.2952
16327TIP3    H270473   0.431   1.082   4.736 -0.7263 -2.1540  0.2442
16328TIP3   OH270474   2.892   0.206   2.866  0.2256  0.5333 -0.4476
16328TIP3    H170475   2.935   0.238   2.945  1.6867  1.0254 -1.3901
16328TIP3    H270476   2.871   0.115   2.885  0.6473  0.6196  0.4826
16329TIP3   OH270477   2.688   1.915   3.575  0.3385 -0.6420 -0.0075
16329TIP3    H170478   2.659   1.969   3.502 -0.6254  0.1305  0.9085
16329TIP3    H270479   2.765   1.869   3.542  0.0695 -0.1332 -1.4160
16330TIP3   OH270480   6.526   6.485   5.945  0.5327 -0.3270  0.1920
16330TIP3    H170481   6.480   6.402   5.930 -2.0921  1.2120 -0.7927
16330TIP3    H270482   6.531   6.492   6.040 -2.5148 -0.0052  0.4257
16331TIP3   OH270483   4.683   3.820  14.395  0.4183  0.0297  0.0737
16331TIP3    H170484   4.773   3.818  14.426 -0.5283  0.9760  3.3157
16331TIP3    H270485   4.636   3.760  14.453 -1.3323  0.8910 -0.3703
16332TIP3   OH270486   5.561   3.517  16.248 -0.0115 -0.4529  0.4057
16332TIP3    H170487   5.478   3.563  16.258  0.7424  1.0346  0.1235
16332TIP3    H270488   5.554   3.472  16.164 -0.9161 -1.2284  0.8765
16333TIP3   OH270489   1.432   0.204   1.060  0.2062  0.4470  0.1449
16333TIP3    H170490   1.370   0.274   1.042 -1.3566 -1.1572 -1.0034
16333TIP3    H270491   1.459   0.172   0.973 -1.3689 -2.2296  0.5223
16334TIP3   OH270492   0.348   4.798   1.602  0.1547 -0.3458 -0.4326
16334TIP3    H170493   0.359   4.703   1.600  0.6635 -0.3146  0.3011
16334TIP3    H270494   0.312   4.816   1.689  3.3965  0.4063  0.9007
16335TIP3   OH270495   1.415   1.153  16.916 -0.4934 -0.6481 -0.0639
16335TIP3    H170496   1.339   1.178  16.863 -0.4084  0.8512  0.4965
16335TIP3    H270497   1.489   1.162  16.856 -0.4189  0.8736  0.2211
16336TIP3   OH270498   5.677   0.694   4.833  0.2431 -0.5741  0.1072
16336TIP3    H170499   5.745   0.705   4.766 -0.1419 -1.4237 -0.4517
16336TIP3    H270500   5.723   0.659   4.909  0.6414  0.1319  0.2025
16337TIP3   OH270501   5.698   2.070   2.965  0.2537 -0.3394 -0.2496
16337TIP3    H170502   5.790   2.045   2.973  0.1694 -1.2969 -1.9793
16337TIP3    H270503   5.680   2.120   3.045  2.0162 -0.9140  0.5500
16338TIP3   OH270504   2.562   1.457   2.903  0.4508  0.0237 -0.3208
16338TIP3    H170505   2.574   1.543   2.943  0.6874 -0.7348  1.2803
16338TIP3    H270506   2.469   1.438   2.915  0.6832 -0.5543  0.6083
16339TIP3   OH270507   4.638   5.089   3.793  1.1133  0.3522  0.0898
16339TIP3    H170508   4.734   5.094   3.794  1.2169 -0.9239 -0.3968
16339TIP3    H270509   4.611   5.124   3.877  2.0130  0.7737  0.2168
16340TIP3   OH270510   5.993   3.383   0.148  0.5133 -0.5295 -0.4453
16340TIP3    H170511   6.021   3.414   0.063  0.8769 -0.7350 -0.4000
16340TIP3    H270512   5.950   3.299   0.131  1.6087 -1.1400 -0.3029
16341TIP3   OH270513   1.943   0.847   2.698  0.8055  0.0526  0.1314
16341TIP3    H170514   1.884   0.921   2.712  2.3219  1.1821  0.7960
16341TIP3    H270515   1.889   0.770   2.715 -0.2329  1.0673  1.7339
16342TIP3   OH270516   5.057   3.014   0.332 -0.4126 -0.2372 -0.0305
16342TIP3    H170517   4.962   3.022   0.337 -0.3627  0.8715 -0.7355
16342TIP3    H270518   5.071   2.935   0.279 -0.9383 -0.2782 -0.1169
16343TIP3   OH270519   0.866   6.471  15.492 -0.1255  0.4720 -0.0741
16343TIP3    H170520   0.793   6.419  15.523 -1.1035  2.9630  2.1320
16343TIP3    H270521   0.932   6.464  15.561  0.7621  0.1840 -0.9274
16344TIP3   OH270522   3.611   5.209  15.437 -0.3171 -0.1132 -0.8292
16344TIP3    H170523   3.577   5.239  15.521 -2.0114  0.9046 -1.8188
16344TIP3    H270524   3.592   5.115  15.435  1.2983 -0.5257  0.5825
16345TIP3   OH270525   4.682   5.688   1.692  0.0446 -0.3616 -0.1855
16345TIP3    H170526   4.771   5.717   1.671  1.1132 -0.8139  3.1068
16345TIP3    H270527   4.630   5.768   1.696  1.2157  0.3749  1.4365
16346TIP3   OH270528   3.106   0.479   2.737 -0.5326 -0.0942 -0.6466
16346TIP3    H170529   3.043   0.548   2.758 -0.3140 -0.0359 -0.1883
16346TIP3    H270530   3.060   0.397   2.756  0.0233 -0.0276  1.1040
16347TIP3   OH270531   0.391   4.719  11.598 -0.5511 -0.3094  0.1758
16347TIP3    H170532   0.411   4.772  11.521 -1.6440 -0.9921 -0.6033
16347TIP3    H270533   0.476   4.696  11.635 -0.0062 -0.1887 -0.9811
16348TIP3   OH270534   5.969   3.544   4.212  0.0506 -0.4934  0.3733
16348TIP3    H170535   5.995   3.452   4.208  1.0005 -0.1957 -0.6733
16348TIP3    H270536   6.036   3.591   4.163 -0.7514  0.6945  0.3602
16349TIP3   OH270537   6.530   1.977   5.134 -0.4001 -0.7692  0.0495
16349TIP3    H170538   6.475   1.925   5.192  0.2270 -1.7358 -0.1913
16349TIP3    H270539   6.476   1.994   5.058 -0.9310 -0.2446  0.5348
16350TIP3   OH270540   1.081   3.899   1.346 -0.4248 -0.2960  0.2250
16350TIP3    H170541   1.125   3.837   1.288 -2.9822 -2.0442 -0.0514
16350TIP3    H270542   1.026   3.844   1.402 -2.8191  1.6835 -0.0062
16351TIP3   OH270543   0.616   6.200   3.912 -0.3541  0.0212 -0.0553
16351TIP3    H170544   0.614   6.198   3.817  0.3669  1.0225 -0.1089
16351TIP3    H270545   0.530   6.233   3.937  0.6351  3.4308 -0.5652
16352TIP3   OH270546   5.841   1.428   5.123 -0.3637  0.0196 -0.6287
16352TIP3    H170547   5.904   1.435   5.052 -0.7145 -0.6055 -1.0128
16352TIP3    H270548   5.893   1.429   5.203 -0.0880  2.8032 -0.7631
16353TIP3   OH270549   6.811   0.047   5.862 -0.2446  0.5463  0.6239
16353TIP3    H170550   6.823  -0.005   5.941 -3.2731 -0.0564  0.8264
16353TIP3    H270551   6.724   0.087   5.873 -0.7956  0.4250 -2.3863
16354TIP3   OH270552   1.019   1.170  10.596 -0.3063 -0.2131 -0.5244
16354TIP3    H170553   1.001   1.144  10.506 -0.5319  1.0375 -0.8670
16354TIP3    H270554   1.089   1.112  10.625 -0.7220 -1.1040 -1.2531
16355TIP3   OH270555   3.559   3.556   5.454  0.0264  0.2846  0.1204
16355TIP3    H170556   3.651   3.577   5.440  0.7079 -1.5872  1.4460
16355TIP3    H270557   3.530   3.520   5.370  0.7460  0.1013 -0.0581
16356TIP3   OH270558   6.085   3.297   2.673 -0.0925  0.7169 -0.7672
16356TIP3    H170559   5.992   3.274   2.671 -0.4048  1.8421  0.1091
16356TIP3    H270560   6.106   3.304   2.766  0.8163  0.7372 -0.9629
16357TIP3   OH270561   6.326   4.519   2.730  0.3592  0.2840  0.2183
16357TIP3    H170562   6.397   4.457   2.748 -0.2119 -0.5821 -0.4557
16357TIP3    H270563   6.320   4.572   2.810  0.8634 -0.5243  0.8069
16358TIP3   OH270564   5.994   0.485   0.795  0.3360  0.1089  0.0303
16358TIP3    H170565   6.032   0.446   0.716 -0.2764 -1.1809  0.3576
16358TIP3    H270566   6.018   0.578   0.788  0.1534  0.0729 -1.7506
16359TIP3   OH270567   2.674   3.462   5.833 -0.6745  0.3345 -0.0594
16359TIP3    H170568   2.619   3.515   5.775 -0.4374  0.2030 -0.4122
16359TIP3    H270569   2.615   3.397   5.870 -0.3750 -1.2011 -2.1095
16360TIP3   OH270570   1.853   6.313   2.621  0.6517  0.5331  0.1368
16360TIP3    H170571   1.778   6.351   2.668 -2.0802 -0.4763 -3.0267
16360TIP3    H270572   1.860   6.224   2.655  2.2061  1.3387  2.2011
16361TIP3   OH270573   5.539   3.536  15.481 -0.3083 -0.0420  0.8497
16361TIP3    H170574   5.455   3.553  15.440 -0.0057 -0.7301 -0.1073
16361TIP3    H270575   5.550   3.441  15.474  1.1280  0.1628 -0.2619
16362TIP3   OH270576   2.219   4.970   2.433 -0.4131  0.3938  0.2263
16362TIP3    H170577   2.309   4.955   2.405 -0.4056  0.4201  0.2366
16362TIP3    H270578   2.168   4.964   2.352 -0.2604  1.6180  0.0227
16363TIP3   OH270579   2.377   0.836  10.920 -0.3866  0.0343 -0.1270
16363TIP3    H170580   2.380   0.741  10.931  0.2840  0.0636 -0.0110
16363TIP3    H270581   2.396   0.871  11.007  1.8274  0.2636 -0.6421
16364TIP3   OH270582   0.321   2.276   4.069  0.2458  0.1297  0.8332
16364TIP3    H170583   0.375   2.349   4.039 -1.5590  1.1867  0.0192
16364TIP3    H270584   0.268   2.253   3.993 -0.2255 -1.0933  1.5135
16365TIP3   OH270585   4.397   6.566   2.097 -0.5277 -0.7508 -0.0706
16365TIP3    H170586   4.464   6.603   2.040 -0.3200 -1.1148 -0.0677
16365TIP3    H270587   4.428   6.583   2.186  0.1205 -1.8709 -0.0567
16366TIP3   OH270588   2.825   2.618   5.008  0.2223 -0.0056 -0.1603
16366TIP3    H170589   2.762   2.612   5.080  1.4356  0.1124  0.9451
16366TIP3    H270590   2.910   2.624   5.051  0.9149  1.0077 -1.6004
16367TIP3   OH270591   0.666   6.715   3.689  0.6221 -0.6006  0.1725
16367TIP3    H170592   0.590   6.770   3.672  1.3187 -0.3070 -2.3803
16367TIP3    H270593   0.718   6.765   3.752  1.0331  1.6032 -1.7499
16368TIP3   OH270594   2.357   0.026   0.935  0.5305  0.2540  0.3683
16368TIP3    H170595   2.339   0.008   1.027  1.0843  0.8789  0.6087
16368TIP3    H270596   2.436   0.080   0.936 -0.8877  2.4653 -0.3239
16369TIP3   OH270597   1.617   3.958  13.211  0.3374 -0.4295 -0.0266
16369TIP3    H170598   1.633   4.049  13.235 -3.1723  0.5659 -0.8395
16369TIP3    H270599   1.580   3.919  13.290  2.2110 -1.3575  0.4507
16370TIP3   OH270600   6.742   0.555   6.743  0.3574 -0.3584  0.1843
16370TIP3    H170601   6.836   0.557   6.761  0.5006 -1.0289 -0.4340
16370TIP3    H270602   6.718   0.646   6.725  0.7037 -0.0506  1.2296
16371TIP3   OH270603   2.436   4.063  13.172  0.4736 -0.1504 -0.1990
16371TIP3    H170604   2.382   4.140  13.152  1.5980  0.2246 -2.1702
16371TIP3    H270605   2.516   4.077  13.121  0.9988 -2.3130 -0.0665
16372TIP3   OH270606   1.854   0.714   5.963 -0.5185 -0.0612 -0.4381
16372TIP3    H170607   1.922   0.676   6.018  0.9149  0.4882 -1.7681
16372TIP3    H270608   1.864   0.808   5.973 -0.6269  0.0349 -1.1641
16373TIP3   OH270609   6.724   4.649  12.878  0.0899 -0.1883 -0.1001
16373TIP3    H170610   6.782   4.597  12.934  1.5654 -0.5906 -1.8746
16373TIP3    H270611   6.768   4.734  12.871 -2.2580  1.4392  2.7086
16374TIP3   OH270612   2.917   6.686  16.643 -0.2145  0.5660 -0.0047
16374TIP3    H170613   2.944   6.656  16.729  0.1891  0.5038 -0.1509
16374TIP3    H270614   2.900   6.780  16.654  0.2482  0.6432  0.0440
16375TIP3   OH270615   5.909   4.830   1.017 -0.8277  0.4152 -0.2374
16375TIP3    H170616   5.937   4.810   0.928 -1.0501 -0.2135 -0.1767
16375TIP3    H270617   5.815   4.812   1.017 -0.6666 -0.5402  0.3675
16376TIP3   OH270618   1.998   4.699  12.799  0.3892  0.2689 -0.5437
16376TIP3    H170619   1.951   4.766  12.848  0.3601  0.3745 -0.7151
16376TIP3    H270620   2.090   4.722  12.809  0.3891  0.2242 -0.4414
16377TIP3   OH270621   2.328   2.721  16.510 -0.0602  0.1808  0.3257
16377TIP3    H170622   2.308   2.746  16.420 -1.1455  1.1952  0.8281
16377TIP3    H270623   2.269   2.648  16.528  0.2004 -0.0630  0.2120
16378TIP3   OH270624   0.407   1.624   0.466 -0.1792 -0.3666 -0.1015
16378TIP3    H170625   0.335   1.637   0.528  0.0258 -0.0210  0.0669
16378TIP3    H270626   0.380   1.672   0.388 -1.2513 -2.2447 -0.9486
16379TIP3   OH270627   5.408   1.946   2.906 -0.3084  0.2694 -0.4492
16379TIP3    H170628   5.481   1.918   2.960 -0.4036  1.3072  0.2479
16379TIP3    H270629   5.333   1.897   2.939 -0.2139  0.3112 -0.1707
16380TIP3   OH270630   2.332   4.994  11.763  1.0489 -1.0960  0.0915
16380TIP3    H170631   2.401   5.053  11.794  0.5373 -0.8416  0.7611
16380TIP3    H270632   2.361   4.907  11.791  1.0105 -0.9676  0.5389
16381TIP3   OH270633   1.435   3.289  13.240  0.5278  0.0797  0.0643
16381TIP3    H170634   1.460   3.308  13.331 -0.9942 -2.2245  1.0469
16381TIP3    H270635   1.365   3.351  13.221  1.1870  0.9105  0.2500
16382TIP3   OH270636   3.054   2.533  12.577 -0.2736  0.2774 -0.0509
16382TIP3    H170637   3.106   2.475  12.522  0.0984  0.9641 -0.4388
16382TIP3    H270638   3.101   2.536  12.661  0.7529  1.4643 -0.6286
16383TIP3   OH270639   3.702   6.473   2.990 -0.2697  0.2391  0.2761
16383TIP3    H170640   3.764   6.505   3.056 -1.2091  2.3355  0.2102
16383TIP3    H270641   3.756   6.420   2.931  1.2335  1.0403  0.8687
16384TIP3   OH270642   3.006   0.876   1.003 -0.1232 -0.3102 -0.0041
16384TIP3    H170643   2.922   0.845   0.967  0.2686  0.5791 -1.7945
16384TIP3    H270644   2.998   0.971   1.004  0.5400 -0.2484  0.7025
16385TIP3   OH270645   5.903   6.128  16.313  0.2019  0.2927 -0.1823
16385TIP3    H170646   5.903   6.194  16.382 -1.1624 -1.5147  1.6351
16385TIP3    H270647   5.829   6.151  16.257  1.3862  1.8318 -1.2151
16386TIP3   OH270648   5.286   3.493   4.695 -0.3102 -0.4783 -0.1209
16386TIP3    H170649   5.246   3.533   4.618 -0.4765  0.6741  0.5327
16386TIP3    H270650   5.379   3.487   4.673 -0.2679  0.3634 -0.2095
16387TIP3   OH270651   0.425   4.006  15.698 -0.3663  0.3899 -0.2348
16387TIP3    H170652   0.332   4.029  15.698 -0.6531 -0.6671  1.4150
16387TIP3    H270653   0.468   4.077  15.745 -0.7780 -0.5996  1.7102
16388TIP3   OH270654   4.657   1.305  15.214 -0.3511 -0.3923 -0.1952
16388TIP3    H170655   4.597   1.231  15.211 -0.4386 -0.3035 -1.6477
16388TIP3    H270656   4.710   1.296  15.134  0.1355  0.6945 -0.0163
16389TIP3   OH270657   6.341   5.149  17.056 -0.7764 -0.0192  0.2682
16389TIP3    H170658   6.363   5.178  16.968 -4.2828  2.8924  0.1177
16389TIP3    H270659   6.419   5.168  17.108 -0.1960  2.6121 -1.3802
16390TIP3   OH270660   1.203   2.299   4.877 -0.2353  0.2460  0.0662
16390TIP3    H170661   1.254   2.233   4.924  0.4934  1.3330  0.8691
16390TIP3    H270662   1.198   2.267   4.787  2.1855  0.2457 -0.1358
16391TIP3   OH270663   5.375   3.873  14.153 -0.1504  0.1469 -0.1683
16391TIP3    H170664   5.459   3.837  14.183 -1.2605 -1.8395  0.6885
16391TIP3    H270665   5.395   3.965  14.133  1.5958  0.5321  2.7571
16392TIP3   OH270666   0.021   3.299   0.227  0.3735 -0.3771 -0.0916
16392TIP3    H170667   0.028   3.324   0.135  0.3720 -0.9990 -0.2678
16392TIP3    H270668   0.022   3.381   0.275 -2.0115  0.1274 -0.7918
16393TIP3   OH270669   4.986   4.060   2.324 -0.3584  0.4237  0.5205
16393TIP3    H170670   5.027   3.995   2.382  0.4442  0.1730 -0.3082
16393TIP3    H270671   4.896   4.031   2.317  0.1327 -1.0011 -0.3486
16394TIP3   OH270672   5.023   3.117  16.288  0.4185 -0.5927 -0.7903
16394TIP3    H170673   5.039   3.155  16.374 -0.1992 -2.1540  0.0442
16394TIP3    H270674   5.023   3.022  16.302  1.6101 -0.9477 -2.7503
16395TIP3   OH270675   1.355   6.639   1.516 -0.4818  0.0324 -0.1445
16395TIP3    H170676   1.334   6.565   1.573 -0.1837  0.6315  0.7740
16395TIP3    H270677   1.447   6.660   1.537  0.4144 -1.1736 -2.5120
16396TIP3   OH270678   6.613   2.455   3.295 -0.0535  0.1520 -0.3808
16396TIP3    H170679   6.682   2.503   3.340 -2.1947  1.8195  1.3333
16396TIP3    H270680   6.592   2.510   3.219  1.1482 -0.8844 -1.5062
16397TIP3   OH270681   6.026   0.874   0.562  0.5468  0.4684  0.4216
16397TIP3    H170682   6.030   0.966   0.589 -0.2808  0.2906  1.1998
16397TIP3    H270683   5.941   0.865   0.520  1.2364  0.3937 -1.0353
16398TIP3   OH270684   6.466   3.402  14.270  0.1756 -0.0501 -0.2179
16398TIP3    H170685   6.402   3.471  14.250  1.5747  1.9988  1.9179
16398TIP3    H270686   6.412   3.329  14.302 -1.2118  1.5940  1.4854
16399TIP3   OH270687   4.061   4.468  12.174  0.1542  0.1627 -0.5373
16399TIP3    H170688   4.013   4.542  12.136  0.8691  0.6489 -0.5033
16399TIP3    H270689   4.069   4.489  12.267  2.3651  1.1892 -0.8993
16400TIP3   OH270690   4.521   3.391  12.986  0.1272  0.2772 -0.2987
16400TIP3    H170691   4.525   3.356  12.897 -1.0823  0.2115 -0.3449
16400TIP3    H270692   4.571   3.472  12.982  0.8103 -0.1636 -0.8205
16401TIP3   OH270693   1.092   0.762  16.407 -0.0197  0.1108 -0.0949
16401TIP3    H170694   1.146   0.725  16.337  0.8521 -0.4913  0.8634
16401TIP3    H270695   1.090   0.694  16.474 -2.2814 -0.0172 -0.2325
16402TIP3   OH270696   3.298   3.020   1.160 -0.2168  0.1336 -0.2227
16402TIP3    H170697   3.299   2.944   1.102  0.6448  0.7038 -0.9915
16402TIP3    H270698   3.218   3.011   1.212  0.0057 -1.4233 -0.1191
16403TIP3   OH270699   3.796   3.249   5.456  0.3216 -0.4003  0.1977
16403TIP3    H170700   3.822   3.165   5.492  0.0722 -0.4986  0.1517
16403TIP3    H270701   3.743   3.290   5.524 -1.1385 -1.0861 -0.4799
16404TIP3   OH270702   0.197   5.799  14.744  0.3226  0.2389 -0.8929
16404TIP3    H170703   0.283   5.833  14.770  0.6864 -1.1850 -0.1314
16404TIP3    H270704   0.166   5.860  14.676  0.9917  1.9644  0.2856
16405TIP3   OH270705   4.989   0.070   0.027 -0.2357  0.0702  0.0054
16405TIP3    H170706   4.903   0.100  -0.003 -0.6124  0.9759  1.8730
16405TIP3    H270707   5.038   0.151   0.042 -0.8989 -0.1206  4.1278
16406TIP3   OH270708   2.078   3.724  11.410  0.3515 -0.1511 -0.5577
16406TIP3    H170709   2.155   3.741  11.464  0.8872 -0.2299 -1.2855
16406TIP3    H270710   2.036   3.810  11.401  0.6089 -0.0212 -0.5388
16407TIP3   OH270711   3.173   4.051  12.015  0.7839 -0.2123  0.2881
16407TIP3    H170712   3.237   4.087  11.953 -0.5000 -0.3329 -1.1689
16407TIP3    H270713   3.184   4.103  12.094  1.4073  0.9933 -0.5629
16408TIP3   OH270714   5.015   2.881  11.853  1.1034  0.7287  0.7795
16408TIP3    H170715   4.957   2.852  11.924 -1.4149  1.6224 -0.7622
16408TIP3    H270716   5.092   2.825  11.861  0.4055 -0.0075  3.4615
16409TIP3   OH270717   5.956   2.230   3.540 -0.2156 -0.0278  0.2581
16409TIP3    H170718   5.964   2.149   3.489 -0.0883 -0.9223  1.6481
16409TIP3    H270719   5.862   2.240   3.553 -0.3354  0.8163 -1.0546
16410TIP3   OH270720   3.919   2.440   6.545  0.5953  0.9725  0.0291
16410TIP3    H170721   3.924   2.536   6.549 -1.0614  1.0636  1.4154
16410TIP3    H270722   3.845   2.418   6.601 -0.1944 -1.0240 -1.6554
16411TIP3   OH270723   4.474   0.587   4.964 -0.4979 -0.4725 -0.2681
16411TIP3    H170724   4.546   0.650   4.972 -0.2514 -0.4931 -1.9818
16411TIP3    H270725   4.517   0.504   4.941 -1.1078 -0.3014 -2.1039
16412TIP3   OH270726   5.888   0.630   4.372 -0.7695  0.4050  0.0690
16412TIP3    H170727   5.952   0.698   4.395 -1.2327  2.0371 -2.8701
16412TIP3    H270728   5.936   0.572   4.313 -1.2367 -0.0217  0.1088
16413TIP3   OH270729   1.899   1.307   2.383 -0.5174 -0.0579 -0.0401
16413TIP3    H170730   1.941   1.221   2.388 -0.4326 -0.0067  0.1616
16413TIP3    H270731   1.883   1.321   2.290  1.1091  0.5097 -0.2677
16414TIP3   OH270732   6.808   0.688  16.093 -0.9125 -0.2412  0.1653
16414TIP3    H170733   6.792   0.596  16.110 -0.8759 -0.1980  0.4413
16414TIP3    H270734   6.779   0.702  16.003 -1.0286 -0.4938  0.1645
16415TIP3   OH270735   0.550   3.615   5.367 -0.4180 -0.8943  0.0074
16415TIP3    H170736   0.516   3.683   5.308 -0.6345 -0.9593  0.0558
16415TIP3    H270737   0.576   3.663   5.446  1.5382 -0.5566 -0.7914
16416TIP3   OH270738   2.924   5.308   5.727  0.5054  0.4427 -0.6930
16416TIP3    H170739   2.867   5.237   5.755  0.8631 -0.4165 -2.0221
16416TIP3    H270740   2.970   5.336   5.807 -1.2675  0.7311  0.2666
16417TIP3   OH270741   2.718   4.173   5.301  0.4293 -0.3287 -0.2857
16417TIP3    H170742   2.672   4.249   5.264 -0.3463 -0.9500 -0.6347
16417TIP3    H270743   2.803   4.173   5.258  0.4823  0.3991 -0.2017
16418TIP3   OH270744   6.310   4.993  11.658 -0.2601  0.2724  0.2267
16418TIP3    H170745   6.277   5.035  11.578 -0.6332 -0.3647  0.0340
16418TIP3    H270746   6.346   4.910  11.628 -1.4857 -0.5221  0.8504
16419TIP3   OH270747   1.811   0.596   0.812 -0.3539 -0.1109  0.3573
16419TIP3    H170748   1.849   0.526   0.758  0.7374  1.4430 -0.9637
16419TIP3    H270749   1.723   0.608   0.776 -0.0299  0.1647 -0.3502
16420TIP3   OH270750   3.861   2.113   6.483 -0.7765  0.1835  0.4457
16420TIP3    H170751   3.941   2.162   6.502 -0.4962 -0.7902  1.9748
16420TIP3    H270752   3.824   2.093   6.569 -2.3735  0.1197 -0.2182
16421TIP3   OH270753   5.318   4.444  12.199  0.8384  0.4315 -0.5193
16421TIP3    H170754   5.317   4.432  12.104 -1.5358  0.2662 -0.5380
16421TIP3    H270755   5.407   4.473  12.218  2.1171 -1.8624 -2.4652
16422TIP3   OH270756   4.214   3.382  15.361 -0.0135 -0.1533 -0.7295
16422TIP3    H170757   4.230   3.334  15.280  1.7431  1.7741 -1.5997
16422TIP3    H270758   4.120   3.373  15.376 -0.4270 -0.3358 -3.1240
16423TIP3   OH270759   2.569   2.448   2.606 -0.1069 -0.0846  0.0623
16423TIP3    H170760   2.557   2.363   2.563  0.0228 -0.5697  0.9612
16423TIP3    H270761   2.498   2.451   2.671 -0.7240  0.9380 -0.6306
16424TIP3   OH270762   3.215   2.307  11.879  0.1381  1.0181  0.0582
16424TIP3    H170763   3.300   2.341  11.907 -0.0266  1.4608  0.0260
16424TIP3    H270764   3.221   2.303  11.783 -0.3781  2.4093 -0.0454
16425TIP3   OH270765   4.095   1.962   5.495  0.2314  0.0171 -0.0121
16425TIP3    H170766   4.002   1.939   5.489 -0.2224  1.3373  1.5226
16425TIP3    H270767   4.133   1.891   5.548  0.5252 -1.5172 -2.1486
16426TIP3   OH270768   3.719   5.850  16.517 -0.0901  0.0003 -0.3859
16426TIP3    H170769   3.757   5.929  16.555 -2.1228  1.0115 -0.3337
16426TIP3    H270770   3.663   5.882  16.446 -0.4480 -1.4483 -0.7959
16427TIP3   OH270771   3.858   6.573   5.505  0.4260  0.1359  0.4068
16427TIP3    H170772   3.786   6.537   5.557  0.3379 -0.1558  0.0895
16427TIP3    H270773   3.838   6.547   5.415 -0.4328  2.2999 -0.0668
16428TIP3   OH270774   1.290   4.990   0.831 -0.6650  0.2068  0.6106
16428TIP3    H170775   1.218   4.936   0.799 -0.2427 -0.1584  0.2649
16428TIP3    H270776   1.286   5.070   0.777 -0.0035 -0.3726 -0.3435
16429TIP3   OH270777   2.463   5.524  14.386 -0.2962 -0.5452  0.9674
16429TIP3    H170778   2.511   5.443  14.405 -0.8339 -1.3457 -0.9061
16429TIP3    H270779   2.371   5.500  14.395 -0.4458  0.0731  1.1252
16430TIP3   OH270780   5.868   1.561   2.215  0.9527 -0.4995  0.3193
16430TIP3    H170781   5.800   1.629   2.217  1.7838  0.3318  1.0040
16430TIP3    H270782   5.891   1.548   2.307  3.9727  1.5700 -0.0007
16431TIP3   OH270783   3.408   5.275  11.980  0.8810  0.4068 -0.1555
16431TIP3    H170784   3.475   5.226  12.028  1.5639  1.4786 -0.0074
16431TIP3    H270785   3.342   5.296  12.046  1.2255  0.8175  0.0600
16432TIP3   OH270786   0.457   3.459  14.961 -0.0578  0.0838 -0.1253
16432TIP3    H170787   0.465   3.542  15.008 -0.9049  0.7401 -1.0822
16432TIP3    H270788   0.391   3.410  15.009  2.1579 -1.1322  1.8948
16433TIP3   OH270789   5.326   4.331   4.283 -0.4577  0.6449  0.0899
16433TIP3    H170790   5.421   4.336   4.293 -0.5170 -0.5339  1.6412
16433TIP3    H270791   5.308   4.381   4.204  1.4858  0.6068 -0.4438
16434TIP3   OH270792   4.185   3.585   5.327 -0.3746  0.5118  0.2315
16434TIP3    H170793   4.159   3.595   5.419 -0.4665  0.2516  0.2355
16434TIP3    H270794   4.225   3.497   5.323  0.5898  0.9333  0.2468
16435TIP3   OH270795   6.219   6.468   4.165  0.0501  0.4976  0.2329
16435TIP3    H170796   6.179   6.491   4.081  0.5730  0.1052 -0.1319
16435TIP3    H270797   6.230   6.552   4.210  1.3838  0.9373 -0.8322
16436TIP3   OH270798   1.202   5.541  12.281  0.3622  0.1215  0.0242
16436TIP3    H170799   1.182   5.624  12.239  1.5629 -1.1310 -3.3709
16436TIP3    H270800   1.116   5.507  12.309 -0.4164  1.4184 -0.6865
16437TIP3   OH270801   4.818   0.073  11.681 -0.6230 -0.1994  0.3587
16437TIP3    H170802   4.893   0.014  11.694  0.5151  0.6913 -1.5906
16437TIP3    H270803   4.855   0.161  11.694 -1.6483  0.2049  0.5981
16438TIP3   OH270804   4.326   4.058   3.687  0.2700 -0.7049  0.2056
16438TIP3    H170805   4.420   4.049   3.671  0.5014 -2.1378  1.9960
16438TIP3    H270806   4.285   4.002   3.621  0.8098 -1.6890  0.6911
16439TIP3   OH270807   4.164   6.259  16.113 -0.1677 -0.1887 -0.0858
16439TIP3    H170808   4.253   6.261  16.147 -1.1443  0.5946  2.6529
16439TIP3    H270809   4.169   6.198  16.039  2.9727  1.2706 -1.2646
16440TIP3   OH270810   1.752   6.156  13.270  0.2265  0.1965  0.6058
16440TIP3    H170811   1.784   6.081  13.321  0.8480 -0.6217 -0.9214
16440TIP3    H270812   1.820   6.223  13.281  1.8902 -1.0344 -1.4815
16441TIP3   OH270813   6.649   0.755   0.092  0.2161  0.4272  0.1698
16441TIP3    H170814   6.684   0.843   0.108  1.0482 -0.1127  1.5152
16441TIP3    H270815   6.710   0.697   0.138 -1.3408 -0.7146  0.8631
16442TIP3   OH270816   2.658   4.455  15.653 -0.6130  0.5115  0.2725
16442TIP3    H170817   2.641   4.476  15.561 -1.5311 -1.1420  0.0215
16442TIP3    H270818   2.744   4.413  15.652 -1.6667 -1.8403 -0.2962
16443TIP3   OH270819   0.243   2.924  13.074 -0.3788 -0.4136 -0.4014
16443TIP3    H170820   0.325   2.882  13.047  0.0955  0.4762 -0.3671
16443TIP3    H270821   0.264   2.966  13.158 -0.9497 -0.4197 -0.2536
16444TIP3   OH270822   2.880   0.321   5.134  0.3394  0.3145  0.2551
16444TIP3    H170823   2.878   0.411   5.167  2.5810 -0.4574  2.8568
16444TIP3    H270824   2.801   0.281   5.169 -0.0936  0.9581  0.0342
16445TIP3   OH270825   5.530   0.174   1.647  0.2272 -0.4951 -0.5005
16445TIP3    H170826   5.572   0.177   1.561  1.0749  0.0585 -0.0843
16445TIP3    H270827   5.591   0.123   1.701 -0.0883 -0.4720 -0.1218
16446TIP3   OH270828   5.050   1.180  12.174 -0.1893 -0.3357 -0.0244
16446TIP3    H170829   5.065   1.253  12.235  1.4529 -0.9920  0.4143
16446TIP3    H270830   5.010   1.112  12.229 -1.4689  0.0941 -0.3760
16447TIP3   OH270831   6.058   3.626   6.773 -0.1515 -0.3771  0.0677
16447TIP3    H170832   6.069   3.614   6.867  1.0824 -1.0874 -0.1367
16447TIP3    H270833   5.963   3.629   6.760 -0.5436 -4.0748  0.9497
16448TIP3   OH270834   6.253   6.609  11.291  0.3098  0.1020 -0.4568
16448TIP3    H170835   6.167   6.599  11.251  0.2110 -3.2551  0.3321
16448TIP3    H270836   6.251   6.554  11.369  2.4444  1.7783  0.9095
16449TIP3   OH270837   5.026   1.754   4.614 -0.1215 -0.0340  0.2965
16449TIP3    H170838   5.079   1.701   4.555  1.6417  0.0695  1.6938
16449TIP3    H270839   5.072   1.750   4.698 -3.1270 -1.1635  2.0618
16450TIP3   OH270840   3.121   4.444  15.985  0.3339  0.1677 -0.4460
16450TIP3    H170841   3.059   4.375  16.009  0.8053 -0.8764 -2.0400
16450TIP3    H270842   3.175   4.457  16.063 -1.3811  0.5900  0.7375
16451TIP3   OH270843   1.140   4.409  17.248  0.1672  0.2590 -0.1154
16451TIP3    H170844   1.119   4.366  17.331  0.9729 -0.9454 -0.5118
16451TIP3    H270845   1.068   4.385  17.189 -0.2388  0.8522  0.1216
16452TIP3   OH270846   4.459   2.114  15.484  0.1773  0.5296  0.0517
16452TIP3    H170847   4.499   2.027  15.491  0.2700  0.5379 -0.3620
16452TIP3    H270848   4.407   2.123  15.564  0.8402  0.4321  0.5030
16453TIP3   OH270849   2.585   4.313   0.674 -0.0171 -0.2541  0.6931
16453TIP3    H170850   2.556   4.322   0.765  0.4350  0.4768  0.7700
16453TIP3    H270851   2.605   4.220   0.664 -1.3088 -0.5817  0.9548
16454TIP3   OH270852   5.825   1.826  14.898  0.3097 -0.2143 -0.1734
16454TIP3    H170853   5.735   1.836  14.930  0.8829  0.4614  1.3005
16454TIP3    H270854   5.830   1.734  14.870 -0.6063 -0.4698  0.4580
16455TIP3   OH270855   4.690   1.108   3.009  0.0122  0.3205  0.6075
16455TIP3    H170856   4.704   1.190   3.055  0.0200  0.1327  0.9493
16455TIP3    H270857   4.604   1.079   3.039 -1.5702  1.8779 -2.1035
16456TIP3   OH270858   0.982   3.929   3.148 -0.1051 -0.2497  0.2531
16456TIP3    H170859   1.030   4.004   3.111 -0.8166  0.4482  0.6969
16456TIP3    H270860   0.999   3.935   3.242  1.1708 -1.6353  0.1565
16457TIP3   OH270861   2.788   5.244   6.273 -0.4177 -0.0350 -0.1661
16457TIP3    H170862   2.758   5.196   6.350  0.1278 -0.3433 -0.1441
16457TIP3    H270863   2.877   5.271   6.294 -0.8871  1.4716  0.0455
16458TIP3   OH270864   3.037   1.878  16.482  0.1695 -0.4769  0.3950
16458TIP3    H170865   3.068   1.914  16.566  4.4151  0.0098 -1.1112
16458TIP3    H270866   2.982   1.947  16.446  0.1065  0.2729  1.8257
16459TIP3   OH270867   2.297   4.699  14.288  0.2836  0.2376 -0.5282
16459TIP3    H170868   2.237   4.769  14.261  1.7551  1.6340 -0.4010
16459TIP3    H270869   2.286   4.693  14.383  0.6746  0.8349 -0.4395
16460TIP3   OH270870   6.649   4.869  15.557  0.2650 -0.0689  0.1020
16460TIP3    H170871   6.706   4.801  15.595  0.3904 -0.5486 -0.9137
16460TIP3    H270872   6.586   4.821  15.504  1.4494  0.6574 -2.0932
16461TIP3   OH270873   4.357   0.649   6.100  0.6848  0.1918  0.2795
16461TIP3    H170874   4.313   0.695   6.171  3.3187  1.2994  1.3298
16461TIP3    H270875   4.339   0.557   6.115 -1.7193  0.6087  0.2571
16462TIP3   OH270876   6.612   1.965  13.334  0.1189  0.0328  0.1511
16462TIP3    H170877   6.625   2.023  13.410 -3.3429  0.8472  0.3071
16462TIP3    H270878   6.587   1.881  13.372  0.6589 -0.2474 -0.1049
16463TIP3   OH270879   1.921   0.066   4.211 -0.1008  0.2089  0.2778
16463TIP3    H170880   1.895   0.140   4.266  0.7217  0.2692  0.6078
16463TIP3    H270881   1.972   0.010   4.269 -0.7293 -0.6300  0.0305
16464TIP3   OH270882   0.992   6.467   3.742  0.3186  0.2710  0.0225
16464TIP3    H170883   0.912   6.481   3.792 -0.1641  0.5370 -0.8083
16464TIP3    H270884   0.965   6.473   3.650  1.3854  0.9516 -0.2753
16465TIP3   OH270885   5.176   3.391   6.882  0.3017 -0.4179 -0.4841
16465TIP3    H170886   5.139   3.308   6.852  0.9559 -0.7912 -0.2749
16465TIP3    H270887   5.117   3.458   6.847 -1.2956 -1.0394  0.9013
16466TIP3   OH270888   1.126   5.917  16.627  0.5991 -0.2169  0.7267
16466TIP3    H170889   1.057   5.979  16.651  1.3245  1.1873 -0.6243
16466TIP3    H270890   1.161   5.886  16.710 -0.1128  0.8203  1.4349
16467TIP3   OH270891   0.287   2.600   0.356 -0.0680 -0.3432 -0.3378
16467TIP3    H170892   0.248   2.523   0.314 -0.8849 -0.9557  1.4052
16467TIP3    H270893   0.217   2.666   0.355  0.0499 -0.2178 -0.3386
16468TIP3   OH270894   0.994   5.454  13.595  0.2221 -0.5619 -0.5556
16468TIP3    H170895   0.904   5.469  13.565 -0.0591  1.2859  1.0097
16468TIP3    H270896   0.984   5.422  13.685  1.0976  0.8684  0.0990
16469TIP3   OH270897   1.685   2.571  17.095  0.5409 -0.5391  0.3765
16469TIP3    H170898   1.711   2.658  17.124 -1.6827 -0.0953  1.2232
16469TIP3    H270899   1.655   2.527  17.175 -0.5493 -1.2385 -0.3861
16470TIP3   OH270900   0.310   3.321   0.492  0.1899  0.1525  0.5699
16470TIP3    H170901   0.361   3.386   0.443  1.4991  0.4855  2.2791
16470TIP3    H270902   0.263   3.373   0.557 -2.0657 -0.2006 -0.6534
16471TIP3   OH270903   3.551   0.543   0.507  0.9363 -0.2542 -0.0453
16471TIP3    H170904   3.554   0.466   0.563 -4.4271 -0.4804  0.3832
16471TIP3    H270905   3.523   0.614   0.564  0.4475  0.7523 -1.4693
16472TIP3   OH270906   3.933   2.395  12.184  0.2015  0.2455 -0.0864
16472TIP3    H170907   3.960   2.323  12.126 -0.3391 -0.3800  0.4249
16472TIP3    H270908   3.859   2.435  12.140 -2.4156 -2.3041  1.6062
16473TIP3   OH270909   0.334   1.022   2.725 -0.3045  0.1326 -0.1066
16473TIP3    H170910   0.304   0.950   2.669  0.9806  0.9732 -1.9464
16473TIP3    H270911   0.405   0.984   2.776  0.1419 -0.0158 -0.8228
16474TIP3   OH270912   6.135   0.014  14.089  0.3792  0.6748 -0.0999
16474TIP3    H170913   6.110   0.080  14.025  0.4224  1.0377  0.2533
16474TIP3    H270914   6.101  -0.068  14.053 -1.4808  1.1609  0.4224
16475TIP3   OH270915   1.012   6.121  12.099 -0.4100  0.0585  0.3384
16475TIP3    H170916   0.962   6.040  12.092  0.9409 -0.7135 -0.8722
16475TIP3    H270917   0.967   6.172  12.167 -1.1804 -1.7705  1.2466
16476TIP3   OH270918   4.569   3.930  16.446  0.3520 -0.5321  0.4497
16476TIP3    H170919   4.653   3.905  16.484 -0.2614 -1.6714  1.1233
16476TIP3    H270920   4.508   3.863  16.478 -0.7952  0.2407 -0.0744
16477TIP3   OH270921   4.592   3.168   2.663 -0.4365  0.1104 -0.3648
16477TIP3    H170922   4.569   3.218   2.585 -0.8796  2.0500  0.9495
16477TIP3    H270923   4.627   3.232   2.724 -2.4375 -0.8451  1.9683
16478TIP3   OH270924   1.913   4.485  13.330 -0.3909 -0.2625  0.1080
16478TIP3    H170925   1.968   4.548  13.284 -0.0600 -0.6116  0.0266
16478TIP3    H270926   1.946   4.399  13.304 -2.1324 -0.5352 -1.4175
16479TIP3   OH270927   5.838   3.720   0.924  0.1510  0.4745 -0.4620
16479TIP3    H170928   5.928   3.740   0.898  0.2445 -1.9991 -2.4312
16479TIP3    H270929   5.847   3.674   1.008  0.8798 -0.6698 -1.1325
16480TIP3   OH270930   3.215   5.786  16.115  0.1191  0.9000 -0.1945
16480TIP3    H170931   3.298   5.747  16.142 -0.9985 -0.6286  1.2147
16480TIP3    H270932   3.178   5.822  16.195 -1.1108  0.5047 -0.5551
16481TIP3   OH270933   2.734   5.994  15.136  0.0235 -0.1662  0.3825
16481TIP3    H170934   2.819   5.951  15.126  1.0422  1.8959 -0.4312
16481TIP3    H270935   2.676   5.946  15.078  1.1818 -0.2910 -0.7244
16482TIP3   OH270936   4.671   1.874  12.084 -0.2709  0.0344 -0.0426
16482TIP3    H170937   4.575   1.880  12.090 -0.3398  0.0096 -1.0119
16482TIP3    H270938   4.702   1.908  12.168 -1.1238  0.2119  0.2118
16483TIP3   OH270939   0.921   2.041   2.049 -0.0414 -0.2461 -0.5072
16483TIP3    H170940   0.994   2.083   2.003 -1.6734  1.8936 -1.2943
16483TIP3    H270941   0.906   1.960   2.001  0.5899  0.2166 -1.5156
16484TIP3   OH270942   5.073   1.815   2.685 -0.7337 -0.0516 -0.3888
16484TIP3    H170943   5.112   1.737   2.723 -2.9030 -0.8471  0.3806
16484TIP3    H270944   5.049   1.789   2.596  1.6805  0.8922 -1.3882
16485TIP3   OH270945   1.858   2.571   3.185  0.5913 -0.0722  0.7725
16485TIP3    H170946   1.859   2.585   3.279 -1.9863 -1.7630  1.1425
16485TIP3    H270947   1.812   2.648   3.150 -1.3198 -0.9293  1.2927
16486TIP3   OH270948   2.789   6.441  15.322 -0.0873 -0.2231  0.3012
16486TIP3    H170949   2.780   6.392  15.404 -1.3622  1.4907  1.2506
16486TIP3    H270950   2.701   6.476  15.306  0.0171 -0.8870 -2.0804
16487TIP3   OH270951   0.658   6.726   2.963  0.0437  0.3129 -0.2372
16487TIP3    H170952   0.636   6.658   3.027  0.0639  0.2744 -0.2710
16487TIP3    H270953   0.700   6.795   3.014 -3.1164  1.9002  0.4360
16488TIP3   OH270954   0.530   5.550   5.280  0.3050 -0.4180 -0.1514
16488TIP3    H170955   0.553   5.538   5.188 -0.6705 -1.8489 -0.2458
16488TIP3    H270956   0.479   5.472   5.302  0.5200 -0.0968  1.6077
16489TIP3   OH270957   3.909   4.076  12.850  0.0005 -0.3435 -0.0011
16489TIP3    H170958   3.995   4.116  12.855  0.3310 -0.8231 -1.4750
16489TIP3    H270959   3.871   4.090  12.937  1.6891 -0.4507  0.7929
16490TIP3   OH270960   4.704   6.767   2.550 -0.2305  0.4118  0.5070
16490TIP3    H170961   4.636   6.765   2.618 -1.0521  2.9775 -0.1164
16490TIP3    H270962   4.785   6.749   2.597 -1.0841 -0.6406  1.6546
16491TIP3   OH270963   2.048   4.870   1.036 -0.0913  0.0346 -1.0378
16491TIP3    H170964   2.072   4.939   0.974  1.3825 -1.1800 -1.8661
16491TIP3    H270965   2.131   4.833   1.065 -0.8048 -0.4750  0.4986
16492TIP3   OH270966   3.941   1.488   5.623 -0.4553  0.0578 -0.0149
16492TIP3    H170967   3.985   1.547   5.563  2.2713 -1.3950  0.3474
16492TIP3    H270968   3.971   1.516   5.710  0.0474 -1.1634  0.2266
16493TIP3   OH270969   1.345   3.454   3.228  0.3307 -0.1986 -0.1388
16493TIP3    H170970   1.300   3.397   3.166  0.0695 -0.4402  0.2654
16493TIP3    H270971   1.431   3.414   3.239 -0.0537 -0.8476  0.5810
16494TIP3   OH270972   5.605   0.767  14.504  0.4125 -0.2285 -0.1280
16494TIP3    H170973   5.533   0.706  14.521  0.0518  0.1097 -0.4068
16494TIP3    H270974   5.656   0.724  14.435 -0.3352  0.1667 -0.9530
16495TIP3   OH270975   4.396   1.609  14.684  0.1463  0.3894  0.4435
16495TIP3    H170976   4.388   1.692  14.730 -0.8665  0.0318  0.9371
16495TIP3    H270977   4.437   1.632  14.600  0.1498  1.3323  0.6942
16496TIP3   OH270978   1.612   5.785   2.929 -0.2857 -0.4908 -0.0477
16496TIP3    H170979   1.636   5.694   2.942  0.1625 -0.1567  1.8313
16496TIP3    H270980   1.688   5.835   2.957 -1.2641  0.4771  1.0332
16497TIP3   OH270981   2.985   5.792   2.447  0.5733 -0.1892  0.0637
16497TIP3    H170982   2.974   5.870   2.503  1.2172 -1.5057  2.1564
16497TIP3    H270983   2.895   5.765   2.428  0.2940 -0.3304  1.4466
16498TIP3   OH270984   4.373   1.517  16.266 -0.4218 -0.9716  0.1576
16498TIP3    H170985   4.366   1.451  16.335 -1.4544 -0.9501  0.0876
16498TIP3    H270986   4.349   1.470  16.186 -1.6031 -0.4109  0.1698
16499TIP3   OH270987   1.664   6.814  16.741  0.1941 -0.3201  0.3097
16499TIP3    H170988   1.655   6.876  16.669  0.7956  0.6260  1.0237
16499TIP3    H270989   1.754   6.782  16.735 -0.0588 -1.0039  0.0507
16500TIP3   OH270990   4.620   5.432  11.863 -0.1443 -0.3508 -0.4485
16500TIP3    H170991   4.658   5.347  11.839  0.9269  0.0807 -0.3493
16500TIP3    H270992   4.602   5.474  11.779 -0.6754 -0.6663 -0.4984
16501TIP3   OH270993   0.322   1.611  12.758 -0.3774 -0.5905 -0.4966
16501TIP3    H170994   0.392   1.553  12.790 -1.3439 -1.5326 -0.0259
16501TIP3    H270995   0.261   1.617  12.831 -1.1178 -0.3265 -1.1235
16502TIP3   OH270996   0.372   5.288   0.413 -0.1393  0.4066 -0.4824
16502TIP3    H170997   0.355   5.194   0.408  1.9097  0.0629 -3.1797
16502TIP3    H270998   0.437   5.296   0.482  1.1449 -0.4920 -1.5236
16503TIP3   OH270999   0.789   3.593  14.571  0.8735  0.1449  0.2134
16503TIP3    H171000   0.814   3.507  14.538 -0.6871 -0.2676  0.0585
16503TIP3    H271001   0.788   3.649  14.494 -1.4615 -0.5149 -0.3082
16504TIP3   OH271002   1.005   0.808  15.310  0.3457  0.5741  0.0565
16504TIP3    H171003   0.913   0.814  15.334 -0.1601 -1.9460 -0.9676
16504TIP3    H271004   1.052   0.834  15.389 -1.2476 -1.5308  1.8434
16505TIP3   OH271005   0.125   0.707   5.623 -0.2563  0.3641  0.0936
16505TIP3    H171006   0.127   0.785   5.568  0.7612 -0.0668 -0.5048
16505TIP3    H271007   0.145   0.635   5.563  0.4642 -0.1600  0.9523
16506TIP3   OH271008   2.154   6.373  13.080  0.0942 -0.3971  0.1153
16506TIP3    H171009   2.238   6.381  13.035 -0.9170  0.6838 -1.7124
16506TIP3    H271010   2.089   6.372  13.010 -1.3785 -2.6570  1.3969
16507TIP3   OH271011   0.954   0.586  12.393  0.3021 -0.2127  0.1645
16507TIP3    H171012   0.885   0.607  12.456 -0.9686  1.8505 -1.7803
16507TIP3    H271013   0.952   0.491  12.387  1.4601 -0.6794  4.1957
16508TIP3   OH271014   4.710   2.728  13.271 -0.0791 -0.9136  0.0726
16508TIP3    H171015   4.783   2.752  13.214 -0.3371 -0.2468  0.0163
16508TIP3    H271016   4.679   2.645  13.237  1.6145 -2.0004  1.0036
16509TIP3   OH271017   2.757   0.198  12.472 -0.6560  0.5500 -0.2895
16509TIP3    H171018   2.791   0.108  12.478 -1.2188  0.4106  2.1606
16509TIP3    H271019   2.827   0.248  12.431  1.1884 -0.3903  1.5072
16510TIP3   OH271020   3.691   4.693   2.559 -0.6721  0.0948  0.5166
16510TIP3    H171021   3.708   4.616   2.614  0.9024  0.1762  0.1674
16510TIP3    H271022   3.739   4.676   2.478 -2.1974  0.4177 -0.4976
16511TIP3   OH271023   6.367   2.080  13.192 -0.6844  0.3291  0.0213
16511TIP3    H171024   6.413   2.043  13.268  1.5837  2.2838 -0.2751
16511TIP3    H271025   6.341   2.004  13.140  0.2831 -0.9435  1.3195
16512TIP3   OH271026   5.148   3.450  14.344 -0.0536  0.4160  0.0638
16512TIP3    H171027   5.169   3.457  14.437  1.1514 -0.1452 -0.1430
16512TIP3    H271028   5.162   3.538  14.309  2.0712  0.0929 -0.0520
16513TIP3   OH271029   5.474   1.507  14.334  0.2928  0.3576  0.0223
16513TIP3    H171030   5.492   1.423  14.293  2.0622 -0.0723  1.5118
16513TIP3    H271031   5.557   1.530  14.378 -0.1985  2.7759 -0.1732
16514TIP3   OH271032   0.263   1.740   2.215 -0.2503  0.3263  0.6438
16514TIP3    H171033   0.252   1.788   2.133 -1.2869 -0.6599  0.1832
16514TIP3    H271034   0.342   1.688   2.203 -0.2419  0.3993  0.3890
16515TIP3   OH271035   1.384   4.533  12.143  0.0731  0.3966  0.3159
16515TIP3    H171036   1.344   4.450  12.171 -0.9918  0.8735  0.2482
16515TIP3    H271037   1.425   4.567  12.223 -0.1331  0.1675  0.5230
16516TIP3   OH271038   0.143   0.703   2.062  0.4306 -0.4560 -0.4147
16516TIP3    H171039   0.142   0.715   2.157 -1.1954 -0.5661 -0.3745
16516TIP3    H271040   0.234   0.686   2.040  0.7361 -1.0759  1.2113
16517TIP3   OH271041   1.675   3.040  15.154 -0.0491  0.2673  0.1129
16517TIP3    H171042   1.723   2.987  15.091 -2.0462 -0.1920 -1.1128
16517TIP3    H271043   1.647   2.978  15.222 -1.2378 -0.0246 -0.6219
16518TIP3   OH271044   2.905   2.543  11.449 -0.1562 -0.2541  0.7289
16518TIP3    H171045   2.975   2.579  11.394 -1.0471 -1.0918 -1.0243
16518TIP3    H271046   2.879   2.617  11.505  2.0947  0.0763  1.4539
16519TIP3   OH271047   5.339   1.198   5.889 -0.1884  0.0363 -0.5207
16519TIP3    H171048   5.305   1.167   5.973  1.8665  0.0436  0.3780
16519TIP3    H271049   5.292   1.280   5.873 -0.7146 -0.0280  0.5528
16520TIP3   OH271050   3.869   3.673  16.880 -0.1208 -0.2341  0.4340
16520TIP3    H171051   3.860   3.582  16.851  0.6169 -0.0318 -0.4886
16520TIP3    H271052   3.789   3.690  16.930 -2.5202 -0.0409 -3.0997
16521TIP3   OH271053   3.421   0.391  14.677 -0.0460 -0.4667  0.1809
16521TIP3    H171054   3.514   0.369  14.680 -0.1667 -1.0565 -0.2136
16521TIP3    H271055   3.414   0.458  14.610  0.4912  1.7169  2.1638
16522TIP3   OH271056   4.180   3.842  12.706 -0.4473 -0.3849 -0.4233
16522TIP3    H171057   4.084   3.839  12.700 -0.6890  1.3526  1.4038
16522TIP3    H271058   4.205   3.917  12.652 -0.4838  1.0799  1.4753
16523TIP3   OH271059   4.865   2.308  13.832  0.0339 -0.3528 -0.0432
16523TIP3    H171060   4.803   2.262  13.889 -1.2065  0.1837 -0.9038
16523TIP3    H271061   4.933   2.243  13.812 -1.4445 -1.7129 -0.8952
16524TIP3   OH271062   1.505   3.594   3.038  0.0908 -0.0890  0.3431
16524TIP3    H171063   1.431   3.654   3.049 -0.3812 -0.4005 -0.9601
16524TIP3    H271064   1.514   3.551   3.124 -0.7890  0.4439  0.7175
16525TIP3   OH271065   2.178   2.542   2.305  0.4169  1.1547  0.5082
16525TIP3    H171066   2.082   2.540   2.302  0.4519  0.4810 -0.9849
16525TIP3    H271067   2.199   2.519   2.396 -0.8236  0.3505  0.6193
16526TIP3   OH271068   3.120   6.655   2.081 -0.2180 -0.4095 -0.4787
16526TIP3    H171069   3.090   6.566   2.062 -1.7011  0.0167 -0.2322
16526TIP3    H271070   3.048   6.696   2.128  0.2357  1.0927 -1.0125
16527TIP3   OH271071   3.571   5.039   5.077  0.2503 -0.1869 -0.4667
16527TIP3    H171072   3.638   5.032   5.009  0.8002 -1.0317  0.1431
16527TIP3    H271073   3.488   5.024   5.031  0.5093  0.3427 -1.1327
16528TIP3   OH271074   3.777   0.350  12.943  0.1518 -0.6149 -0.5411
16528TIP3    H171075   3.871   0.360  12.933  0.1942 -1.3230 -0.8827
16528TIP3    H271076   3.766   0.267  12.990 -0.1764  0.8946  2.3263
16529TIP3   OH271077   5.265   4.352  15.942 -0.1874 -0.2934 -0.4230
16529TIP3    H171078   5.332   4.334  15.876 -0.1021  0.3008 -0.5063
16529TIP3    H271079   5.182   4.343  15.895 -0.1198  0.4521 -0.7084
16530TIP3   OH271080   4.473   1.594  16.556  0.6433  0.3204  0.1242
16530TIP3    H171081   4.457   1.515  16.506  1.0957  1.3164 -1.6688
16530TIP3    H271082   4.386   1.633  16.569  0.4469 -0.3280  0.8131
16531TIP3   OH271083   2.647   6.264   0.785  0.8649  0.4423 -0.3879
16531TIP3    H171084   2.729   6.283   0.831  0.8122  0.8728 -0.4700
16531TIP3    H271085   2.622   6.177   0.816  0.3788  1.0601  1.0451
16532TIP3   OH271086   3.616   3.957  15.947 -0.0501 -0.4097  0.3020
16532TIP3    H171087   3.577   3.938  16.033 -0.1080  0.0483  0.3754
16532TIP3    H271088   3.551   4.010  15.902  0.1621 -0.2941  0.1299
16533TIP3   OH271089   6.326   2.717  15.517 -0.1863 -0.1808  0.2375
16533TIP3    H171090   6.366   2.728  15.603  0.4829  0.0506 -0.0993
16533TIP3    H271091   6.376   2.648  15.476  0.0467  0.2949 -0.2921
16534TIP3   OH271092   3.039   3.416  11.712  0.2165  0.8388 -0.1485
16534TIP3    H171093   3.010   3.504  11.685 -0.7321 -0.2646 -3.1702
16534TIP3    H271094   2.958   3.371  11.737  0.6513  0.6998  1.0348
16535TIP3   OH271095   6.319   2.440   2.401 -0.4302 -0.8985  0.3359
16535TIP3    H171096   6.375   2.376   2.358 -0.5619 -0.3951 -0.6171
16535TIP3    H271097   6.360   2.456   2.485 -0.1304 -1.8690  0.3777
16536TIP3   OH271098   2.733   6.771   5.779  0.7000 -0.0862 -0.2550
16536TIP3    H171099   2.742   6.850   5.726 -0.5149 -0.2013 -0.6656
16536TIP3    H271100   2.666   6.719   5.734 -1.5478  0.5129  2.1621
16537TIP3   OH271101   5.160   1.320   2.891 -0.2132 -0.1174 -0.0294
16537TIP3    H171102   5.106   1.395   2.866  0.2716  0.1363 -0.3118
16537TIP3    H271103   5.178   1.274   2.809 -0.4468 -0.5074  0.1324
16538TIP3   OH271104   4.723   4.737   1.667 -0.2011  0.3692  0.5830
16538TIP3    H171105   4.680   4.767   1.747 -0.7536 -3.3637  1.8899
16538TIP3    H271106   4.653   4.696   1.616  0.5216  0.8865 -0.8737
16539TIP3   OH271107   0.573   4.921   1.488 -0.1344 -0.1589  0.1379
16539TIP3    H171108   0.631   4.845   1.483 -1.4224 -1.0746 -2.3125
16539TIP3    H271109   0.485   4.883   1.495 -0.8570  1.0203 -1.7813
16540TIP3   OH271110   0.153   4.564  14.445  0.1984 -0.1838 -0.9972
16540TIP3    H171111   0.221   4.618  14.403 -0.8551  1.4164 -0.7246
16540TIP3    H271112   0.103   4.528  14.372  0.4752 -0.2064 -1.1772
16541TIP3   OH271113   5.587   1.427  15.937 -0.0700  0.5531 -0.2924
16541TIP3    H171114   5.622   1.347  15.898  0.1192  1.0363 -1.1456
16541TIP3    H271115   5.633   1.434  16.021  0.6352  0.2721 -0.6388
16542TIP3   OH271116   4.230   1.916   2.961  0.1215 -0.0940 -0.2731
16542TIP3    H171117   4.197   1.981   3.023  0.1332 -0.0873 -0.2741
16542TIP3    H271118   4.256   1.968   2.885  2.2796  0.1586  0.5841
16543TIP3   OH271119   5.900   2.843   2.474 -0.1473 -0.1300  0.3184
16543TIP3    H171120   5.823   2.812   2.426 -0.3723  0.1093  0.5169
16543TIP3    H271121   5.863   2.883   2.553 -0.0453  2.3497 -0.7764
16544TIP3   OH271122   3.552   4.940   1.911 -0.8394 -0.2565  0.4603
16544TIP3    H171123   3.503   4.886   1.973  1.2514 -1.1025  1.4852
16544TIP3    H271124   3.644   4.925   1.934 -0.0674  1.0746 -1.4972
16545TIP3   OH271125   1.900   1.633  11.909  0.3303 -0.6812 -0.4612
16545TIP3    H171126   1.810   1.617  11.937  0.3636 -0.3491 -0.1602
16545TIP3    H271127   1.903   1.598  11.820  0.3287 -2.0506  0.0569
16546TIP3   OH271128   6.252   5.903   5.995  0.2694  0.2259 -0.2258
16546TIP3    H171129   6.173   5.899   6.048 -0.9838 -0.7332 -2.0624
16546TIP3    H271130   6.323   5.916   6.058 -1.3743  1.7866  1.4210
16547TIP3   OH271131   2.210   5.696   1.871 -0.1867  0.1125 -0.0427
16547TIP3    H171132   2.136   5.685   1.931  1.1978  2.2916  2.2979
16547TIP3    H271133   2.277   5.636   1.905 -0.3558 -0.8560 -1.3303
16548TIP3   OH271134   3.141   5.066  10.986  0.0229  0.4190  0.5653
16548TIP3    H171135   3.182   5.049  10.901 -0.7706 -0.8194  0.4196
16548TIP3    H271136   3.213   5.064  11.048  0.4235 -0.0507  0.0928
16549TIP3   OH271137   1.252   6.542   0.330  1.0236  0.1936  0.0870
16549TIP3    H171138   1.286   6.623   0.369  2.0935  0.0562 -0.5218
16549TIP3    H271139   1.183   6.572   0.271 -0.1996  0.4504  1.6003
16550TIP3   OH271140   3.170   1.482  15.992  0.7178  0.3543  0.2600
16550TIP3    H171141   3.265   1.491  15.979  1.0134  0.3872  2.2311
16550TIP3    H271142   3.161   1.436  16.075 -1.0155  0.3265  0.0897
16551TIP3   OH271143   6.534   5.542  15.353  0.2940  0.4342 -0.1031
16551TIP3    H171144   6.575   5.489  15.285 -1.6646 -1.4774  0.0718
16551TIP3    H271145   6.605   5.565  15.412  1.3805 -1.3348 -0.6389
16552TIP3   OH271146   6.388   0.838  12.827 -0.2669  0.2316  0.8868
16552TIP3    H171147   6.333   0.773  12.784 -0.7877  1.4772 -0.4043
16552TIP3    H271148   6.426   0.791  12.902 -2.2633 -0.9500  1.2372
16553TIP3   OH271149   3.589   4.503   0.603  0.2833  0.4607  0.3992
16553TIP3    H171150   3.624   4.420   0.634 -2.3149 -0.4309  1.1969
16553TIP3    H271151   3.527   4.530   0.671 -0.7449  1.7927 -0.9922
16554TIP3   OH271152   3.721   1.553  15.974 -0.3269  0.3598  0.3727
16554TIP3    H171153   3.715   1.551  15.879  0.7309  0.5716  0.2857
16554TIP3    H271154   3.730   1.646  15.995  0.0862  0.2678  0.6238
16555TIP3   OH271155   4.957   6.617  17.109 -0.2567 -0.0665 -0.2655
16555TIP3    H171156   4.943   6.559  17.034 -2.0211 -0.3100  0.2024
16555TIP3    H271157   4.960   6.704  17.071 -0.5486 -0.2352 -0.6871
16556TIP3   OH271158   5.660   5.418  11.132  0.3242  0.6533  0.2662
16556TIP3    H171159   5.659   5.383  11.043  1.4757 -0.5802  0.6988
16556TIP3    H271160   5.749   5.401  11.164 -0.4245 -0.1209  2.0973
16557TIP3   OH271161   3.620   6.245   3.688  0.1166  0.0967 -0.7622
16557TIP3    H171162   3.606   6.340   3.684 -0.7696 -0.0664 -2.3049
16557TIP3    H271163   3.698   6.235   3.743 -0.3659  1.6422  0.2676
16558TIP3   OH271164   0.703   5.623   4.792 -0.1167  0.1662 -0.2702
16558TIP3    H171165   0.656   5.680   4.731 -1.0693 -0.9983 -0.6519
16558TIP3    H271166   0.719   5.543   4.743  2.7735  0.6953 -0.3189
16559TIP3   OH271167   1.995   5.031  14.548 -0.5177  0.4190  0.0932
16559TIP3    H171168   2.061   4.993  14.606 -1.9157 -0.8607  0.9142
16559TIP3    H271169   1.969   5.112  14.591 -0.3632  0.3157  0.3824
16560TIP3   OH271170   1.902   1.107   1.400  0.7720 -0.3641 -0.2936
16560TIP3    H171171   1.820   1.060   1.417 -0.6065  2.3369  1.2779
16560TIP3    H271172   1.894   1.139   1.311  0.0141 -0.0046 -0.1044
16561TIP3   OH271173   5.716   6.573   5.100 -0.1524  0.5237 -0.5108
16561TIP3    H171174   5.628   6.608   5.086 -0.7440 -0.2166  1.1321
16561TIP3    H271175   5.774   6.639   5.062 -1.3708  1.4599 -0.8266
16562TIP3   OH271176   1.439   0.965   2.841 -0.3024  0.9258  0.6433
16562TIP3    H171177   1.507   0.970   2.774  2.1721 -3.4162  2.3593
16562TIP3    H271178   1.363   0.927   2.796  0.4790  0.3111 -0.2007
16563TIP3   OH271179   2.846   1.004   2.580 -0.8005  0.4127 -0.4046
16563TIP3    H171180   2.824   0.927   2.529 -1.5309 -0.2158  0.8170
16563TIP3    H271181   2.912   0.973   2.642 -1.2218  0.7200  0.2066
16564TIP3   OH271182   5.328   0.973  16.517  0.2631 -0.7345 -0.1581
16564TIP3    H171183   5.330   1.039  16.587  0.0725 -2.9174  2.0534
16564TIP3    H271184   5.389   1.006  16.451  1.3655  0.9133  1.5673
16565TIP3   OH271185   5.495   1.856   1.204 -0.2331 -0.3618 -0.2359
16565TIP3    H171186   5.480   1.901   1.287 -1.8606 -1.1466 -0.0610
16565TIP3    H271187   5.463   1.767   1.219  2.9065 -1.6711 -0.5582
16566TIP3   OH271188   2.488   6.145  16.079  0.0347  0.0757  0.0840
16566TIP3    H171189   2.442   6.188  16.151 -0.5127  0.2717 -0.3744
16566TIP3    H271190   2.461   6.193  16.001  0.8442  0.0439 -0.2228
16567TIP3   OH271191   0.003   5.655   1.493  0.3283  0.0135  0.2577
16567TIP3    H171192  -0.085   5.675   1.462 -0.1354 -1.5016  0.5477
16567TIP3    H271193   0.061   5.710   1.440 -0.5779 -1.0546 -1.9149
16568TIP3   OH271194   6.468   4.348   4.751 -0.4411 -0.5451  0.0936
16568TIP3    H171195   6.515   4.291   4.812  1.5415  0.2903 -0.5639
16568TIP3    H271196   6.498   4.320   4.665 -1.5847 -0.3003 -0.4064
16569TIP3   OH271197   3.959   1.342  12.514 -0.2782 -0.3933  0.1713
16569TIP3    H171198   3.981   1.250  12.527 -0.1380 -0.6982 -1.8185
16569TIP3    H271199   3.886   1.359  12.573 -1.8351 -2.4383 -1.0611
16570TIP3   OH271200   3.512   5.557   2.809 -0.4130  0.2692  0.3642
16570TIP3    H171201   3.549   5.605   2.883 -0.5837  1.2981 -0.1999
16570TIP3    H271202   3.569   5.481   2.797 -0.7510 -0.2743  1.9501
16571TIP3   OH271203   2.040   6.477  12.124  0.0297  0.4696  0.2819
16571TIP3    H171204   2.127   6.477  12.085 -0.7377  1.3602 -1.5397
16571TIP3    H271205   2.013   6.385  12.123 -0.0274  0.4750 -1.4932
16572TIP3   OH271206   2.841   0.906   3.581  0.0531 -0.7283  0.2967
16572TIP3    H171207   2.759   0.911   3.533  1.2822  0.2746 -1.8949
16572TIP3    H271208   2.893   0.842   3.532  1.1616 -0.0839  0.5789
16573TIP3   OH271209   2.403   6.085   3.402  0.0056 -0.1432  1.0192
16573TIP3    H171210   2.460   6.161   3.388 -0.7355  0.8807  3.0910
16573TIP3    H271211   2.420   6.028   3.327 -0.1895  2.5217 -1.2117
16574TIP3   OH271212   5.801   4.738   1.440 -0.1315  0.0964 -0.8751
16574TIP3    H171213   5.773   4.810   1.383 -0.0700  2.4535  1.8343
16574TIP3    H271214   5.722   4.714   1.489  0.6262  1.0346  0.9135
16575TIP3   OH271215   1.471   4.702  11.392  0.0137  0.1328 -0.2030
16575TIP3    H171216   1.415   4.624  11.392  0.3145 -0.0960 -1.3490
16575TIP3    H271217   1.421   4.767  11.441  0.1989 -1.0741  1.7140
16576TIP3   OH271218   6.077   5.092   2.333  0.0515  0.1912  0.1785
16576TIP3    H171219   5.990   5.098   2.293  0.2059  0.5254 -0.1096
16576TIP3    H271220   6.132   5.058   2.263  0.1404 -0.0949  0.3851
16577TIP3   OH271221   3.592   0.563   6.214  0.2599  0.4224 -0.1217
16577TIP3    H171222   3.665   0.506   6.190 -0.0571  0.2524 -0.7163
16577TIP3    H271223   3.550   0.583   6.131 -1.4766 -0.9842  0.3422
16578TIP3   OH271224   5.083   6.815  14.811 -0.0101  0.3133  0.4940
16578TIP3    H171225   5.125   6.878  14.753 -0.3727 -0.7737 -1.0178
16578TIP3    H271226   5.076   6.861  14.895  0.9571  1.7709 -0.1701
16579TIP3   OH271227   1.306   3.478   4.911  0.5619 -0.3208  0.0516
16579TIP3    H171228   1.310   3.451   5.002 -0.0372 -2.3729 -0.4734
16579TIP3    H271229   1.395   3.462   4.877  0.3098 -1.3532 -0.1593
16580TIP3   OH271230   1.716   1.620  13.932 -0.3542 -0.0489 -0.4356
16580TIP3    H171231   1.806   1.593  13.912 -0.0805  0.5629 -0.0696
16580TIP3    H271232   1.675   1.629  13.846  0.6934  2.1696 -0.7778
16581TIP3   OH271233   1.058   1.057  11.670  0.3405 -0.2691  0.1686
16581TIP3    H171234   0.965   1.052  11.649  0.6091 -0.1834 -1.1478
16581TIP3    H271235   1.102   1.046  11.586  1.5494 -0.9813  0.8618
16582TIP3   OH271236   1.786   4.074  11.463  0.2234 -0.1206 -0.4512
16582TIP3    H171237   1.756   4.144  11.521 -1.3243 -0.9756 -0.1772
16582TIP3    H271238   1.842   4.019  11.518 -0.2915 -0.2811 -0.0876
16583TIP3   OH271239   2.760   4.087  12.132 -0.4752 -0.0694  0.5100
16583TIP3    H171240   2.787   4.077  12.041 -1.5777  0.5141  0.1017
16583TIP3    H271241   2.815   4.025  12.180  1.8016  1.2605 -0.2094
16584TIP3   OH271242   2.610   2.983   5.379  0.2564 -0.1420 -0.8819
16584TIP3    H171243   2.691   2.988   5.328 -0.3183  0.4398 -1.7753
16584TIP3    H271244   2.635   3.010   5.467  1.7477 -3.2276 -0.2068
16585TIP3   OH271245   4.451   5.458   4.334 -0.1532 -0.4136  0.6951
16585TIP3    H171246   4.444   5.467   4.429 -0.4506 -1.0459  0.7376
16585TIP3    H271247   4.363   5.431   4.305 -1.3119  3.7153 -0.2717
16586TIP3   OH271248   4.748   5.851   4.348 -0.0176  0.6030 -0.0369
16586TIP3    H171249   4.690   5.811   4.283 -0.0859 -0.1469  0.4697
16586TIP3    H271250   4.816   5.786   4.363 -0.2960  0.5369  1.0214
16587TIP3   OH271251   0.527   1.568  15.341 -0.7847  0.1773 -0.0874
16587TIP3    H171252   0.491   1.635  15.283  1.4962  1.5135 -0.0682
16587TIP3    H271253   0.590   1.615  15.395 -1.0471 -1.5137  1.8058
16588TIP3   OH271254   3.717   1.012  15.350 -0.1447 -0.4418  0.4139
16588TIP3    H171255   3.678   1.039  15.267 -0.1448  1.1495  0.9018
16588TIP3    H271256   3.674   1.067  15.416 -0.9554 -2.4202  1.6499
16589TIP3   OH271257   3.567   1.504   4.393 -0.3628 -0.2021  0.3177
16589TIP3    H171258   3.517   1.469   4.319  0.8439 -0.3560 -0.4547
16589TIP3    H271259   3.603   1.426   4.437  0.6381 -0.0429 -0.1881
16590TIP3   OH271260   1.347   6.116   1.015 -0.0845  1.1087  0.2401
16590TIP3    H171261   1.253   6.095   1.022  0.1405 -0.1144 -0.1605
16590TIP3    H271262   1.366   6.166   1.095 -0.5256 -0.8722  1.6697
16591TIP3   OH271263   0.901   0.310   0.301 -0.4442 -0.2838  0.0047
16591TIP3    H171264   0.836   0.331   0.369 -0.1850  1.8783 -0.3409
16591TIP3    H271265   0.875   0.365   0.226  2.1214  1.1839  0.0951
16592TIP3   OH271266   4.599   3.673   3.134 -0.1706  0.1052  0.4054
16592TIP3    H171267   4.522   3.618   3.118 -0.4662  0.7445 -0.5064
16592TIP3    H271268   4.574   3.758   3.096  1.6261 -0.1395 -1.4883
16593TIP3   OH271269   5.010   4.884  11.891  0.6155 -0.3833 -0.1849
16593TIP3    H171270   5.029   4.951  11.825  0.7536  0.0683  0.3059
16593TIP3    H271271   5.090   4.832  11.896  0.4723 -0.6605 -0.6413
16594TIP3   OH271272   5.224   0.824  14.965 -0.2819 -0.3088 -0.1564
16594TIP3    H171273   5.293   0.842  15.029 -0.9709 -0.3300  0.6084
16594TIP3    H271274   5.266   0.767  14.900  1.2512  1.9334 -1.2986
16595TIP3   OH271275   0.479   3.216   3.448  0.2633 -0.1894 -0.4638
16595TIP3    H171276   0.476   3.200   3.354  0.4215  0.7829 -0.6439
16595TIP3    H271277   0.568   3.250   3.463 -0.4567  1.7472 -0.3311
16596TIP3   OH271278   4.630   2.684  17.060  0.0992  0.1596 -0.2733
16596TIP3    H171279   4.584   2.766  17.041 -0.3217  0.3351  1.3433
16596TIP3    H271280   4.694   2.708  17.127  0.5126 -0.6876 -0.3597
16597TIP3   OH271281   4.540   2.293  11.916 -0.4993  0.2979  0.0590
16597TIP3    H171282   4.623   2.246  11.914 -0.0958  0.9189  1.6642
16597TIP3    H271283   4.563   2.385  11.905 -0.8132  0.6295  1.9183
16598TIP3   OH271284   2.836   4.271  15.381  0.3161 -0.0632 -0.1168
16598TIP3    H171285   2.829   4.366  15.369  0.9036  0.0815  0.6040
16598TIP3    H271286   2.802   4.256  15.469  1.6181 -0.3185  0.3588
16599TIP3   OH271287   3.085   0.692  10.563 -0.4350 -0.1288 -0.2314
16599TIP3    H171288   3.165   0.641  10.575 -0.5647 -0.8006 -1.8876
16599TIP3    H271289   3.049   0.660  10.480 -1.3497  1.6002 -0.5405
16600TIP3   OH271290   1.034   1.190   1.603 -0.2615 -0.0646 -0.4305
16600TIP3    H171291   1.054   1.257   1.668 -0.6661 -0.2830 -0.0704
16600TIP3    H271292   1.103   1.124   1.615 -0.7207 -0.4325  0.2549
16601TIP3   OH271293   5.240   5.330  15.675 -1.2687  0.4852 -0.5057
16601TIP3    H171294   5.241   5.395  15.745 -0.2745 -2.6792  2.7261
16601TIP3    H271295   5.153   5.290  15.679 -0.6668 -0.8360  0.1493
16602TIP3   OH271296   1.091   1.388  14.902 -0.1616  0.3351 -0.0310
16602TIP3    H171297   1.077   1.334  14.824  0.7219  1.7633 -1.2222
16602TIP3    H271298   1.162   1.447  14.878 -0.2391  1.1830  1.6850
16603TIP3   OH271299   1.376   1.932  15.278  0.2917 -0.1641 -0.1630
16603TIP3    H171300   1.298   1.951  15.226  0.4014  0.1112 -0.2273
16603TIP3    H271301   1.419   1.860  15.232  1.3481  1.2555 -1.4794
16604TIP3   OH271302   0.023   1.758  12.460  0.7303 -0.9041 -0.4032
16604TIP3    H171303   0.011   1.747  12.554 -0.0051 -1.8842 -0.5872
16604TIP3    H271304  -0.063   1.736  12.422  1.0567 -0.6834 -1.3057
16605TIP3   OH271305   3.715   3.494  13.298  0.8227 -0.5493  0.5132
16605TIP3    H171306   3.624   3.498  13.271  0.8737  0.2615  0.4280
16605TIP3    H271307   3.764   3.508  13.217  1.0003  0.3370  0.7676
16606TIP3   OH271308   4.843   1.193   4.172  0.0981  0.4380  0.3265
16606TIP3    H171309   4.925   1.158   4.206  0.5119  1.2215  0.1620
16606TIP3    H271310   4.837   1.281   4.209 -0.6427  0.4044  0.2944
16607TIP3   OH271311   4.236   4.756  15.160 -0.2076 -0.3775 -0.0976
16607TIP3    H171312   4.278   4.706  15.230  2.3439  0.4540 -0.9002
16607TIP3    H271313   4.308   4.778  15.100 -1.9038  0.8767 -1.8056
16608TIP3   OH271314   0.367   6.319   4.017  0.0517  0.3372 -0.2691
16608TIP3    H171315   0.305   6.315   4.090  1.1663  0.4557  0.7189
16608TIP3    H271316   0.366   6.410   3.989 -0.5290  0.2502 -0.5493
16609TIP3   OH271317   0.788   2.105  13.877 -0.5357 -0.5088  0.4861
16609TIP3    H171318   0.713   2.142  13.831 -3.0677 -3.1456  2.1658
16609TIP3    H271319   0.828   2.046  13.814 -1.7129 -1.2968  0.4525
16610TIP3   OH271320   3.356   4.665  15.569 -0.1727 -0.0569  0.0726
16610TIP3    H171321   3.299   4.741  15.557  0.3799  0.7147  1.9953
16610TIP3    H271322   3.346   4.615  15.488 -2.4814  0.7620 -0.2265
16611TIP3   OH271323   6.015   0.204   4.764 -0.2805 -0.0822 -0.6751
16611TIP3    H171324   6.062   0.164   4.837  1.0060 -0.6951 -1.7759
16611TIP3    H271325   5.979   0.285   4.799  2.5092  0.9642  0.0085
16612TIP3   OH271326   0.588   2.257  14.871  0.1316 -0.0642  0.2397
16612TIP3    H171327   0.578   2.220  14.783 -0.5504 -0.0853  0.3197
16612TIP3    H271328   0.517   2.321  14.878 -0.4187 -0.7435  1.1097
16613TIP3   OH271329   1.024   5.483  10.593 -0.2816  0.3324  0.0871
16613TIP3    H171330   0.962   5.539  10.640  1.1648  2.4705 -0.3708
16613TIP3    H271331   1.078   5.444  10.663 -1.2161 -0.4209  0.4062
16614TIP3   OH271332   4.917   2.199  14.801 -0.0261  0.1882 -0.2277
16614TIP3    H171333   4.971   2.174  14.876 -1.4242 -1.0616  0.4205
16614TIP3    H271334   4.964   2.164  14.725  1.0663  0.8871  0.1023
16615TIP3   OH271335   3.941   2.139   6.021 -0.3522  0.9023  0.2828
16615TIP3    H171336   3.971   2.048   6.030  2.1183  1.7060  1.0382
16615TIP3    H271337   3.848   2.136   6.043 -0.2466 -1.3762  0.6740
16616TIP3   OH271338   3.583   6.596   4.676  0.1842 -0.0158  0.0433
16616TIP3    H171339   3.568   6.679   4.630 -0.6479 -0.2426 -0.1199
16616TIP3    H271340   3.608   6.623   4.765  0.0112  0.4176 -0.0323
16617TIP3   OH271341   1.613   2.274   4.680 -0.2052  0.2107 -0.1207
16617TIP3    H171342   1.574   2.361   4.667  0.7367  0.3656 -2.4728
16617TIP3    H271343   1.581   2.223   4.606  1.4406 -0.6132 -0.2997
16618TIP3   OH271344   2.955   3.041  10.871  0.6272 -0.5909  0.2273
16618TIP3    H171345   3.032   3.085  10.907  0.3244 -0.1069  0.2852
16618TIP3    H271346   2.980   2.948  10.868  2.1261 -0.2199 -1.9661
16619TIP3   OH271347   4.728   0.162  17.214 -0.6625  0.3253  0.4787
16619TIP3    H171348   4.640   0.142  17.245 -0.0905 -2.2257  0.7156
16619TIP3    H271349   4.736   0.114  17.132  0.0459  1.7260 -0.3090
16620TIP3   OH271350   3.085   2.010  15.269 -0.1669 -0.3437 -0.4841
16620TIP3    H171351   3.045   2.006  15.355  3.6986 -3.1574  1.4818
16620TIP3    H271352   3.050   1.934  15.222 -0.2866 -0.3571 -0.3737
16621TIP3   OH271353   1.207   1.735  16.144 -0.2935 -0.0186 -0.3175
16621TIP3    H171354   1.196   1.813  16.198  1.3899  0.5185 -0.6786
16621TIP3    H271355   1.136   1.739  16.081 -2.6456 -0.9391  2.0752
16622TIP3   OH271356   4.202   6.781   0.808  0.2879 -0.1185 -0.3847
16622TIP3    H171357   4.289   6.772   0.847  0.1450 -0.2850 -0.0995
16622TIP3    H271358   4.148   6.718   0.855  0.8632 -2.8956 -3.1551
16623TIP3   OH271359   6.630   5.612   4.133 -0.3209 -0.0116  0.2435
16623TIP3    H171360   6.628   5.612   4.037  0.3786 -2.0957  0.1672
16623TIP3    H271361   6.704   5.669   4.155  1.1804 -1.5217 -0.6153
16624TIP3   OH271362   4.493   2.904  12.967 -0.1135 -0.0815 -0.7752
16624TIP3    H171363   4.479   2.809  12.963 -2.8836  0.2556 -0.7450
16624TIP3    H271364   4.437   2.940  12.898  1.0321  1.5529 -0.9209
16625TIP3   OH271365   5.299   2.439  15.967  0.1754 -0.1805  0.5678
16625TIP3    H171366   5.357   2.463  15.895  1.0394  0.1689  1.3680
16625TIP3    H271367   5.267   2.351  15.944 -0.4370  0.3638 -0.7730
16626TIP3   OH271368   0.287   0.807  11.226  0.0175 -0.3104  0.5103
16626TIP3    H171369   0.247   0.807  11.139  1.6553  1.7274 -0.3061
16626TIP3    H271370   0.235   0.870  11.276  0.8043  0.6628  0.1224
16627TIP3   OH271371   0.351   3.077  11.863  0.2168  0.1040  0.2130
16627TIP3    H171372   0.351   3.161  11.908 -2.1930 -0.2081  0.9512
16627TIP3    H271373   0.303   3.019  11.922  0.8708 -1.5184 -0.7843
16628TIP3   OH271374   1.485   1.956  13.286 -0.0295 -0.0278 -0.2697
16628TIP3    H171375   1.550   1.906  13.237  0.3126 -2.6316  2.5890
16628TIP3    H271376   1.409   1.961  13.227  0.0687 -3.6805 -0.8996
16629TIP3   OH271377   1.262   3.824  17.109  0.4826 -0.6104 -0.5996
16629TIP3    H171378   1.339   3.776  17.140  0.2063 -0.0229  1.1303
16629TIP3    H271379   1.299   3.901  17.065  0.9376 -0.1974  0.4407
16630TIP3   OH271380   6.676   2.118  16.416 -0.1060  0.2502  0.2346
16630TIP3    H171381   6.604   2.121  16.479  1.5078  0.3740  2.1888
16630TIP3    H271382   6.715   2.206  16.420 -0.1014  0.3328 -1.1435
16631TIP3   OH271383   5.750   0.118  16.607 -0.0452  0.3565  0.5158
16631TIP3    H171384   5.803   0.039  16.614 -0.9349 -0.8524 -3.4204
16631TIP3    H271385   5.662   0.086  16.587 -1.1572  2.3553  1.9173
16632TIP3   OH271386   5.510   3.702  10.998 -0.2163 -0.7074  1.1288
16632TIP3    H171387   5.564   3.638  10.951 -0.6409 -0.9452  0.9596
16632TIP3    H271388   5.553   3.786  10.982 -0.6748 -0.6956 -0.1874
16633TIP3   OH271389   0.179   2.511  14.316 -0.2100 -0.0681  0.1691
16633TIP3    H171390   0.149   2.441  14.259 -1.1966 -0.5633  1.2505
16633TIP3    H271391   0.102   2.535  14.368  0.9484 -0.6084  2.2737
16634TIP3   OH271392   0.208   4.032  17.110 -0.3498 -0.0129  0.4499
16634TIP3    H171393   0.151   3.959  17.085  0.8541 -0.3503 -1.4903
16634TIP3    H271394   0.202   4.094  17.038 -0.1803  1.1266  1.3800
16635TIP3   OH271395   4.756   2.018   3.695 -0.0438 -0.8417 -0.4931
16635TIP3    H171396   4.775   2.032   3.787  2.8860 -1.1638 -0.9521
16635TIP3    H271397   4.782   1.928   3.678  1.3865 -0.2021 -2.0021
16636TIP3   OH271398   6.613   6.698  15.953  0.5501 -0.2136  0.0102
16636TIP3    H171399   6.542   6.634  15.953  0.4980 -0.3562 -3.5147
16636TIP3    H271400   6.603   6.745  15.871  1.4313  3.4777  1.7942
16637TIP3   OH271401   6.609   0.024   5.417 -0.2378  0.2315 -0.7353
16637TIP3    H171402   6.518   0.047   5.436 -0.3228  1.0926 -2.0396
16637TIP3    H271403   6.641  -0.017   5.497 -2.0909 -1.1037 -0.6291
16638TIP3   OH271404   3.656   3.240  15.216  1.0251  0.2828 -0.0791
16638TIP3    H171405   3.712   3.311  15.246  0.9975  0.4336 -0.3873
16638TIP3    H271406   3.705   3.199  15.144  1.1530 -0.1640  0.2588
16639TIP3   OH271407   3.067   4.550  11.585  0.5574 -0.6232  0.3872
16639TIP3    H171408   3.119   4.512  11.656 -0.3182 -0.8849  0.8973
16639TIP3    H271409   3.116   4.628  11.558  1.6138 -1.2932  0.3198
16640TIP3   OH271410   2.975   4.888   5.849 -0.2546  0.0198  0.3697
16640TIP3    H171411   3.017   4.916   5.767 -0.3043  0.8528  0.6237
16640TIP3    H271412   3.018   4.939   5.917 -2.8088  2.2275  0.4881
16641TIP3   OH271413   1.339   4.494  10.697 -0.1642 -0.4814  0.1469
16641TIP3    H171414   1.413   4.554  10.694  0.0736 -0.8104 -1.4983
16641TIP3    H271415   1.285   4.520  10.622 -1.7226 -0.2627  1.2908
16642TIP3   OH271416   2.715   2.027  12.818 -0.5199 -0.2542 -0.1478
16642TIP3    H171417   2.801   2.034  12.778 -0.4862 -2.1622 -0.5040
16642TIP3    H271418   2.653   2.048  12.748 -0.4064 -1.5748 -0.6529
16643TIP3   OH271419   5.344   1.521   5.152  0.1004 -0.2385 -0.1352
16643TIP3    H171420   5.410   1.456   5.176 -0.1758 -0.9004 -1.1141
16643TIP3    H271421   5.268   1.500   5.208 -0.6353 -1.9369 -1.6619
16644TIP3   OH271422   0.097   3.404   2.481 -0.0886 -0.1486  0.1156
16644TIP3    H171423   0.075   3.351   2.558  0.9536  1.0719  1.3001
16644TIP3    H271424   0.178   3.366   2.448  1.3287  1.3526  1.6871
16645TIP3   OH271425   1.278   2.718  12.581 -0.2850 -0.7793 -0.1530
16645TIP3    H171426   1.257   2.795  12.529  0.3721 -0.8755 -0.5596
16645TIP3    H271427   1.223   2.648  12.544 -2.2470 -0.1495  1.3429
16646TIP3   OH271428   2.444   3.341  17.162  0.5883 -0.3120 -0.2339
16646TIP3    H171429   2.435   3.288  17.082  0.4978 -1.0170  0.2353
16646TIP3    H271430   2.537   3.360  17.167  0.5521 -0.0109 -0.6696
16647TIP3   OH271431   1.580   1.661   0.880 -0.0555  0.1630  0.8944
16647TIP3    H171432   1.646   1.680   0.813 -0.4936  0.9342  0.6681
16647TIP3    H271433   1.616   1.699   0.960 -1.0666  2.3611  0.3822
16648TIP3   OH271434   3.329   3.928  13.038 -0.4089  0.2704 -0.6971
16648TIP3    H171435   3.322   3.871  13.114 -1.5838  0.6642 -0.4990
16648TIP3    H271436   3.369   3.872  12.971 -2.9519 -1.3302 -1.0080
16649TIP3   OH271437   6.652   5.661   2.631  0.1989  0.6870  0.0461
16649TIP3    H171438   6.669   5.693   2.542  1.5886 -1.7291 -0.6676
16649TIP3    H271439   6.563   5.689   2.650 -0.0773  1.4498 -2.0363
16650TIP3   OH271440   5.710   0.270  13.426 -0.1197  0.3757  0.2521
16650TIP3    H171441   5.799   0.235  13.422 -0.2342 -0.3167  2.5170
16650TIP3    H271442   5.721   0.365  13.430  0.4097  0.3876 -0.8494
16651TIP3   OH271443   1.452   5.243   3.244  0.0829 -0.1928  0.2575
16651TIP3    H171444   1.405   5.204   3.318 -0.9288  0.8795  0.2105
16651TIP3    H271445   1.398   5.221   3.168  0.8770 -0.8990 -0.1166
16652TIP3   OH271446   3.191   4.268  14.077 -0.1940  0.4717  0.4691
16652TIP3    H171447   3.101   4.255  14.109  0.0659  0.6990  1.3018
16652TIP3    H271448   3.179   4.305  13.990 -0.9731  3.7614  1.8193
16653TIP3   OH271449   6.818   4.991  15.762  0.3140  0.6535 -0.5312
16653TIP3    H171450   6.895   5.024  15.714 -0.6078  1.3843 -1.5658
16653TIP3    H271451   6.777   5.070  15.797 -0.5452  0.3706 -0.8879
16654TIP3   OH271452   4.969   2.866   2.701 -0.2703 -0.1611  0.3930
16654TIP3    H171453   4.875   2.864   2.686 -0.3538 -0.6453  0.9658
16654TIP3    H271454   5.007   2.838   2.617 -0.6972 -1.5114  0.6194
16655TIP3   OH271455   2.374   6.393  11.799  0.1642 -0.0541 -0.8534
16655TIP3    H171456   2.468   6.389  11.782  0.2729 -1.2671 -0.0684
16655TIP3    H271457   2.339   6.314  11.758  0.1235 -1.9074  2.4317
16656TIP3   OH271458   5.298   3.353  16.564 -0.4360 -0.1275  0.4946
16656TIP3    H171459   5.372   3.412  16.580  0.2640 -0.6484 -0.6785
16656TIP3    H271460   5.308   3.327  16.472 -2.3478  0.1622  0.1586
16657TIP3   OH271461   0.032   0.328  14.988 -0.4606  0.2409 -0.0603
16657TIP3    H171462   0.128   0.323  14.986 -0.4252 -0.0197  1.4072
16657TIP3    H271463   0.003   0.244  14.952 -0.1410  0.2369 -0.3150
16658TIP3   OH271464   3.971   6.437  10.465  0.1697 -0.7622  0.2284
16658TIP3    H171465   3.940   6.365  10.411 -3.2022 -1.3541  2.6358
16658TIP3    H271466   4.016   6.394  10.538  1.1575 -0.1811 -0.0068
16659TIP3   OH271467   4.897   1.400  12.326 -0.4868 -0.2547  0.2712
16659TIP3    H171468   4.898   1.484  12.280 -0.9575 -0.4333 -0.0757
16659TIP3    H271469   4.904   1.423  12.418  2.6247  0.0187  0.0697
16660TIP3   OH271470   1.079   3.582  16.545  0.1804  0.1760  0.5462
16660TIP3    H171471   1.062   3.658  16.490 -0.0592 -0.5307 -0.3946
16660TIP3    H271472   1.098   3.618  16.631 -0.5669  1.2628  0.2772
16661TIP3   OH271473   4.283   0.238   1.179 -0.0048  0.2839 -0.4095
16661TIP3    H171474   4.360   0.290   1.203  1.1841 -1.4059 -0.4004
16661TIP3    H271475   4.301   0.208   1.090 -0.0904 -1.0720  0.0080
16662TIP3   OH271476   0.445   1.637  14.084  0.1365 -0.0956 -0.0337
16662TIP3    H171477   0.472   1.675  14.000  0.5685 -0.3368 -0.0069
16662TIP3    H271478   0.390   1.563  14.059 -2.5645  1.7639 -0.0973
16663TIP3   OH271479   3.631   3.296  13.697  0.1852  0.0743  0.4262
16663TIP3    H171480   3.723   3.273  13.712  0.6176  1.6726  0.4227
16663TIP3    H271481   3.622   3.296  13.601  0.3514  0.5113  0.4089
16664TIP3   OH271482   4.328   4.662  16.272  0.1610  0.2044 -0.0077
16664TIP3    H171483   4.323   4.755  16.251 -1.0510 -0.0973 -1.1188
16664TIP3    H271484   4.244   4.642  16.313  0.0542 -0.6078 -0.6156
16665TIP3   OH271485   3.639   5.638   3.652 -0.4707  0.8512 -0.3174
16665TIP3    H171486   3.546   5.646   3.632 -0.7237  2.1644  1.1462
16665TIP3    H271487   3.651   5.546   3.676 -0.7801 -0.0156 -3.0743
16666TIP3   OH271488   6.243   5.743   6.302  0.6809 -0.1734  0.0245
16666TIP3    H171489   6.217   5.655   6.329 -1.0170 -0.1694 -1.4893
16666TIP3    H271490   6.163   5.783   6.269  1.7944  1.3196 -0.9727
16667TIP3   OH271491   5.063   2.402  15.393  0.4671 -0.0150  0.0503
16667TIP3    H171492   5.083   2.460  15.319  0.6526 -0.1849 -0.0351
16667TIP3    H271493   5.093   2.450  15.470 -0.3536  0.4603  0.0880
16668TIP3   OH271494   2.025   3.795   1.634  0.3506 -0.1039  0.0760
16668TIP3    H171495   2.049   3.884   1.659 -0.6247  0.1595  0.1094
16668TIP3    H271496   1.972   3.763   1.707  1.6669 -1.1520  0.6145
16669TIP3   OH271497   1.050   5.783   4.118 -0.4434  0.2004  0.3425
16669TIP3    H171498   1.096   5.815   4.040  0.1174  0.0796  0.6239
16669TIP3    H271499   0.965   5.754   4.085  0.4253 -1.5199 -0.5359
16670TIP3   OH271500   6.570   1.292   1.312 -0.1092 -0.1270  0.0573
16670TIP3    H171501   6.536   1.343   1.385  0.7266 -1.9376  1.8015
16670TIP3    H271502   6.665   1.294   1.324  0.0277 -0.7128 -0.8207
16671TIP3   OH271503   1.771   0.337   0.424  0.5273  0.2136 -0.1602
16671TIP3    H171504   1.783   0.273   0.354  1.0674  1.9121 -1.7118
16671TIP3    H271505   1.713   0.294   0.487  0.3881 -1.5509 -1.4301
16672TIP3   OH271506   5.995   3.515  13.043  0.0735 -0.2857 -0.0552
16672TIP3    H171507   6.015   3.526  12.950  2.3719  1.8422  0.5962
16672TIP3    H271508   5.900   3.513  13.047 -0.0960  0.2859 -2.3658
16673TIP3   OH271509   2.883   3.393   2.221 -0.4621  0.0142  0.0747
16673TIP3    H171510   2.810   3.334   2.237 -0.8814  0.4258 -0.3053
16673TIP3    H271511   2.937   3.388   2.300  0.0189 -1.6067 -0.3253
16674TIP3   OH271512   3.761   2.011   5.608 -0.5174 -0.0412 -0.3580
16674TIP3    H171513   3.774   1.980   5.518 -0.6306  0.9608 -0.7447
16674TIP3    H271514   3.673   2.048   5.608 -1.0888 -1.3544  0.5871
16675TIP3   OH271515   6.567   0.637  12.194  0.2966  0.2952  0.6604
16675TIP3    H171516   6.548   0.651  12.101 -0.0923  1.2920  0.8732
16675TIP3    H271517   6.656   0.669  12.205  0.2249  0.4849  0.6935
16676TIP3   OH271518   1.197   6.430   2.947 -0.1118 -0.5339 -0.0615
16676TIP3    H171519   1.189   6.462   3.037  1.1883  0.4474 -0.2554
16676TIP3    H271520   1.279   6.380   2.947 -0.9564 -1.9677 -0.3247
16677TIP3   OH271521   0.785   2.166   3.542  0.4444  0.8959  0.0325
16677TIP3    H171522   0.759   2.204   3.626 -0.7932 -1.5392  0.8453
16677TIP3    H271523   0.856   2.106   3.564 -0.8621 -0.8783 -0.3346
16678TIP3   OH271524   2.627   2.938  12.076 -0.1264  0.1536  0.5565
16678TIP3    H171525   2.662   2.982  11.998 -1.0702  0.1126  0.0946
16678TIP3    H271526   2.596   3.010  12.132 -0.6965  0.1349  0.2749
16679TIP3   OH271527   0.726   2.281  16.586  0.1719 -0.0446 -0.4144
16679TIP3    H171528   0.645   2.301  16.539 -0.1444 -1.2978 -0.4401
16679TIP3    H271529   0.697   2.232  16.663  0.8725 -0.1102 -0.1881
16680TIP3   OH271530   0.565   4.899   6.753  0.0716  0.4651  0.7174
16680TIP3    H171531   0.558   4.803   6.757 -1.7467  0.3190 -2.4704
16680TIP3    H271532   0.617   4.916   6.674  0.0899  2.1400  1.0559
16681TIP3   OH271533   0.535   0.963   2.914  0.6074 -0.0843  0.2918
16681TIP3    H171534   0.584   0.895   2.962  0.7155 -0.6698 -0.6282
16681TIP3    H271535   0.599   1.001   2.854  0.4433  0.5614  0.5224
16682TIP3   OH271536   1.929   3.932  11.221 -0.0208  0.3071 -0.0236
16682TIP3    H171537   1.919   4.026  11.206 -0.0650  0.3441  0.2370
16682TIP3    H271538   1.839   3.899  11.222 -0.1824  0.6423  2.3414
16683TIP3   OH271539   3.554   1.481  14.703  0.5606 -0.3075  0.3098
16683TIP3    H171540   3.573   1.521  14.619  0.6258  1.1357  0.9763
16683TIP3    H271541   3.560   1.387  14.687 -2.2532 -0.2212 -1.9650
16684TIP3   OH271542   5.036   3.610   4.837 -0.1693 -0.0537 -0.1351
16684TIP3    H171543   5.075   3.672   4.899 -0.9280 -0.2035  0.5116
16684TIP3    H271544   5.020   3.662   4.758  1.1395  0.0541 -0.3543
16685TIP3   OH271545   2.089   4.651  17.200  0.5448  0.5323  0.4359
16685TIP3    H171546   2.087   4.559  17.173 -1.6329  0.6193  0.0855
16685TIP3    H271547   2.177   4.664  17.234  0.9434 -1.6583  0.4154
16686TIP3   OH271548   5.372   2.633  15.242  0.0333 -0.5186 -0.1123
16686TIP3    H171549   5.458   2.637  15.283  0.2853  1.3425 -0.7192
16686TIP3    H271550   5.314   2.676  15.304 -0.0962 -0.1217 -0.5034
16687TIP3   OH271551   6.665   5.624   5.391 -0.1308 -0.1916  0.6035
16687TIP3    H171552   6.690   5.703   5.438  0.3698 -0.9118  1.5745
16687TIP3    H271553   6.569   5.622   5.397 -0.2523  0.9570 -0.4818
16688TIP3   OH271554   6.073   0.003  14.565 -0.4147 -0.1048  0.0376
16688TIP3    H171555   6.076   0.032  14.473  0.4875  1.6663  0.5827
16688TIP3    H271556   6.165  -0.003  14.590 -0.6699  0.0777  1.0274
16689TIP3   OH271557   2.600   1.340  15.392 -0.1614 -0.0967  0.5830
16689TIP3    H171558   2.681   1.305  15.357 -0.1936  0.7645 -0.3771
16689TIP3    H271559   2.531   1.291  15.348 -0.1887  0.5624 -0.1310
16690TIP3   OH271560   2.675   5.913   3.495  0.2660  0.1318  0.1027
16690TIP3    H171561   2.647   5.926   3.404 -0.2438 -1.6556 -0.0354
16690TIP3    H271562   2.754   5.860   3.488  0.2554  0.0334  0.6952
16691TIP3   OH271563   6.802   2.432   2.228 -0.2543 -0.3248  0.1637
16691TIP3    H171564   6.749   2.359   2.196 -2.2713  0.3144  1.8498
16691TIP3    H271565   6.770   2.508   2.179 -1.4692  0.1829  1.6596
16692TIP3   OH271566   4.104   1.659  15.400  0.2046 -0.3914  0.3608
16692TIP3    H171567   4.057   1.657  15.483 -0.9855  0.5278 -0.2563
16692TIP3    H271568   4.187   1.701  15.420 -0.5053  0.7964  0.9003
16693TIP3   OH271569   6.498   4.306  14.493 -0.0230  0.1206 -0.0717
16693TIP3    H171570   6.437   4.234  14.509  2.0086 -1.6425  0.2053
16693TIP3    H271571   6.458   4.356  14.422 -1.7203 -1.0078  0.0282
16694TIP3   OH271572   0.515   4.602  13.692  0.5500  0.2901  0.4356
16694TIP3    H171573   0.594   4.559  13.659  0.2085  0.1515 -0.2173
16694TIP3    H271574   0.532   4.696  13.678  0.5859  0.2584  0.2524
16695TIP3   OH271575   3.897   6.518  13.041 -0.2388 -0.3631 -0.0035
16695TIP3    H171576   3.988   6.545  13.056 -0.6098 -0.0972  2.1218
16695TIP3    H271577   3.876   6.550  12.953  1.3202  0.6826 -0.0324
16696TIP3   OH271578   3.628   4.464   5.194  0.1830  0.1986  0.2932
16696TIP3    H171579   3.577   4.393   5.154  1.1891  1.0694 -2.8301
16696TIP3    H271580   3.674   4.505   5.120  0.4216  3.4815  2.0678
16697TIP3   OH271581   0.403   3.435   2.882  0.2587 -0.0095 -0.0951
16697TIP3    H171582   0.415   3.375   2.955  0.3028 -1.1384 -1.0110
16697TIP3    H271583   0.464   3.507   2.901  0.5820 -0.4882  0.7550
16698TIP3   OH271584   2.255   4.567  15.998  0.9933 -0.0079  0.1767
16698TIP3    H171585   2.300   4.607  16.072  1.3106  2.1261 -1.0829
16698TIP3    H271586   2.324   4.518  15.952  1.8155  2.0095 -0.8995
16699TIP3   OH271587   2.423   4.085   1.968  0.1457 -0.2139 -0.1541
16699TIP3    H171588   2.470   4.002   1.980  0.1074 -0.1675  0.3395
16699TIP3    H271589   2.489   4.145   1.933  0.6941  0.0897  1.3326
16700TIP3   OH271590   3.375   4.962   1.709  0.5030 -0.4962  0.0762
16700TIP3    H171591   3.431   4.963   1.786 -0.3949  2.7508  0.8664
16700TIP3    H271592   3.424   5.014   1.644 -0.0169 -0.7076 -0.4874
16701TIP3   OH271593   6.078   1.951   3.482 -0.3038 -0.2129  0.5976
16701TIP3    H171594   6.111   1.879   3.535  0.3970 -0.1809  0.2215
16701TIP3    H271595   6.017   1.910   3.421  0.0779 -0.4852  0.3975
16702TIP3   OH271596   1.505   6.820   5.684  0.0479 -0.2709  1.2374
16702TIP3    H171597   1.443   6.747   5.676  1.3222 -1.5230  2.2831
16702TIP3    H271598   1.540   6.831   5.596 -1.9065  0.7370  0.5278
16703TIP3   OH271599   2.809   4.783  16.885  0.1320 -0.4930  0.4652
16703TIP3    H171600   2.729   4.816  16.844  0.6526 -2.2724 -2.2286
16703TIP3    H271601   2.874   4.852  16.868 -0.2176 -0.1664  0.4309
16704TIP3   OH271602   4.140   1.658  16.907 -0.2221  0.7969  0.0034
16704TIP3    H171603   4.045   1.652  16.895 -0.1792  0.7101 -0.2929
16704TIP3    H271604   4.175   1.660  16.819  0.0039  1.6985  0.1115
16705TIP3   OH271605   6.218   0.890  16.859  1.0204  0.4825 -0.2352
16705TIP3    H171606   6.301   0.912  16.816  0.8337  2.0231  0.1550
16705TIP3    H271607   6.243   0.862  16.947  1.1400  0.9865 -0.1043
16706TIP3   OH271608   4.467   3.912   3.407 -0.5505 -0.5551  0.0340
16706TIP3    H171609   4.488   3.821   3.429 -0.5459 -1.0245 -1.7521
16706TIP3    H271610   4.373   3.920   3.425 -0.6541 -1.0593 -0.2787
16707TIP3   OH271611   4.872   5.316   2.739 -0.2817  0.4802  0.6863
16707TIP3    H171612   4.937   5.367   2.689 -0.7276 -0.1858 -0.6005
16707TIP3    H271613   4.915   5.232   2.755 -1.5015 -0.7449 -1.9607
16708TIP3   OH271614   4.822   6.186   3.049 -0.0452 -0.3789 -0.4894
16708TIP3    H171615   4.727   6.175   3.040 -0.1452  0.8147 -1.1567
16708TIP3    H271616   4.856   6.098   3.059 -1.2516 -0.8070 -0.0104
16709TIP3   OH271617   4.898   0.463   6.616 -0.3589 -0.2140 -0.3823
16709TIP3    H171618   4.912   0.387   6.673 -1.6135  0.2665  0.5940
16709TIP3    H271619   4.813   0.447   6.575 -0.6784  0.6889 -0.0977
16710TIP3   OH271620   4.401   1.587  17.076  0.4719 -0.1869  0.5542
16710TIP3    H171621   4.326   1.619  17.025 -1.2113 -0.0980  2.9092
16710TIP3    H271622   4.429   1.663  17.127  0.6952 -0.7818  1.3371
16711TIP3   OH271623   1.604   1.531  15.643 -0.7740  0.6890 -0.2459
16711TIP3    H171624   1.539   1.471  15.680 -1.3446  1.7759  0.5550
16711TIP3    H271625   1.683   1.478  15.636 -1.4604 -0.3655 -0.2602
16712TIP3   OH271626   1.310   0.466   4.399 -0.4529  0.5613  0.0983
16712TIP3    H171627   1.254   0.486   4.474 -1.2997  2.0343 -0.8779
16712TIP3    H271628   1.299   0.372   4.385 -1.0108  0.4419  1.2225
16713TIP3   OH271629   2.834   4.580   5.193 -0.2473 -0.1231 -0.0886
16713TIP3    H171630   2.767   4.588   5.260 -0.8531 -0.4785 -0.6346
16713TIP3    H271631   2.786   4.551   5.115  0.8468 -2.6247  0.0734
16714TIP3   OH271632   4.014   1.577  11.866  0.7576 -0.4010 -0.1141
16714TIP3    H171633   3.925   1.543  11.873  0.4035  0.5469  0.2208
16714TIP3    H271634   4.047   1.545  11.782  0.5190 -1.6960  0.2684
16715TIP3   OH271635   6.482   3.312  13.670  0.3393 -0.4965 -0.0662
16715TIP3    H171636   6.551   3.306  13.736  0.8847  1.5032 -0.4011
16715TIP3    H271637   6.410   3.357  13.715  1.0120  1.6169 -0.9857
16716TIP3   OH271638   4.337   4.050   5.494  0.0845  0.3312 -0.3929
16716TIP3    H171639   4.307   3.959   5.488 -0.8181  0.6061 -0.1031
16716TIP3    H271640   4.417   4.045   5.547  0.0752 -0.2956 -0.4271
16717TIP3   OH271641   0.148   6.022  12.587 -0.1787  0.1218  0.0392
16717TIP3    H171642   0.212   5.996  12.653  0.4757 -0.7587 -0.9185
16717TIP3    H271643   0.148   6.118  12.591  0.3753  0.0998  0.8205
16718TIP3   OH271644   1.543   1.080   0.266 -0.2807  0.1228 -0.6050
16718TIP3    H171645   1.566   1.149   0.329 -1.2434 -1.3611  1.4895
16718TIP3    H271646   1.447   1.086   0.260 -0.2544 -0.2257 -1.3946
16719TIP3   OH271647   0.912   6.039   0.094  0.1095 -0.5181 -0.5267
16719TIP3    H171648   0.854   6.051   0.169  0.8537  3.1403 -0.3810
16719TIP3    H271649   1.000   6.034   0.131  0.3476 -0.4884 -1.0706
16720TIP3   OH271650   0.519   1.789  14.813 -0.0906 -0.4351  0.3738
16720TIP3    H171651   0.576   1.866  14.815 -0.3938 -0.2218  1.4252
16720TIP3    H271652   0.519   1.762  14.721 -0.1148  0.9221 -0.0476
16721TIP3   OH271653   2.492   5.455  12.707  0.2772 -0.2070 -0.0294
16721TIP3    H171654   2.583   5.483  12.693  0.3977 -0.3218  0.5066
16721TIP3    H271655   2.482   5.378  12.650 -0.8886  2.4022 -3.6966
16722TIP3   OH271656   3.980   3.401   2.396  0.2737  0.0197  0.2841
16722TIP3    H171657   3.897   3.365   2.363 -0.0087  0.0675  0.9198
16722TIP3    H271658   3.957   3.440   2.481  0.7308  1.0199 -0.0347
16723TIP3   OH271659   5.317   0.671   5.975 -0.1425  0.3246  0.4016
16723TIP3    H171660   5.239   0.708   5.933  0.0130 -0.0726 -0.2583
16723TIP3    H271661   5.289   0.650   6.064 -1.0312 -0.5477 -0.0591
16724TIP3   OH271662   1.749   5.464   1.158 -0.4343 -0.3271  0.1856
16724TIP3    H171663   1.737   5.556   1.139  0.6968 -0.1372  0.3548
16724TIP3    H271664   1.662   5.434   1.188 -1.2175  0.2732 -1.3884
16725TIP3   OH271665   0.431   5.634  16.401  0.2277 -0.4156 -0.6024
16725TIP3    H171666   0.431   5.692  16.478  0.8956 -1.4912  0.2298
16725TIP3    H271667   0.359   5.574  16.417 -0.6521  0.3390 -1.6098
16726TIP3   OH271668   5.860   2.614  15.785 -0.3884  0.4398 -0.0956
16726TIP3    H171669   5.793   2.585  15.846  0.0012  1.2878  0.7683
16726TIP3    H271670   5.915   2.673  15.837  1.1336 -0.3727 -0.7231
16727TIP3   OH271671   3.219   4.039   2.187  0.6353 -0.3638 -0.0899
16727TIP3    H171672   3.180   4.121   2.220  0.2706  0.3447 -2.1488
16727TIP3    H271673   3.265   4.003   2.263 -2.6292 -0.4432  2.1026
16728TIP3   OH271674   5.322   0.905   0.072  0.2604  0.0265 -0.3112
16728TIP3    H171675   5.402   0.954   0.051 -0.0849  1.6175  1.7651
16728TIP3    H271676   5.322   0.832   0.011  2.0192  1.3495 -2.0061
16729TIP3   OH271677   0.251   3.142   2.582 -0.2914 -0.2153  0.6411
16729TIP3    H171678   0.218   3.180   2.663 -1.0346  0.4161  0.0562
16729TIP3    H271679   0.337   3.182   2.571 -0.3735  0.0364  0.8894
16730TIP3   OH271680   4.751   5.000  11.636 -0.1967  0.3657  0.6328
16730TIP3    H171681   4.733   4.951  11.716 -0.0119 -2.0227 -0.7056
16730TIP3    H271682   4.846   5.013  11.638  0.2173 -2.0040 -0.3607
16731TIP3   OH271683   6.500   4.530  13.252 -0.0341 -0.9509  0.4926
16731TIP3    H171684   6.436   4.525  13.181 -1.0305 -0.0466  1.2857
16731TIP3    H271685   6.561   4.598  13.225 -0.8002 -0.1279  0.7832
16732TIP3   OH271686   1.586   0.725  12.337 -0.2511  0.3568 -0.5996
16732TIP3    H171687   1.563   0.751  12.426 -0.8404  0.2372 -0.7133
16732TIP3    H271688   1.509   0.678  12.305  0.6344 -1.2162 -0.5321
16733TIP3   OH271689   0.306   4.147   6.700 -0.6241 -0.2831  0.5331
16733TIP3    H171690   0.359   4.073   6.726  0.3082 -0.7124 -2.2753
16733TIP3    H271691   0.216   4.113   6.696 -0.3202 -1.0478  0.0969
16734TIP3   OH271692   5.733   5.844   2.104  0.2640  0.1760 -0.3081
16734TIP3    H171693   5.759   5.827   2.195  1.1096  1.3732 -0.3004
16734TIP3    H271694   5.659   5.904   2.111 -0.5446 -0.7918 -0.3976
16735TIP3   OH271695   3.952   1.669  13.766  0.0700 -0.4970 -0.0659
16735TIP3    H171696   3.912   1.692  13.682  0.6779  0.8459 -0.0108
16735TIP3    H271697   3.901   1.594  13.797 -0.3417 -0.8410 -1.4951
16736TIP3   OH271698   4.451   6.371   6.391 -0.1072  0.1844  0.4651
16736TIP3    H171699   4.544   6.352   6.382  0.0565  0.7860  0.8476
16736TIP3    H271700   4.435   6.369   6.485 -0.7379 -1.0789  0.3530
16737TIP3   OH271701   5.373   1.530   4.587  0.4223 -0.3481 -0.0415
16737TIP3    H171702   5.314   1.559   4.657  3.0379 -0.4210  2.3948
16737TIP3    H271703   5.367   1.434   4.589 -0.4419 -0.3219 -0.8390
16738TIP3   OH271704   3.075   0.180  10.329  0.6266 -0.0021  0.3807
16738TIP3    H171705   3.115   0.138  10.405 -1.9405 -0.8966  1.3483
16738TIP3    H271706   3.068   0.111  10.264  0.6208  0.1185  0.2529
16739TIP3   OH271707   3.244   6.683  17.072 -0.1977 -0.0389  0.5647
16739TIP3    H171708   3.263   6.715  16.984 -2.2889  0.6262  0.2922
16739TIP3    H271709   3.200   6.756  17.115  0.3143 -0.5426  1.9921
16740TIP3   OH271710   2.778   4.902   2.013  0.1957  0.0076 -0.7081
16740TIP3    H171711   2.859   4.936   2.051 -1.0783  1.2077  1.1157
16740TIP3    H271712   2.751   4.833   2.073 -0.1706 -0.3480 -1.2763
16741TIP3   OH271713   4.340   2.213   0.868 -0.2080 -0.1967  0.2716
16741TIP3    H171714   4.276   2.164   0.920 -2.1060  0.7677 -1.0335
16741TIP3    H271715   4.327   2.304   0.894 -1.4098  0.3497 -1.9796
16742TIP3   OH271716   0.094   5.595  13.840  0.0716  0.7981 -0.7561
16742TIP3    H171717   0.077   5.689  13.833 -0.1705  0.7154 -1.4141
16742TIP3    H271718   0.187   5.586  13.821  0.1111  0.9120 -0.6178
16743TIP3   OH271719   4.184   0.949   5.928 -0.0221  0.0229 -0.4325
16743TIP3    H171720   4.102   0.979   5.968  0.0602 -0.4529  0.1031
16743TIP3    H271721   4.246   0.943   6.000  0.6217  0.8138 -0.9094
16744TIP3   OH271722   4.691   5.691   6.590  0.3230  0.1098 -0.3594
16744TIP3    H171723   4.669   5.601   6.615  1.1392 -0.4387 -1.5117
16744TIP3    H271724   4.607   5.730   6.566 -0.5133  0.6473  2.8973
16745TIP3   OH271725   1.183   1.575  15.629 -0.6405 -0.3727 -0.2917
16745TIP3    H171726   1.177   1.495  15.578 -1.5714 -0.4874 -0.0242
16745TIP3    H271727   1.228   1.638  15.572 -0.7292 -0.8085 -0.8403
16746TIP3   OH271728   4.671   6.380  11.686 -0.1770  0.2647  0.1661
16746TIP3    H171729   4.740   6.328  11.643  0.6029 -0.4222  2.1155
16746TIP3    H271730   4.605   6.393  11.618  1.4504  0.1613 -1.5222
16747TIP3   OH271731   5.970   0.384  13.644  0.2932  0.2001  0.3621
16747TIP3    H171732   6.028   0.427  13.706  0.2931 -1.6071  1.7273
16747TIP3    H271733   5.912   0.330  13.699  0.0092 -1.1622 -1.1741
16748TIP3   OH271734   4.626   3.945   2.016  0.4013  0.3856 -0.1997
16748TIP3    H171735   4.574   4.004   2.071 -1.0952  0.5910 -1.7307
16748TIP3    H271736   4.614   3.979   1.927  1.4847 -0.8322 -0.8459
16749TIP3   OH271737   3.932   5.736  11.947  0.0109 -0.1046 -0.2346
16749TIP3    H171738   3.913   5.653  11.989 -0.3691  1.2208  2.3878
16749TIP3    H271739   3.910   5.802  12.012  1.0969  2.0460 -1.9046
16750TIP3   OH271740   3.069   2.950  13.468  0.1996 -0.0485  0.3567
16750TIP3    H171741   3.095   2.913  13.553  0.2854 -1.9429 -0.4489
16750TIP3    H271742   2.981   2.984  13.484  0.1312 -0.5518  1.1753
16751TIP3   OH271743   5.201   4.713  14.101 -0.2697  0.1327 -0.2746
16751TIP3    H171744   5.151   4.774  14.155  1.5398 -0.9612  2.9084
16751TIP3    H271745   5.135   4.664  14.052 -2.1089  0.6747  1.5211
16752TIP3   OH271746   3.480   2.347   2.446 -0.3173  0.1570 -0.3352
16752TIP3    H171747   3.391   2.323   2.472 -0.4247 -0.3645 -1.1626
16752TIP3    H271748   3.492   2.309   2.359  0.9174 -0.3084  0.0027
16753TIP3   OH271749   4.508   5.445  16.955 -0.0034 -0.0777  0.4634
16753TIP3    H171750   4.550   5.380  17.011 -0.2294 -0.3758  0.2917
16753TIP3    H271751   4.528   5.416  16.866  1.7126  1.2700  0.3566
16754TIP3   OH271752   0.000   1.661   5.156 -0.0162  0.7385 -0.1772
16754TIP3    H171753   0.091   1.656   5.187  0.2312  2.0624 -0.6184
16754TIP3    H271754  -0.041   1.582   5.190  0.5113  1.5274  2.5753
16755TIP3   OH271755   4.015   6.478  16.148 -0.2227  0.4849 -0.0228
16755TIP3    H171756   4.063   6.405  16.111 -0.9458 -0.7144  1.3014
16755TIP3    H271757   3.949   6.500  16.082 -1.3788 -1.4880  0.4113
16756TIP3   OH271758   1.105   6.397   4.794  0.1841 -0.4256  0.2930
16756TIP3    H171759   1.136   6.342   4.866 -1.7470  0.1600  1.6480
16756TIP3    H271760   1.114   6.486   4.826 -0.5890 -0.1524 -0.2263
16757TIP3   OH271761   3.885   1.524  13.348  0.4388 -0.3257  0.5509
16757TIP3    H171762   3.954   1.515  13.282  1.0672  1.3711  0.9068
16757TIP3    H271763   3.877   1.619  13.361 -2.0767 -0.4704  0.4337
16758TIP3   OH271764   2.886   5.788   1.997 -0.2744  0.2371  0.5409
16758TIP3    H171765   2.963   5.845   2.000  0.4367 -0.7227  1.2351
16758TIP3    H271766   2.877   5.764   1.905 -0.8005  1.7304  0.1807
16759TIP3   OH271767   1.153   0.567  16.200 -0.1660 -0.0558 -0.0108
16759TIP3    H171768   1.190   0.490  16.245 -0.2978  1.0509  2.1291
16759TIP3    H271769   1.066   0.539  16.173  0.2805 -1.0593 -0.4756
16760TIP3   OH271770   3.802   6.409   2.077  0.0880 -0.5823  0.6580
16760TIP3    H171771   3.770   6.488   2.035  1.8847  1.6265  3.1056
16760TIP3    H271772   3.894   6.403   2.050  0.4615 -0.7746  1.9213
16761TIP3   OH271773   6.663   1.613   1.665  0.0543 -0.1738 -0.1653
16761TIP3    H171774   6.578   1.569   1.653  0.2997 -0.4198 -1.0452
16761TIP3    H271775   6.677   1.661   1.583  0.7396 -0.0805  0.0021
16762TIP3   OH271776   3.695   4.343   1.980 -0.2117 -0.0213  0.2194
16762TIP3    H171777   3.748   4.328   2.059 -0.4230  1.2422  0.6347
16762TIP3    H271778   3.617   4.387   2.013 -0.7490 -0.3651 -0.5929
16763TIP3   OH271779   5.218   6.505  16.390  0.4588 -0.9116 -0.0933
16763TIP3    H171780   5.296   6.456  16.415  0.8349 -0.2167  0.1104
16763TIP3    H271781   5.153   6.438  16.370  0.8194 -1.4900  0.6353
16764TIP3   OH271782   5.688   2.162   4.508 -0.2367  0.0817  0.3604
16764TIP3    H171783   5.597   2.132   4.503 -0.4059  0.8204 -1.8047
16764TIP3    H271784   5.740   2.082   4.503 -0.7440 -0.1767 -1.9575
16765TIP3   OH271785   0.186   4.657   3.917 -0.5870 -0.3401  0.5594
16765TIP3    H171786   0.203   4.664   3.823 -2.1583 -0.2269  0.2562
16765TIP3    H271787   0.096   4.686   3.927 -0.3099  0.0432  2.1776
16766TIP3   OH271788   0.755   5.252  10.902 -0.4796 -0.3072 -0.0330
16766TIP3    H171789   0.669   5.291  10.886  0.0180  1.5462  1.4829
16766TIP3    H271790   0.817   5.315  10.866  0.2979 -1.4470 -0.7805
16767TIP3   OH271791   2.461   0.466  16.846 -0.0997 -0.6288 -0.2689
16767TIP3    H171792   2.555   0.461  16.832 -0.0023 -0.2256  0.2086
16767TIP3    H271793   2.432   0.375  16.846  0.5515 -0.8705  1.2366
16768TIP3   OH271794   0.342   2.078   2.500  0.2924 -0.1537  0.1563
16768TIP3    H171795   0.283   2.020   2.451 -1.4749  1.5772  0.0966
16768TIP3    H271796   0.303   2.083   2.587  1.7029 -0.7922  0.8591
16769TIP3   OH271797   1.093   4.672  11.415 -0.4641 -0.1340 -0.7922
16769TIP3    H171798   1.166   4.612  11.430 -0.1121  0.5589  0.3544
16769TIP3    H271799   1.134   4.753  11.385 -0.8443 -0.0677 -1.1413
16770TIP3   OH271800   5.357   6.353   1.281 -0.3768 -0.3757 -0.8182
16770TIP3    H171801   5.378   6.338   1.373 -0.9502 -0.7981 -0.7557
16770TIP3    H271802   5.392   6.277   1.235  0.0817 -0.0741 -0.9807
16771TIP3   OH271803   1.561   3.765   1.468 -0.1295 -0.5374  0.2986
16771TIP3    H171804   1.653   3.737   1.468 -0.2026 -0.9029 -1.5119
16771TIP3    H271805   1.561   3.847   1.418 -0.9507 -1.2654 -0.9574
16772TIP3   OH271806   0.119   5.946   6.164  0.6576  0.0189 -0.2783
16772TIP3    H171807   0.165   5.862   6.166 -1.3399 -1.1481  1.8159
16772TIP3    H271808   0.069   5.947   6.246  0.2784  3.0847 -0.4612
16773TIP3   OH271809   0.821   6.366  11.255  0.4800 -0.5912 -0.2604
16773TIP3    H171810   0.914   6.347  11.268  1.0892  1.2742 -1.4774
16773TIP3    H271811   0.791   6.401  11.339  1.1841 -0.0791 -0.2195
16774TIP3   OH271812   4.816   4.792  12.953 -0.1042 -0.1006 -0.3182
16774TIP3    H171813   4.909   4.795  12.929 -0.1360 -1.7451 -0.7289
16774TIP3    H271814   4.775   4.856  12.895  0.8827  1.4798  0.6182
16775TIP3   OH271815   3.577   4.979   4.490 -0.1472  0.0419 -0.0082
16775TIP3    H171816   3.647   5.015   4.435 -0.0008 -1.0983 -0.6037
16775TIP3    H271817   3.567   5.043   4.560  1.3333  0.3490 -0.0377
16776TIP3   OH271818   5.372   4.098  16.768 -0.0831 -0.1204 -0.3740
16776TIP3    H171819   5.432   4.172  16.782  0.4408 -0.2314 -1.8792
16776TIP3    H271820   5.407   4.029  16.825  1.5793 -0.3540 -1.6095
16777TIP3   OH271821   0.748   1.943   5.718 -0.5052  0.2969  0.1623
16777TIP3    H171822   0.828   1.983   5.684 -0.2392  0.5602  1.0560
16777TIP3    H271823   0.753   1.957   5.813  0.6265 -3.6510  0.8748
16778TIP3   OH271824   5.560   1.202  16.799  0.1049  0.2063  0.2521
16778TIP3    H171825   5.547   1.275  16.740  0.8559  0.2152  0.0939
16778TIP3    H271826   5.523   1.231  16.882 -0.1002  0.5482  0.0423
16779TIP3   OH271827   3.392   3.277  12.222  0.0818 -0.1110  0.0758
16779TIP3    H171828   3.323   3.284  12.288 -0.4460  0.1910 -0.5026
16779TIP3    H271829   3.465   3.326  12.260 -0.3840  0.4801  0.2284
16780TIP3   OH271830   4.755   4.769  11.823  0.1834  0.3809 -0.3219
16780TIP3    H171831   4.752   4.678  11.793  0.2829  0.2132  0.1719
16780TIP3    H271832   4.847   4.793  11.818  0.0521  0.7575 -1.3220
16781TIP3   OH271833   2.708   2.052   5.376  0.8097  0.0389 -0.2658
16781TIP3    H171834   2.751   2.128   5.414  0.0823 -0.1722  1.0360
16781TIP3    H271835   2.615   2.065   5.395  0.7084 -1.3644  0.3740
16782TIP3   OH271836   0.259   5.263  16.877 -0.6170 -0.1220 -0.1227
16782TIP3    H171837   0.297   5.187  16.833  0.5238 -0.2348  0.9799
16782TIP3    H271838   0.304   5.338  16.838 -1.6163 -0.0097 -1.0861
16783TIP3   OH271839   4.741   3.976   3.403 -0.7720  0.4254 -0.0467
16783TIP3    H171840   4.659   4.023   3.413 -1.3722 -0.7710  0.9623
16783TIP3    H271841   4.732   3.900   3.461  0.3251 -0.6716 -1.2505
16784TIP3   OH271842   4.314   5.533  15.240  0.3217  0.9977  0.0440
16784TIP3    H171843   4.362   5.581  15.173 -0.0781  0.0402 -0.9489
16784TIP3    H271844   4.370   5.457  15.259 -1.1030 -0.5752 -1.7169
16785TIP3   OH271845   2.449   4.407   4.554 -0.6839 -0.4372 -0.5187
16785TIP3    H171846   2.431   4.351   4.629  0.2563 -0.7732 -0.5373
16785TIP3    H271847   2.467   4.347   4.482  2.6469 -0.2171 -0.0118
16786TIP3   OH271848   6.145   4.089   2.622 -0.0590 -0.5988 -0.1134
16786TIP3    H171849   6.173   4.008   2.665 -0.1855 -0.9516 -0.6860
16786TIP3    H271850   6.223   4.121   2.578 -0.0842 -0.5662 -0.1341
16787TIP3   OH271851   4.484   2.351   2.948  0.4736 -0.7970 -0.7287
16787TIP3    H171852   4.528   2.333   3.031 -0.2665  0.8141  0.0556
16787TIP3    H271853   4.555   2.353   2.884  1.4839  0.7916  0.3561
16788TIP3   OH271854   3.994   3.095   5.104 -0.4753  0.1583  0.1713
16788TIP3    H171855   4.044   3.035   5.160 -1.2974 -0.9190 -0.2239
16788TIP3    H271856   3.903   3.084   5.133 -0.7637  0.4247 -0.6172
16789TIP3   OH271857   3.490   2.527   4.701  0.6197 -0.0123 -0.0840
16789TIP3    H171858   3.431   2.467   4.747  0.2172  1.5151  1.4832
16789TIP3    H271859   3.575   2.483   4.705  0.2542 -0.6828  0.6352
16790TIP3   OH271860   2.309   1.564   6.235 -0.1455 -0.9041 -0.4191
16790TIP3    H171861   2.302   1.499   6.305  2.1998 -0.7587  0.0238
16790TIP3    H271862   2.399   1.595   6.240 -0.7607  1.2527 -1.6516
16791TIP3   OH271863   2.802   6.310   1.761 -0.0360 -0.0418 -0.6248
16791TIP3    H171864   2.719   6.354   1.777 -1.3176 -2.5010 -0.0949
16791TIP3    H271865   2.823   6.330   1.670 -1.6302 -0.0076 -1.0121
16792TIP3   OH271866   6.523   0.717   3.534 -0.1405  0.2334  1.3212
16792TIP3    H171867   6.485   0.679   3.454 -0.9014  1.2165  1.1988
16792TIP3    H271868   6.617   0.713   3.519 -0.2340 -0.6811  0.8866
16793TIP3   OH271869   3.361   2.583  11.260 -0.3172  0.2238 -0.3889
16793TIP3    H171870   3.413   2.635  11.199  0.4853 -0.3569 -0.2277
16793TIP3    H271871   3.341   2.502  11.213  0.6682 -0.4091  0.2279
16794TIP3   OH271872   4.081   2.933  11.573 -0.2986 -0.0691  0.1152
16794TIP3    H171873   4.154   2.960  11.517 -1.3636  0.5817 -1.0075
16794TIP3    H271874   4.114   2.945  11.662  0.9492  0.2294 -0.3588
16795TIP3   OH271875   2.252   4.226   2.707  0.2536  0.3986 -0.0836
16795TIP3    H171876   2.219   4.149   2.659  2.1983  1.2125 -2.9960
16795TIP3    H271877   2.177   4.286   2.710 -0.5173 -0.5276 -0.1990
16796TIP3   OH271878   3.763   0.316  15.284  0.0646  0.3006  0.2846
16796TIP3    H171879   3.668   0.318  15.290 -0.2968 -1.0308 -2.7660
16796TIP3    H271880   3.794   0.358  15.364 -3.0746  2.3016  0.6051
16797TIP3   OH271881   6.030   2.837   3.542 -0.0709 -0.5815 -0.1536
16797TIP3    H171882   5.988   2.911   3.498  0.5574  0.1356  0.4330
16797TIP3    H271883   5.976   2.762   3.519 -0.9857  0.1318 -0.3771
16798TIP3   OH271884   3.428   3.934  14.733  0.4435  0.2445 -0.2487
16798TIP3    H171885   3.426   3.931  14.638  0.0180  0.0744 -0.2345
16798TIP3    H271886   3.506   3.985  14.754  0.3183  0.6165 -0.6912
16799TIP3   OH271887   5.784   2.885  10.983  0.2862 -1.0470 -0.1911
16799TIP3    H171888   5.734   2.917  10.908  0.5628  1.4869  0.6005
16799TIP3    H271889   5.719   2.875  11.052  0.5373  0.3184  0.2712
16800TIP3   OH271890   0.509   3.088  16.315 -0.3848 -0.3576 -0.5194
16800TIP3    H171891   0.596   3.121  16.337  0.0782 -1.5018 -0.5584
16800TIP3    H271892   0.460   3.165  16.286  1.1587  0.0546 -2.2071
16801TIP3   OH271893   4.948   3.324   2.368  0.3449 -0.1121  0.5120
16801TIP3    H171894   4.879   3.272   2.326 -0.2967 -0.1147  1.5241
16801TIP3    H271895   4.927   3.414   2.346 -1.0225  0.0450  2.1875
16802TIP3   OH271896   3.850   6.212  10.964  0.4301  0.3477 -0.6928
16802TIP3    H171897   3.939   6.198  10.931  0.4529 -0.9511 -0.1441
16802TIP3    H271898   3.857   6.288  11.022  1.2592  0.0673 -0.4152
16803TIP3   OH271899   3.835   3.177   3.830 -0.0006 -0.0662 -0.0685
16803TIP3    H171900   3.765   3.243   3.835 -0.7906 -0.9559  1.2586
16803TIP3    H271901   3.871   3.173   3.919 -1.5268 -2.9922  0.5663
16804TIP3   OH271902   5.819   4.965   3.493  0.0923  0.4876 -0.2026
16804TIP3    H171903   5.888   4.926   3.546 -0.6456 -0.0390  0.4041
16804TIP3    H271904   5.864   5.001   3.417  0.8980 -0.8239 -0.3781
16805TIP3   OH271905   2.432   3.436   4.624  0.6038  0.1296 -0.2997
16805TIP3    H171906   2.398   3.379   4.692  2.1869  1.3487  1.6088
16805TIP3    H271907   2.358   3.448   4.563 -0.1902 -2.7065 -0.0117
16806TIP3   OH271908   3.118   2.731  15.433  0.1916  0.0858 -0.2589
16806TIP3    H171909   3.122   2.774  15.518  1.2542 -0.0290 -0.2433
16806TIP3    H271910   3.044   2.671  15.441 -0.0406  0.4491  0.4041
16807TIP3   OH271911   4.649   3.290   3.369  0.1625  0.1468  0.2156
16807TIP3    H171912   4.740   3.316   3.387  0.3894 -0.8771  0.5852
16807TIP3    H271913   4.617   3.254   3.451  0.2373 -1.8040 -0.5607
16808TIP3   OH271914   1.012   5.435  11.721 -0.2305  0.4745  0.3136
16808TIP3    H171915   1.085   5.496  11.726  0.0595  0.3736 -1.8373
16808TIP3    H271916   1.001   5.417  11.628 -0.5568 -2.4788  0.8070
16809TIP3   OH271917   5.459   2.649   4.464 -0.7901  0.3629 -0.0777
16809TIP3    H171918   5.454   2.697   4.546 -1.4687  0.8251 -0.3853
16809TIP3    H271919   5.528   2.584   4.479 -1.8345 -0.4703  1.3202
16810TIP3   OH271920   2.601   2.011   1.453  0.3612  0.4650  0.3872
16810TIP3    H171921   2.562   1.971   1.531  0.1147  0.9800  0.5303
16810TIP3    H271922   2.652   1.940   1.414  0.3464  0.1514  0.9176
16811TIP3   OH271923   5.015   5.460  12.610 -0.0087 -0.6748  0.6382
16811TIP3    H171924   5.087   5.498  12.661 -1.6109  0.4303  2.1928
16811TIP3    H271925   5.041   5.368  12.599  1.9155 -0.1837  0.5818
16812TIP3   OH271926   2.680   3.712  15.020 -0.1558 -0.5200  0.2965
16812TIP3    H171927   2.769   3.740  15.041 -0.5473 -0.1434  1.5323
16812TIP3    H271928   2.627   3.791  15.028 -0.5506 -0.6462 -0.8645
16813TIP3   OH271929   6.014   6.153  15.443 -0.1680  0.0191  0.3613
16813TIP3    H171930   5.969   6.105  15.513  0.4530  0.6680  1.2274
16813TIP3    H271931   6.061   6.085  15.394 -0.8703 -0.4814  0.3684
16814TIP3   OH271932   5.984   1.387  14.948  0.1004  0.0816  0.0374
16814TIP3    H171933   6.046   1.360  15.015 -0.0846  1.5063  0.8315
16814TIP3    H271934   5.961   1.306  14.901  0.8008 -0.8153  1.2052
16815TIP3   OH271935   1.936   0.079   2.697 -0.0874 -0.0869 -0.5068
16815TIP3    H171936   1.888   0.132   2.761  0.9044 -0.1270  0.2826
16815TIP3    H271937   1.984   0.016   2.749  1.4064  0.4198 -1.2320
16816TIP3   OH271938   3.265   1.477  15.179  0.2820 -0.1488  0.1943
16816TIP3    H171939   3.205   1.496  15.251 -0.0369 -2.3240  0.5653
16816TIP3    H271940   3.243   1.388  15.151  1.3808  0.0941 -1.6288
16817TIP3   OH271941   1.260   2.384  15.514 -0.6102 -0.3553  0.0774
16817TIP3    H171942   1.221   2.440  15.582  0.6457  0.7543 -0.0553
16817TIP3    H271943   1.186   2.339  15.474 -1.6726  1.1233  0.2982
16818TIP3   OH271944   6.288   6.417   0.314  0.4523 -0.3119  0.7232
16818TIP3    H171945   6.321   6.495   0.361 -0.1162  0.2104  0.2695
16818TIP3    H271946   6.362   6.389   0.260  1.0669 -0.8304  1.8006
16819TIP3   OH271947   2.932   0.885   5.707  0.3830 -0.6769 -0.0004
16819TIP3    H171948   2.842   0.903   5.682  1.0423  3.1549 -0.1223
16819TIP3    H271949   2.925   0.841   5.792 -1.5350 -2.7841 -1.1241
16820TIP3   OH271950   4.596   1.973   5.296  0.4742 -0.1999 -0.4964
16820TIP3    H171951   4.568   2.057   5.332  0.8502  0.7438 -2.2970
16820TIP3    H271952   4.515   1.922   5.289 -0.3360  1.2513 -2.4614
16821TIP3   OH271953   2.553   6.677   5.587 -0.6846 -0.4054  0.4361
16821TIP3    H171954   2.487   6.742   5.564 -0.7606  0.1703  2.1496
16821TIP3    H271955   2.504   6.596   5.596 -0.5348 -0.8748 -2.0969
16822TIP3   OH271956   3.763   3.274  15.576  0.1526 -0.3786  0.1613
16822TIP3    H171957   3.669   3.259  15.580  0.0802  0.2358  0.9245
16822TIP3    H271958   3.801   3.186  15.569 -0.4560 -0.6486  0.1770
16823TIP3   OH271959   4.465   3.275   1.787 -0.1227  0.5434 -0.0934
16823TIP3    H171960   4.424   3.321   1.860  0.3257  1.2150 -0.2516
16823TIP3    H271961   4.392   3.238   1.737 -0.4836  0.9410  0.1349
16824TIP3   OH271962   3.202   6.197  10.687 -0.0794 -0.2839 -0.1774
16824TIP3    H171963   3.218   6.258  10.614 -2.1149  0.7857  0.1925
16824TIP3    H271964   3.274   6.212  10.747  0.9999 -0.3300 -1.4174
16825TIP3   OH271965   3.326   4.523   5.352  0.4681  0.5768 -0.2246
16825TIP3    H171966   3.254   4.529   5.288  0.9314  2.6255 -0.6105
16825TIP3    H271967   3.285   4.546   5.435 -0.1354 -2.0941  0.3339
16826TIP3   OH271968   4.548   0.036   2.204 -0.1034 -0.3794 -0.2826
16826TIP3    H171969   4.482  -0.008   2.259 -0.2469 -1.9613 -1.6303
16826TIP3    H271970   4.625  -0.021   2.209  0.7109  0.7254  0.1596
16827TIP3   OH271971   6.368   2.336   6.147  0.4329  0.4104  0.2437
16827TIP3    H171972   6.364   2.310   6.055  0.7366 -1.7910  0.8055
16827TIP3    H271973   6.460   2.360   6.161  0.6096 -0.2412  0.2147
16828TIP3   OH271974   5.582   4.980  13.456 -0.0602 -0.1434 -0.1451
16828TIP3    H171975   5.486   4.980  13.456 -0.0902  0.4673  0.9738
16828TIP3    H271976   5.606   5.065  13.419 -0.0436  0.8391  1.9720
16829TIP3   OH271977   1.829   2.166  14.561  0.0889  0.8923  0.1822
16829TIP3    H171978   1.893   2.169  14.632 -0.1718  0.1759  0.4530
16829TIP3    H271979   1.878   2.131  14.486 -0.2990 -0.9892  0.7575
16830TIP3   OH271980   2.828   4.984   0.954  0.1802  0.0412  0.3911
16830TIP3    H171981   2.808   4.982   1.047 -2.7419 -0.5613 -0.1488
16830TIP3    H271982   2.843   5.077   0.935 -2.4328  0.6530  0.9496
16831TIP3   OH271983   4.599   4.524  13.228  0.6099 -0.8351 -0.8332
16831TIP3    H171984   4.625   4.520  13.136  0.5297  1.8943 -1.0517
16831TIP3    H271985   4.681   4.515  13.276  0.7896 -1.2334 -1.2066
16832TIP3   OH271986   1.340   5.714  11.460 -0.3686  0.3115 -0.2067
16832TIP3    H171987   1.286   5.783  11.423 -3.1297 -2.1619 -1.1360
16832TIP3    H271988   1.371   5.664  11.385 -0.4416 -0.8628  0.5082
16833TIP3   OH271989   3.739   4.135   1.664  0.3582  0.4454 -0.2994
16833TIP3    H171990   3.691   4.062   1.704  1.5544 -0.2789 -0.1265
16833TIP3    H271991   3.827   4.101   1.650  1.4735  2.4009  1.4238
16834TIP3   OH271992   1.305   0.728   3.001 -0.2215 -0.8673  0.3071
16834TIP3    H171993   1.291   0.636   3.023  0.2669 -1.1501 -0.5036
16834TIP3    H271994   1.295   0.732   2.906  0.1198 -0.1551  0.2917
16835TIP3   OH271995   2.757   1.568   2.316  0.0523 -0.1582  0.2247
16835TIP3    H171996   2.789   1.493   2.367  1.4506  1.4493  1.8161
16835TIP3    H271997   2.834   1.599   2.268 -0.3186  0.7149  0.1835
16836TIP3   OH271998   6.022   0.860  16.651 -0.2547 -0.4100  0.2205
16836TIP3    H171999   6.084   0.877  16.722 -1.6258 -0.3610  1.4473
16836TIP3    H272000   5.936   0.861  16.693 -1.0385 -1.3778 -1.2666
16837TIP3   OH272001   6.693   2.721   1.526 -0.4031 -0.2618 -0.0898
16837TIP3    H172002   6.654   2.686   1.606 -1.1251  1.6308  0.4475
16837TIP3    H272003   6.619   2.761   1.479  0.1340 -0.6954 -1.3623
16838TIP3   OH272004   2.252   1.617  14.969  0.2630  0.0301 -0.3556
16838TIP3    H172005   2.320   1.656  15.024 -1.1049  0.0275  1.4252
16838TIP3    H272006   2.263   1.523  14.981 -0.1318  0.0336  0.0471
16839TIP3   OH272007   4.848   6.497   0.818  0.0780 -0.2764  0.3846
16839TIP3    H172008   4.858   6.402   0.811  1.2913 -0.3538  2.2974
16839TIP3    H272009   4.788   6.509   0.892  0.4969  0.4423  0.6176
16840TIP3   OH272010   1.821   2.729   5.662  0.4525  0.0394 -0.3380
16840TIP3    H172011   1.726   2.715   5.657  0.7308 -1.9365 -1.1492
16840TIP3    H272012   1.849   2.675   5.736  0.8782  1.2052  0.3792
16841TIP3   OH272013   5.265   2.929   6.052 -0.0304 -0.0199 -0.0229
16841TIP3    H172014   5.178   2.894   6.034 -0.0943  1.1123 -2.3246
16841TIP3    H272015   5.318   2.904   5.975  0.7285  2.1162 -0.2660
16842TIP3   OH272016   1.985   1.977  13.777  0.4157  0.1428 -0.0268
16842TIP3    H172017   1.899   1.968  13.818  0.6168  1.5845  0.7845
16842TIP3    H272018   2.025   1.890  13.786 -1.2191 -0.7546 -1.1055
16843TIP3   OH272019   4.780   4.939  14.851 -0.3770 -0.1545  0.3202
16843TIP3    H172020   4.684   4.938  14.855 -0.5230  3.2656  0.5146
16843TIP3    H272021   4.806   4.961  14.941  0.6508 -1.5337  0.3784
16844TIP3   OH272022   2.551   0.169   5.407 -0.0327  0.0158 -0.5891
16844TIP3    H172023   2.497   0.123   5.342  0.6469 -2.4180  0.4651
16844TIP3    H272024   2.641   0.140   5.388  0.0878 -1.5965  1.9758
16845TIP3   OH272025   0.586   1.360  14.658  0.2147 -0.5354 -0.4775
16845TIP3    H172026   0.508   1.309  14.682 -1.2363  2.2247  1.1108
16845TIP3    H272027   0.579   1.370  14.563 -2.4531  1.0982 -0.2248
16846TIP3   OH272028   5.712   3.513  14.398  0.2712 -0.8244 -0.4232
16846TIP3    H172029   5.787   3.471  14.355  1.0490 -0.4289  0.5298
16846TIP3    H272030   5.655   3.440  14.421  1.6287 -1.4219  1.2628
16847TIP3   OH272031   5.334   3.811  16.516 -0.2801 -0.9409 -0.6469
16847TIP3    H172032   5.427   3.825  16.501 -0.1585 -1.4917 -0.4492
16847TIP3    H272033   5.292   3.892  16.487  0.2535 -0.7120 -0.7903
16848TIP3   OH272034   0.334   1.865   3.240  0.9427  0.1685 -0.3946
16848TIP3    H172035   0.362   1.773   3.235  0.0240 -0.1881  0.5483
16848TIP3    H272036   0.328   1.893   3.148 -0.2169 -1.1934 -0.7676
16849TIP3   OH272037   6.623   6.282   3.039 -0.3146  0.7705  0.3009
16849TIP3    H172038   6.638   6.321   3.125 -2.2744  0.0569  1.0337
16849TIP3    H272039   6.542   6.322   3.009  0.0889  0.6385 -1.0229
16850TIP3   OH272040   2.991   3.313  16.817  0.1238 -0.0790  0.2312
16850TIP3    H172041   2.954   3.237  16.862  2.3691 -1.6223 -0.3063
16850TIP3    H272042   2.994   3.382  16.883  0.8440 -1.4526  1.6984
16851TIP3   OH272043   1.900   0.644  11.942  0.4668  0.2839 -0.4190
16851TIP3    H172044   1.903   0.552  11.916  2.2429 -0.3188  1.6485
16851TIP3    H272045   1.895   0.642  12.037 -1.5961  2.3724 -0.3814
16852TIP3   OH272046   1.251   4.510  13.812 -0.9066  0.0846 -0.2396
16852TIP3    H172047   1.174   4.548  13.770 -1.6550 -0.9512  0.1623
16852TIP3    H272048   1.320   4.515  13.746 -1.3772  0.7827 -0.6922
16853TIP3   OH272049   4.443   6.558  14.803 -0.0034 -0.2282 -0.3126
16853TIP3    H172050   4.429   6.574  14.710 -1.0443 -0.4095 -0.1944
16853TIP3    H272051   4.517   6.615  14.826 -1.2619  1.6648 -0.7182
16854TIP3   OH272052   4.705   3.039   4.301  0.4168  0.3936 -0.3897
16854TIP3    H172053   4.719   3.094   4.224 -0.3250  0.0920 -0.7584
16854TIP3    H272054   4.622   2.993   4.282  0.6896 -0.3548  0.1894
16855TIP3   OH272055   1.329   5.018   4.367 -0.0158  0.5217  0.2883
16855TIP3    H172056   1.319   4.923   4.374 -0.4512  0.3993 -1.5344
16855TIP3    H272057   1.241   5.052   4.383  0.5508  0.8407  3.2432
16856TIP3   OH272058   1.060   4.133   5.233  0.1577 -0.2332  0.1023
16856TIP3    H172059   1.027   4.215   5.198  1.3244 -0.1026 -0.7728
16856TIP3    H272060   1.143   4.157   5.275  0.4669 -0.9467 -0.0868
16857TIP3   OH272061   4.817   6.750   2.289 -0.0834  0.6216  0.4706
16857TIP3    H172062   4.795   6.826   2.343 -1.6458  0.1894  0.4997
16857TIP3    H272063   4.904   6.724   2.318 -0.3175  1.2351  1.8024
16858TIP3   OH272064   4.025   0.206  13.869 -0.2995  0.2107  0.0128
16858TIP3    H172065   3.958   0.251  13.921  0.6385  0.4659  1.0674
16858TIP3    H272066   4.091   0.180  13.934  1.5439  1.6568 -1.1765
16859TIP3   OH272067   3.754   5.468   2.708  0.4144 -0.3893  0.0352
16859TIP3    H172068   3.778   5.486   2.800  3.1111 -3.7148  0.1734
16859TIP3    H272069   3.791   5.542   2.660  1.8464 -0.1414  1.3939
16860TIP3   OH272070   3.072   5.145  14.135  0.4238 -0.8113 -0.3923
16860TIP3    H172071   2.987   5.181  14.162  1.7832  0.3044  2.8439
16860TIP3    H272072   3.099   5.201  14.062 -0.5835  0.3528  0.0857
16861TIP3   OH272073   1.050   6.097  12.900 -0.1685 -0.2261  1.0368
16861TIP3    H172074   1.090   6.035  12.961  1.4268 -1.6228 -1.2910
16861TIP3    H272075   1.106   6.174  12.902  1.2677 -1.1844 -0.3137
16862TIP3   OH272076   5.298   1.995  11.886 -0.4716 -0.3958  0.4362
16862TIP3    H172077   5.223   2.032  11.840  0.0428 -0.2748 -0.3268
16862TIP3    H272078   5.362   1.976  11.817 -0.1943 -1.4430  0.9602
16863TIP3   OH272079   1.478   6.567  12.059 -0.1696 -0.2852 -0.2192
16863TIP3    H172080   1.447   6.645  12.013 -1.0779 -0.8846 -0.6397
16863TIP3    H272081   1.484   6.500  11.991 -0.8835 -1.0045  0.4062
16864TIP3   OH272082   5.124   6.042  10.488  0.1987 -0.4717 -0.6994
16864TIP3    H172083   5.136   5.950  10.465 -1.2455 -0.7510 -0.4397
16864TIP3    H272084   5.122   6.043  10.584  0.2015 -0.1623 -0.7006
16865TIP3   OH272085   1.377   0.371  12.799  0.2415  0.0321 -0.3266
16865TIP3    H172086   1.343   0.290  12.836  1.5276 -0.3246  0.1602
16865TIP3    H272087   1.423   0.343  12.719 -0.7672  0.5240 -1.0930
16866TIP3   OH272088   3.495   5.831  10.852 -0.3852 -0.1048 -0.2201
16866TIP3    H172089   3.559   5.787  10.796 -0.2823 -0.0413 -0.1547
16866TIP3    H272090   3.421   5.849  10.794 -0.2998 -0.0831 -0.3235
16867TIP3   OH272091   1.287   6.683   5.475 -0.5050 -0.1082  0.3051
16867TIP3    H172092   1.301   6.753   5.411  3.9997 -1.0710 -0.0874
16867TIP3    H272093   1.255   6.610   5.424 -2.1852  0.6616  0.1889
16868TIP3   OH272094   0.562   5.000   6.133  0.5377  0.0523 -0.6218
16868TIP3    H172095   0.516   5.008   6.049 -0.2710  1.9513 -0.0467
16868TIP3    H272096   0.651   5.029   6.115  0.8824 -1.2627 -1.1828
16869TIP3   OH272097   6.572   3.608   2.217 -0.0475  0.2043 -0.2369
16869TIP3    H172098   6.571   3.573   2.306  0.3276 -0.9477 -0.6681
16869TIP3    H272099   6.482   3.636   2.201 -0.5671 -1.2705 -0.1115
16870TIP3   OH272100   2.583   2.701   5.677 -0.1670  0.4247  0.4547
16870TIP3    H172101   2.608   2.619   5.720 -0.3092  0.5407  0.7541
16870TIP3    H272102   2.489   2.694   5.665  0.1645 -0.7660 -2.2047
16871TIP3   OH272103   6.224   4.415   1.978 -0.1241  0.3930 -0.5531
16871TIP3    H172104   6.255   4.401   1.888  0.4021 -0.4209 -0.2579
16871TIP3    H272105   6.190   4.329   2.005 -0.5788  0.7154 -0.0861
16872TIP3   OH272106   6.194   0.457   2.441 -0.3299 -0.0609  0.1424
16872TIP3    H172107   6.223   0.368   2.418  1.8334  0.6308 -0.0511
16872TIP3    H272108   6.208   0.463   2.535 -0.8295 -0.0219  0.2185
16873TIP3   OH272109   0.058   5.349  17.092 -0.0202  0.3304 -0.1648
16873TIP3    H172110   0.062   5.442  17.114 -0.7710  0.5173 -0.7883
16873TIP3    H272111   0.137   5.334  17.041  0.1180  0.6163 -0.0419
16874TIP3   OH272112   1.918   1.770  15.121  0.3745 -0.3824 -0.2220
16874TIP3    H172113   1.837   1.783  15.170  0.6276  0.6801 -0.0697
16874TIP3    H272114   1.941   1.857  15.089  1.5024 -0.6606 -0.2012
16875TIP3   OH272115   0.264   6.222  16.764 -0.2830  0.1288 -0.3878
16875TIP3    H172116   0.346   6.182  16.791  0.4057  1.2331 -0.7733
16875TIP3    H272117   0.272   6.233  16.669 -1.1011 -0.2329 -0.5123
16876TIP3   OH272118   6.262   2.108  16.050  0.9000 -0.2377 -0.0583
16876TIP3    H172119   6.310   2.033  16.016  0.9365 -0.0073 -0.5302
16876TIP3    H272120   6.272   2.175  15.982  1.7821  0.5620  0.8247
16877TIP3   OH272121   0.078   0.736  15.018  0.3567  0.4334 -0.3732
16877TIP3    H172122  -0.005   0.738  14.969 -1.7199 -2.0642  2.6141
16877TIP3    H272123   0.129   0.668  14.974 -0.2240  0.2705 -0.8140
16878TIP3   OH272124   3.787   3.066  13.234  0.0438  0.0899 -0.0381
16878TIP3    H172125   3.852   3.023  13.178 -0.3418 -0.4050 -0.1146
16878TIP3    H272126   3.721   2.998  13.251 -1.1401  0.9397 -1.0408
16879TIP3   OH272127   6.050   5.585   2.377  0.2155  0.0666  0.1291
16879TIP3    H172128   6.140   5.560   2.360  0.9174  1.8279  0.9655
16879TIP3    H272129   6.012   5.600   2.290  1.8128  2.6636 -0.2495
16880TIP3   OH272130   3.542   1.800  11.696  0.5838 -0.2016 -0.2999
16880TIP3    H172131   3.486   1.874  11.721  1.1468  0.4062 -0.8196
16880TIP3    H272132   3.517   1.780  11.606  0.2049 -0.8707 -0.0564
16881TIP3   OH272133   1.162   6.812   5.188  0.1752  0.5099  0.2569
16881TIP3    H172134   1.161   6.868   5.110  2.2531 -0.0250 -0.2314
16881TIP3    H272135   1.243   6.835   5.233  0.1324 -0.7766  1.0416
16882TIP3   OH272136   0.458   2.760  14.834  0.4350 -0.1331  0.0710
16882TIP3    H172137   0.381   2.715  14.800 -0.6917  0.4991  1.6590
16882TIP3    H272138   0.447   2.851  14.808 -0.2336  0.2773  1.6825
16883TIP3   OH272139   6.208   5.640   4.678  0.0089 -0.3946 -0.5116
16883TIP3    H172140   6.284   5.614   4.729 -0.5293 -1.3576 -0.1766
16883TIP3    H272141   6.133   5.610   4.729 -0.6179  0.8398 -0.6658
16884TIP3   OH272142   2.560   4.899  16.147  0.2981  0.5403 -0.8754
16884TIP3    H172143   2.651   4.883  16.173 -0.1045 -0.7579 -0.1594
16884TIP3    H272144   2.552   4.995  16.145  1.7460  0.6755 -1.2417
16885TIP3   OH272145   6.407   5.953  13.046  0.3579 -0.0676  0.0339
16885TIP3    H172146   6.472   6.008  13.002 -0.6932  2.1530  1.0790
16885TIP3    H272147   6.418   5.974  13.139 -2.4106  1.1452  0.1767
16886TIP3   OH272148   3.384   2.746   4.885  0.6909 -0.1020 -0.4544
16886TIP3    H172149   3.415   2.684   4.819 -0.3826  1.1773 -2.2513
16886TIP3    H272150   3.461   2.799   4.906  0.5528  0.9558 -2.4397
16887TIP3   OH272151   2.835   4.729   1.547 -0.1165 -0.3990 -0.3392
16887TIP3    H172152   2.918   4.712   1.503 -0.4513 -1.3451 -0.6236
16887TIP3    H272153   2.821   4.823   1.536  0.3723 -0.4194 -1.2601
16888TIP3   OH272154   5.913   3.525   1.117  0.7905 -0.4629 -0.0833
16888TIP3    H172155   5.837   3.508   1.172  1.0096 -0.9144  0.0801
16888TIP3    H272156   5.919   3.449   1.059  0.4402  0.0977 -0.8884
16889TIP3   OH272157   4.855   0.898  14.510  0.5113 -0.0707  0.2998
16889TIP3    H172158   4.782   0.838  14.526  0.5378 -0.5397 -1.2060
16889TIP3    H272159   4.815   0.984  14.502  0.0878 -0.3483 -0.6682
16890TIP3   OH272160   2.044   0.786  16.481 -0.7921  0.1202  0.2293
16890TIP3    H172161   2.083   0.856  16.428 -1.0093 -1.7409 -2.5796
16890TIP3    H272162   1.993   0.833  16.548  1.7815  2.5926  0.6678
16891TIP3   OH272163   1.871   0.636   5.282  0.3015 -0.2464 -0.2593
16891TIP3    H172164   1.833   0.657   5.367  2.5847  0.1989  0.7325
16891TIP3    H272165   1.965   0.625   5.299  0.9178  0.2845 -2.7742
16892TIP3   OH272166   6.516   5.094   3.773 -0.3424  0.5504 -0.0469
16892TIP3    H172167   6.594   5.143   3.801  1.0229 -1.1775 -0.5941
16892TIP3    H272168   6.548   5.004   3.762 -2.6313 -0.3938  0.5298
16893TIP3   OH272169   6.115   0.396  14.020  0.2582 -0.7792 -0.0125
16893TIP3    H172170   6.088   0.356  13.937 -2.1824 -2.1805  1.3315
16893TIP3    H272171   6.120   0.490  14.001  0.6118 -1.1440 -1.9315
16894TIP3   OH272172   3.841   4.412   5.469  0.2115 -0.0117 -0.2193
16894TIP3    H172173   3.788   4.374   5.399 -0.0445  1.7721 -1.0387
16894TIP3    H272174   3.781   4.469   5.518  0.5040 -0.8431  1.1816
16895TIP3   OH272175   0.416   3.080   1.915 -0.5879  0.2535 -0.5273
16895TIP3    H172176   0.321   3.070   1.909 -0.4888 -0.6485 -0.8326
16895TIP3    H272177   0.450   3.026   1.843  0.0653  2.4894 -1.9912
16896TIP3   OH272178   1.870   2.878  11.598  0.4623 -0.4328 -0.2565
16896TIP3    H172179   1.798   2.844  11.545  0.4347 -1.3451  0.3471
16896TIP3    H272180   1.829   2.913  11.676  0.5935 -0.0544 -0.3558
16897TIP3   OH272181   4.021   6.496   0.644 -0.4065 -0.1551  0.1358
16897TIP3    H172182   4.016   6.419   0.701  0.9497  0.5834  1.3213
16897TIP3    H272183   4.074   6.467   0.570 -0.7302 -0.6379  0.0890
16898TIP3   OH272184   0.637   2.689  15.018  0.1720 -0.6144  1.2086
16898TIP3    H172185   0.576   2.701  14.944  1.7636 -0.4084 -0.1241
16898TIP3    H272186   0.679   2.605  15.001  0.6686 -0.4897  1.7958
16899TIP3   OH272187   1.647   3.515   5.843 -0.4267  0.0047  0.0996
16899TIP3    H172188   1.675   3.459   5.915  0.2067  0.1273 -0.0426
16899TIP3    H272189   1.717   3.580   5.834 -0.6553  0.1881 -0.4142
16900TIP3   OH272190   1.992   1.095  11.031 -0.3249  0.2966 -0.6515
16900TIP3    H172191   1.947   1.174  11.000 -0.7209 -0.4234 -1.9832
16900TIP3    H272192   1.970   1.028  10.967 -0.2968 -1.0191  0.6632
16901TIP3   OH272193   5.497   3.019   4.018 -0.3776 -0.2900 -0.3923
16901TIP3    H172194   5.413   3.040   4.059 -0.3742 -2.0609  0.6354
16901TIP3    H272195   5.550   3.098   4.029 -1.5142  0.4520 -0.0474
16902TIP3   OH272196   3.562   6.233   1.730  0.1086  0.1768  0.1692
16902TIP3    H172197   3.528   6.267   1.813 -1.1069  0.5973 -0.4808
16902TIP3    H272198   3.632   6.294   1.707  1.8598 -1.0814  1.8610
16903TIP3   OH272199   6.807   1.875  16.486 -0.0803 -0.2878  0.2412
16903TIP3    H172200   6.759   1.950  16.452 -0.5919 -1.8827 -2.8737
16903TIP3    H272201   6.739   1.812  16.510  0.3759 -0.7417  0.3608
16904TIP3   OH272202   1.170   2.988  12.795  0.0033 -0.1238  0.3802
16904TIP3    H172203   1.255   2.949  12.773 -0.8028 -2.2543  0.8043
16904TIP3    H272204   1.106   2.924  12.764 -1.4799  1.5538 -0.1269
16905TIP3   OH272205   6.066   0.357   0.133 -0.0124 -0.6638 -0.0052
16905TIP3    H172206   6.089   0.449   0.145 -0.7085 -0.3731 -0.8085
16905TIP3    H272207   6.054   0.323   0.221 -1.7782  0.5551  0.2668
16906TIP3   OH272208   1.375   4.828  16.290 -0.1635 -0.0977  0.0897
16906TIP3    H172209   1.436   4.902  16.288 -0.1161 -0.1511 -1.2056
16906TIP3    H272210   1.395   4.783  16.373 -0.9501  1.9182  1.4643
16907TIP3   OH272211   5.842   0.290  13.030 -0.3360 -0.3418  0.0946
16907TIP3    H172212   5.903   0.317  13.098 -1.1495 -0.3253  0.8203
16907TIP3    H272213   5.872   0.337  12.952  0.2503  0.0889  0.5669
16908TIP3   OH272214   1.402   5.624  12.705 -0.6935 -0.0092 -0.5195
16908TIP3    H172215   1.358   5.666  12.779 -0.1393  0.5712 -0.5094
16908TIP3    H272216   1.333   5.572  12.663 -0.4161 -2.7142  2.0550
16909TIP3   OH272217   4.857   0.159  12.830 -0.2728 -0.2892 -0.1069
16909TIP3    H172218   4.863   0.231  12.894 -0.1334 -0.7915  0.4557
16909TIP3    H272219   4.815   0.088  12.878 -1.7490 -0.1180 -1.0893
16910TIP3   OH272220   0.569   3.134   6.043  0.2594  0.4785 -0.0334
16910TIP3    H172221   0.512   3.092   5.979 -0.1325  0.0044  0.6136
16910TIP3    H272222   0.637   3.069   6.061  0.6202  0.7818 -0.3000
16911TIP3   OH272223   0.183   3.978   3.581  0.5408 -0.2668 -0.4575
16911TIP3    H172224   0.247   4.045   3.606  0.9152 -0.4738 -0.8345
16911TIP3    H272225   0.115   3.983   3.648 -0.8026  2.3124 -1.8814
16912TIP3   OH272226   6.811   2.880   0.687  0.3686  0.1273 -0.3756
16912TIP3    H172227   6.740   2.818   0.668 -0.4779  1.2481 -1.0424
16912TIP3    H272228   6.891   2.830   0.672 -0.2794 -1.0394 -0.0695
16913TIP3   OH272229   1.699   3.955  12.599  1.2369 -0.4736 -0.0872
16913TIP3    H172230   1.666   3.898  12.669  0.7672  0.5625  0.5586
16913TIP3    H272231   1.750   3.897  12.543 -2.8079 -2.5618 -2.0412
16914TIP3   OH272232   3.658   4.031   3.002 -0.1742 -0.7015 -0.0536
16914TIP3    H172233   3.722   3.960   3.003  0.6486 -0.0570 -1.9959
16914TIP3    H272234   3.703   4.104   3.043 -1.0040 -1.2336  1.9008
16915TIP3   OH272235   2.607   2.956   2.338 -0.1539 -0.0621  0.6131
16915TIP3    H172236   2.512   2.961   2.326 -0.0818  2.1107  0.4582
16915TIP3    H272237   2.618   2.922   2.426 -1.0863  0.0810  0.8037
16916TIP3   OH272238   5.477   0.439   5.930 -0.2224 -0.6820 -0.2895
16916TIP3    H172239   5.515   0.472   5.849  2.0398  0.7432  1.2401
16916TIP3    H272240   5.419   0.508   5.960 -0.1602 -0.6981 -0.1268
16917TIP3   OH272241   1.150   3.209  14.691  0.0740  0.2655  0.6760
16917TIP3    H172242   1.190   3.246  14.612 -0.9336 -1.0064 -0.4856
16917TIP3    H272243   1.155   3.279  14.756  2.6542  0.7358  0.1114
16918TIP3   OH272244   2.283   4.289  13.067  0.6185  0.2791 -0.3282
16918TIP3    H172245   2.237   4.357  13.018 -1.8148 -1.3478 -0.5034
16918TIP3    H272246   2.283   4.321  13.158  0.4151  0.9597 -0.5621
16919TIP3   OH272247   6.480   6.140  15.663 -0.3994 -0.1997 -0.9056
16919TIP3    H172248   6.410   6.077  15.650 -0.3767  0.1468 -2.9781
16919TIP3    H272249   6.511   6.161  15.575  1.3932  0.6877 -0.1185
16920TIP3   OH272250   5.353   2.816  11.957 -0.2265  0.1643  0.0919
16920TIP3    H172251   5.273   2.857  11.991  0.2441  1.8249 -0.6909
16920TIP3    H272252   5.348   2.829  11.862  0.2883 -1.0123 -0.1104
16921TIP3   OH272253   4.598   3.114  13.795 -0.0672  0.3130  0.1370
16921TIP3    H172254   4.641   3.050  13.852  1.4421  0.2460 -1.0249
16921TIP3    H272255   4.665   3.179  13.776 -0.3672  0.1110 -1.8841
16922TIP3   OH272256   0.410   3.680  15.101  0.1228  0.3645  0.1759
16922TIP3    H172257   0.344   3.673  15.170  0.2539  1.0260  0.3688
16922TIP3    H272258   0.491   3.700  15.147  0.3401  0.1561 -0.1163
16923TIP3   OH272259   2.233   6.232  10.254  0.1490  0.0483 -0.0508
16923TIP3    H172260   2.324   6.249  10.233  0.2170  0.0033  0.1968
16923TIP3    H272261   2.214   6.289  10.329  0.2804 -0.6970  0.5680
16924TIP3   OH272262   0.740   4.834  11.845  0.4595  0.3133  0.3617
16924TIP3    H172263   0.657   4.876  11.867  0.8763  0.7373  1.1636
16924TIP3    H272264   0.802   4.906  11.837  0.2198  0.2857 -2.9796
16925TIP3   OH272265   1.402   5.440   4.256 -0.5178  0.5376  0.1757
16925TIP3    H172266   1.469   5.489   4.304 -1.2946  2.0841 -0.2594
16925TIP3    H272267   1.336   5.420   4.322  0.3225 -0.9828  0.6036
16926TIP3   OH272268   4.296   0.700  11.488 -0.5751 -0.1575 -0.1248
16926TIP3    H172269   4.241   0.624  11.502  1.3112 -2.0025 -2.0103
16926TIP3    H272270   4.330   0.690  11.399  0.6106  2.3300 -0.0586
16927TIP3   OH272271   2.992   2.957   0.364 -0.2619 -1.3315 -1.6183
16927TIP3    H172272   2.936   3.033   0.355  0.9553  0.1717  1.7529
16927TIP3    H272273   2.937   2.892   0.407  0.1503 -0.2543  0.6688
16928TIP3   OH272274   4.459   6.307   2.363  0.0290  0.2055  0.1430
16928TIP3    H172275   4.477   6.224   2.318 -0.3789 -0.1471  0.6203
16928TIP3    H272276   4.534   6.362   2.341  0.0458 -0.1043 -0.6164
16929TIP3   OH272277   3.063   2.706   1.305 -0.4237  0.1701  0.0487
16929TIP3    H172278   3.155   2.682   1.301 -0.3942  0.3749 -0.4926
16929TIP3    H272279   3.016   2.623   1.298 -0.2997  0.1549 -0.6421
16930TIP3   OH272280   0.857   3.505   6.567  0.0949 -0.1670 -0.9288
16930TIP3    H172281   0.762   3.519   6.577 -0.3506 -1.7196 -2.4547
16930TIP3    H272282   0.897   3.578   6.614 -1.8684  0.8676 -0.7478
16931TIP3   OH272283   4.849   5.855  13.711  0.8202 -0.1446 -0.8072
16931TIP3    H172284   4.854   5.880  13.619 -0.0320 -0.4470 -0.9541
16931TIP3    H272285   4.873   5.762  13.712 -2.3367 -1.0907 -1.2563
16932TIP3   OH272286   5.499   2.532   1.078 -0.0401 -0.6541  0.1299
16932TIP3    H172287   5.579   2.569   1.040  0.0069  1.2328  1.9183
16932TIP3    H272288   5.515   2.437   1.079  2.5166 -0.2855  1.1050
16933TIP3   OH272289   2.351   6.603  13.444 -0.0514 -0.6653 -0.5134
16933TIP3    H172290   2.370   6.692  13.414 -0.4301 -0.1613  0.6768
16933TIP3    H272291   2.429   6.553  13.419  0.3067  0.0678 -0.9170
16934TIP3   OH272292   5.766   0.482  17.169 -0.2502  0.2447 -0.4671
16934TIP3    H172293   5.795   0.564  17.211 -0.5272 -0.0597  0.3396
16934TIP3    H272294   5.676   0.471  17.197  0.5193 -1.6385  1.5776
16935TIP3   OH272295   0.933   0.945  15.638  0.1809  0.1742  0.0757
16935TIP3    H172296   0.914   1.039  15.633  0.4360  0.5052  3.1676
16935TIP3    H272297   1.029   0.940  15.634  0.1733  0.0587  0.0458
16936TIP3   OH272298   4.570   4.987  12.640 -0.4264 -0.4481 -0.0344
16936TIP3    H172299   4.491   4.957  12.683 -0.7283  1.2862  0.7117
16936TIP3    H272300   4.543   5.007  12.550 -0.1147 -2.6975 -0.6889
16937TIP3   OH272301   0.128   4.997   5.943  0.4950 -0.6259 -0.3031
16937TIP3    H172302   0.182   5.043   6.008  2.1544 -2.3673 -0.3743
16937TIP3    H272303   0.085   4.927   5.991 -0.5760 -0.1633 -0.5506
16938TIP3   OH272304   0.663   1.454  13.294  0.3761 -0.5636  0.1283
16938TIP3    H172305   0.671   1.542  13.258  0.6120 -0.4129  0.5402
16938TIP3    H272306   0.643   1.398  13.219 -2.4386  0.2168  0.1816
16939TIP3   OH272307   4.232   2.575   0.145 -0.2898 -0.2888  0.4397
16939TIP3    H172308   4.148   2.556   0.103 -0.6162  0.3102  0.7938
16939TIP3    H272309   4.277   2.632   0.083  0.1458 -1.1622 -0.0517
16940TIP3   OH272310   1.561   0.698  17.128 -0.2099 -0.3195 -0.1653
16940TIP3    H172311   1.641   0.750  17.130 -0.9484  0.9203  2.6564
16940TIP3    H272312   1.491   0.763  17.129 -1.2040 -1.3596  0.5898
16941TIP3   OH272313   3.593   0.779   4.362  0.1923 -0.1412  0.3601
16941TIP3    H172314   3.544   0.705   4.397 -0.4529  0.6226  1.1309
16941TIP3    H272315   3.653   0.741   4.299 -0.6280 -1.2367  0.2098
16942TIP3   OH272316   5.975   5.272  15.247 -0.6446 -0.1148 -0.3016
16942TIP3    H172317   6.037   5.322  15.300 -0.0782  0.2036 -1.2408
16942TIP3    H272318   6.031   5.220  15.188 -1.2659  0.8464 -1.7813
16943TIP3   OH272319   2.567   2.775  14.413 -0.2785  0.3572  0.1378
16943TIP3    H172320   2.618   2.705  14.372  1.5793  1.7652 -0.0890
16943TIP3    H272321   2.488   2.732  14.445  0.7641 -1.8136 -0.0541
16944TIP3   OH272322   5.460   5.508   0.413 -0.7178  0.1469  0.0904
16944TIP3    H172323   5.549   5.475   0.401 -0.9370 -0.6652  0.6720
16944TIP3    H272324   5.472   5.596   0.449 -0.1345  0.6933 -1.3498
16945TIP3   OH272325   3.485   4.664   1.664 -0.0356 -0.4466 -0.3827
16945TIP3    H172326   3.506   4.723   1.737 -1.9175  0.5892 -0.6099
16945TIP3    H272327   3.440   4.720   1.601 -0.8120 -1.8948 -1.1499
16946TIP3   OH272328   5.802   4.689  15.222  0.1142 -0.1098  0.0834
16946TIP3    H172329   5.730   4.702  15.160 -1.0469 -1.6577  1.0371
16946TIP3    H272330   5.761   4.697  15.308  1.3184  0.0471  0.6596
16947TIP3   OH272331   1.404   5.231  12.624  0.9094  0.2766 -0.4404
16947TIP3    H172332   1.431   5.219  12.532  2.5045  1.4683 -0.1627
16947TIP3    H272333   1.356   5.314  12.624 -1.8084 -1.1676 -0.6761
16948TIP3   OH272334   0.839   0.339   0.930 -0.4510  0.0716 -0.1076
16948TIP3    H172335   0.879   0.306   0.850  3.6016 -0.1635  1.7674
16948TIP3    H272336   0.859   0.432   0.931 -1.6947  0.3543  0.0369
16949TIP3   OH272337   4.416   1.105  13.455 -0.0041 -0.8029  0.1282
16949TIP3    H172338   4.384   1.068  13.373 -0.1439  1.0419 -0.7098
16949TIP3    H272339   4.340   1.151  13.492  0.2314 -1.0614  0.9505
16950TIP3   OH272340   1.649   4.265   2.437  0.2583 -0.0925 -0.0803
16950TIP3    H172341   1.709   4.312   2.379 -2.7734  0.6727 -2.9163
16950TIP3    H272342   1.645   4.319   2.516  2.9531 -0.0331  0.0987
16951TIP3   OH272343   6.483   4.747   0.476 -0.0791 -0.0236  0.2883
16951TIP3    H172344   6.436   4.678   0.429 -0.6773  1.1757 -0.9535
16951TIP3    H272345   6.573   4.715   0.481 -0.3217 -0.8473 -0.3846
16952TIP3   OH272346   4.174   5.548   2.629  0.2117  0.2375  0.1027
16952TIP3    H172347   4.151   5.640   2.645 -0.3360  0.3962 -1.4396
16952TIP3    H272348   4.109   5.518   2.566  0.7328 -1.0562  0.1575
16953TIP3   OH272349   5.392   2.782  15.639  0.0372  0.2196  0.1137
16953TIP3    H172350   5.399   2.840  15.563  0.9824 -0.8908 -0.6801
16953TIP3    H272351   5.365   2.840  15.711  2.3934  1.9645 -0.2822
16954TIP3   OH272352   4.250   2.453   0.983  0.0187  0.2559 -0.2817
16954TIP3    H172353   4.314   2.519   1.009  0.9916 -1.2601  1.3717
16954TIP3    H272354   4.217   2.417   1.065 -1.4253 -0.4543 -1.1328
16955TIP3   OH272355   5.463   2.169   1.099  0.0140  0.2405 -0.3054
16955TIP3    H172356   5.515   2.092   1.074  1.0808  0.7356  0.3396
16955TIP3    H272357   5.396   2.175   1.031 -1.3096 -2.3828  0.6319
16956TIP3   OH272358   6.795   1.520  13.622  0.1363 -0.0288  0.5568
16956TIP3    H172359   6.830   1.572  13.550 -0.4306  0.6145  0.7325
16956TIP3    H272360   6.738   1.456  13.580  1.7905 -1.3420  0.2386
16957TIP3   OH272361   0.471   2.284   1.295  0.1174  0.3675  0.1614
16957TIP3    H172362   0.393   2.339   1.285 -0.1867 -0.2887 -1.4768
16957TIP3    H272363   0.437   2.197   1.311  0.5124  0.1487 -0.1645
16958TIP3   OH272364   1.032   1.087  14.668 -0.0907  0.1154  0.1119
16958TIP3    H172365   1.005   1.179  14.667 -0.7457 -0.0638 -1.1895
16958TIP3    H272366   0.956   1.040  14.633  0.8379 -0.7464 -0.7800
16959TIP3   OH272367   5.106   3.367   2.744 -0.8324 -0.0503 -0.1086
16959TIP3    H172368   5.084   3.286   2.699 -1.2582  0.1197 -0.2188
16959TIP3    H272369   5.156   3.340   2.821 -1.7186 -0.4918  0.3313
16960TIP3   OH272370   2.741   0.386  12.727  0.2205 -0.2842 -0.4524
16960TIP3    H172371   2.759   0.466  12.776 -0.3059 -0.2708 -0.2732
16960TIP3    H272372   2.792   0.394  12.647 -1.3226  1.1553 -1.3654
16961TIP3   OH272373   3.479   0.014  12.744  0.1576  0.6279 -0.0782
16961TIP3    H172374   3.544   0.066  12.791  0.4103 -0.9148  1.3883
16961TIP3    H272375   3.431  -0.033  12.813 -0.3805 -0.6828 -1.2819
16962TIP3   OH272376   3.468   6.281  11.345  0.0450 -0.5608 -0.0105
16962TIP3    H172377   3.394   6.269  11.285 -1.9080  2.0018  1.7167
16962TIP3    H272378   3.485   6.375  11.345  1.8284 -0.8245  1.3984
16963TIP3   OH272379   3.900   4.266   2.754  0.2781  0.1829  0.2813
16963TIP3    H172380   3.930   4.356   2.743 -1.4759  0.6867 -0.8530
16963TIP3    H272381   3.808   4.275   2.779 -0.0543 -1.2976 -0.3409
16964TIP3   OH272382   0.698   2.768  15.521  0.1997  0.1957  0.4119
16964TIP3    H172383   0.792   2.749  15.531 -0.4322 -3.1106  1.3209
16964TIP3    H272384   0.663   2.760  15.610 -1.0382  0.8324  0.0030
16965TIP3   OH272385   4.804   4.003   0.526  0.6189 -0.1987  0.0730
16965TIP3    H172386   4.753   3.937   0.572  0.0449  0.1219 -0.0918
16965TIP3    H272387   4.764   4.008   0.439 -0.5189  1.6406  0.6558
16966TIP3   OH272388   6.687   2.707  13.097 -0.4103  0.4827  0.3936
16966TIP3    H172389   6.690   2.701  13.192  0.6098 -1.0142  0.3104
16966TIP3    H272390   6.610   2.657  13.071 -1.0441  1.4108  0.4420
16967TIP3   OH272391   6.628   0.500   4.650  0.1764 -0.0992  0.2220
16967TIP3    H172392   6.550   0.446   4.635 -0.4397  0.2328  1.9850
16967TIP3    H272393   6.685   0.480   4.576 -1.2825 -0.8840 -0.7561
16968TIP3   OH272394   1.542   1.818  11.157  0.1118  0.0060  0.0591
16968TIP3    H172395   1.623   1.862  11.183  1.1877 -1.6659 -0.2673
16968TIP3    H272396   1.474   1.885  11.165  1.7943  2.0276 -1.5009
16969TIP3   OH272397   6.302   6.151   1.873 -0.1967  0.2644  0.2441
16969TIP3    H172398   6.244   6.082   1.905  0.8899 -1.4013 -1.1648
16969TIP3    H272399   6.244   6.212   1.828 -1.3208  0.9315  2.4158
16970TIP3   OH272400   5.626   0.243  16.105  0.2551 -0.2174 -0.1384
16970TIP3    H172401   5.652   0.273  16.018 -1.1273 -0.7827 -0.7597
16970TIP3    H272402   5.601   0.323  16.151 -0.9249 -0.1012 -0.9346
16971TIP3   OH272403   0.810   0.146  14.130  0.4308  0.1451  0.4957
16971TIP3    H172404   0.851   0.233  14.134  1.4590 -0.1340 -2.1568
16971TIP3    H272405   0.717   0.164  14.111  0.2526  0.6656  1.7570
16972TIP3   OH272406   4.550   2.838  16.532 -0.0603  0.4625  0.3829
16972TIP3    H172407   4.553   2.752  16.575  1.9627 -0.4477 -1.4120
16972TIP3    H272408   4.614   2.891  16.581 -0.1612  0.4620  0.5170
16973TIP3   OH272409   1.964   3.185  14.428  0.4822 -0.0922  0.3457
16973TIP3    H172410   2.017   3.137  14.365  0.5367 -0.0225  0.3395
16973TIP3    H272411   2.013   3.179  14.510  0.2701 -0.4339  0.4539
16974TIP3   OH272412   0.907   1.891   4.602 -0.1784 -0.0495 -0.4040
16974TIP3    H172413   0.887   1.939   4.682 -2.1843 -0.0638 -0.8311
16974TIP3    H272414   0.964   1.820   4.631  2.0948  1.9473  0.3880
16975TIP3   OH272415   4.048   4.931  14.288  0.2281 -0.1043  0.4263
16975TIP3    H172416   3.996   4.858  14.320 -4.0564  3.1680  1.9674
16975TIP3    H272417   4.088   4.968  14.367  0.7408  0.2928 -0.0127
16976TIP3   OH272418   1.173   1.436  12.682 -0.4049  0.0597  0.1455
16976TIP3    H172419   1.222   1.383  12.619 -0.6936  0.5753 -0.5299
16976TIP3    H272420   1.115   1.374  12.725 -0.6401 -0.2038 -0.5390
16977TIP3   OH272421   4.812   2.180   4.735 -0.1587 -0.5869  0.1155
16977TIP3    H172422   4.793   2.220   4.820  1.0857  0.4337 -0.0574
16977TIP3    H272423   4.868   2.244   4.690 -0.1611 -1.4473 -1.1700
16978TIP3   OH272424   1.963   3.981  15.686 -0.2578 -0.0857  0.0301
16978TIP3    H172425   1.996   3.914  15.626 -0.5382  0.8922 -1.2505
16978TIP3    H272426   1.868   3.967  15.688 -0.1032 -1.1854  1.6115
16979TIP3   OH272427   0.744   1.788   0.422  0.1060 -0.3803 -0.3870
16979TIP3    H172428   0.665   1.840   0.409 -0.1289 -0.6823 -0.1902
16979TIP3    H272429   0.788   1.789   0.337  0.7740  1.2119 -0.0480
16980TIP3   OH272430   2.903   4.196   0.138 -0.8940  0.0476 -0.6425
16980TIP3    H172431   2.990   4.172   0.171 -0.6430 -0.2487 -1.4879
16980TIP3    H272432   2.920   4.268   0.078 -0.9281 -1.4963 -2.5901
16981TIP3   OH272433   5.864   5.295   1.238  0.0832 -0.1077 -0.1416
16981TIP3    H172434   5.910   5.372   1.203 -1.2570  0.9765  0.4065
16981TIP3    H272435   5.854   5.237   1.163  1.2144  0.1899 -0.5426
16982TIP3   OH272436   6.339   1.399  14.833  0.4802 -0.2241  0.1488
16982TIP3    H172437   6.317   1.366  14.920  0.3134  1.0907  0.6207
16982TIP3    H272438   6.254   1.412  14.790  0.3340  2.4619  1.0784
16983TIP3   OH272439   6.245   0.806  14.534 -0.1261  0.2104  0.5525
16983TIP3    H172440   6.235   0.759  14.618  0.6412 -0.4934  0.2595
16983TIP3    H272441   6.155   0.816  14.503 -0.5961  2.0485  2.2730
16984TIP3   OH272442   0.070   2.281   2.681  0.2287 -0.4892  0.8574
16984TIP3    H172443   0.056   2.264   2.774  0.0351  0.3802  0.9957
16984TIP3    H272444   0.145   2.339   2.677 -0.3344  0.2433  0.5454
16985TIP3   OH272445   5.377   5.539  15.826  0.1069  1.1244  0.5230
16985TIP3    H172446   5.464   5.508  15.849 -0.5066 -2.4122 -1.1290
16985TIP3    H272447   5.343   5.577  15.907  2.3716  0.5863  1.8201
16986TIP3   OH272448   3.410   5.117  11.468  0.7512  0.7823  0.0391
16986TIP3    H172449   3.479   5.165  11.422  2.4921 -1.1014  0.5573
16986TIP3    H272450   3.436   5.121  11.560  0.2181 -0.0173  0.2351
16987TIP3   OH272451   2.436   3.806   1.184  0.1213  0.1129  0.5497
16987TIP3    H172452   2.459   3.897   1.199  1.2678  0.0004 -0.3849
16987TIP3    H272453   2.365   3.809   1.120  0.6137  0.3411  0.0049
16988TIP3   OH272454   5.605   1.328  13.678  0.8640 -0.3072 -0.3792
16988TIP3    H172455   5.597   1.423  13.670 -1.2438 -0.4044 -0.0676
16988TIP3    H272456   5.591   1.295  13.589  0.5339 -0.3668 -0.3063
16989TIP3   OH272457   5.678   3.806  16.013  0.2575 -0.2975 -0.0305
16989TIP3    H172458   5.717   3.883  15.972 -0.5805 -0.9912 -2.2718
16989TIP3    H272459   5.669   3.743  15.942 -1.9484 -1.3269  1.0681
16990TIP3   OH272460   2.721   1.133   0.686  0.4058 -0.1079  0.0858
16990TIP3    H172461   2.693   1.188   0.759  1.2067 -0.8698  0.9966
16990TIP3    H272462   2.693   1.181   0.608  1.5483  1.8890  0.8178
16991TIP3   OH272463   3.746   4.509  11.535  0.5737  0.0870 -0.5029
16991TIP3    H172464   3.814   4.562  11.493 -0.4365  1.6621 -0.2062
16991TIP3    H272465   3.771   4.419  11.514  2.2108  0.6575 -1.2188
16992TIP3   OH272466   1.369   5.299   2.077 -0.0392  0.2497  0.0821
16992TIP3    H172467   1.336   5.355   2.007 -0.9238 -0.7658 -0.3588
16992TIP3    H272468   1.320   5.217   2.066  0.6673 -0.3382  1.1617
16993TIP3   OH272469   6.636   5.856   6.026 -0.0038  0.0788  0.2792
16993TIP3    H172470   6.585   5.805   5.963 -0.6961 -1.9407  2.3275
16993TIP3    H272471   6.719   5.810   6.034  0.4899  0.9132  0.1211
16994TIP3   OH272472   4.911   1.626   1.210 -0.3627 -0.0293 -0.6297
16994TIP3    H172473   4.956   1.681   1.146  1.5091 -0.3705  0.3322
16994TIP3    H272474   4.837   1.680   1.240  1.0106  1.7160 -0.2238
16995TIP3   OH272475   0.149   3.763   2.909 -0.1312  0.1239  0.3753
16995TIP3    H172476   0.083   3.825   2.878 -0.4473  0.0357  0.8537
16995TIP3    H272477   0.221   3.771   2.846  0.2315  1.6446  0.9355
16996TIP3   OH272478   3.375   6.569  14.006 -0.3924 -0.1735 -0.8548
16996TIP3    H172479   3.290   6.528  14.020 -1.3343  0.8178 -3.1932
16996TIP3    H272480   3.367   6.657  14.043  0.9708 -1.2140  2.3295
16997TIP3   OH272481   5.124   1.867  17.044 -0.1243  0.2996 -0.6269
16997TIP3    H172482   5.049   1.921  17.017 -1.1206  0.0409  1.3837
16997TIP3    H272483   5.085   1.793  17.090  1.3427 -0.6026 -0.7740
16998TIP3   OH272484   3.448   3.650   2.435  0.2598 -0.2260  0.1547
16998TIP3    H172485   3.518   3.586   2.452  0.8998  0.4453  0.0607
16998TIP3    H272486   3.383   3.631   2.502  1.3805  0.3703  1.4662
16999TIP3   OH272487   6.493   3.514  11.595  0.6891 -0.1865 -0.5247
16999TIP3    H172488   6.518   3.588  11.650  1.0768 -0.6104 -0.1260
16999TIP3    H272489   6.550   3.520  11.518 -0.7977  1.2256 -1.5885
17000TIP3   OH272490   1.889   1.502   3.810 -0.4138  0.2288 -0.2227
17000TIP3    H172491   1.898   1.457   3.726 -1.1171  0.8909 -0.6603
17000TIP3    H272492   1.976   1.497   3.849 -0.5684 -1.9766 -0.0113
17001TIP3   OH272493   4.525   6.712  11.059 -0.6190  0.3155  0.3496
17001TIP3    H172494   4.462   6.783  11.071 -2.0615 -0.8664  0.0398
17001TIP3    H272495   4.601   6.739  11.112 -1.8283  1.2230  1.7122
17002TIP3   OH272496   2.455   1.304   1.235  0.3773  0.0284 -0.3314
17002TIP3    H172497   2.363   1.280   1.248  0.7872 -1.6744 -0.3210
17002TIP3    H272498   2.452   1.391   1.195 -1.1415  1.2093  2.1342
17003TIP3   OH272499   1.010   5.987  11.382 -0.0019 -0.3747  0.1343
17003TIP3    H172500   0.916   5.998  11.368  0.2945 -0.0731 -1.9022
17003TIP3    H272501   1.028   5.896  11.359  0.1741 -0.5464  0.9015
17004TIP3   OH272502   4.419   0.289   1.558  0.5071  0.1254  0.4777
17004TIP3    H172503   4.443   0.274   1.650 -3.3223  1.5860  1.9823
17004TIP3    H272504   4.388   0.204   1.527 -0.9987  0.1882  1.6644
17005TIP3   OH272505   1.483   1.426  17.039  0.2542 -0.1263  0.4714
17005TIP3    H172506   1.530   1.366  16.982  0.0454 -1.1564  1.3560
17005TIP3    H272507   1.400   1.442  16.994 -0.1179 -1.3303  0.7189
17006TIP3   OH272508   1.412   3.053  15.500 -0.0168 -0.2990 -0.0620
17006TIP3    H172509   1.403   3.024  15.591 -1.2937  0.7546  0.1779
17006TIP3    H272510   1.359   3.133  15.495 -0.3131 -0.5699 -1.8460
17007TIP3   OH272511   3.324   6.464   3.515 -0.1274 -0.6243 -0.1918
17007TIP3    H172512   3.357   6.513   3.439  0.9992 -1.1348 -0.0492
17007TIP3    H272513   3.252   6.518   3.548 -1.2335 -0.8166 -2.1235
17008TIP3   OH272514   2.326   6.298  16.228 -0.5696 -0.5206  0.1867
17008TIP3    H172515   2.256   6.244  16.192  1.0181 -3.0249  0.6012
17008TIP3    H272516   2.315   6.292  16.323 -0.1896 -0.4114  0.2431
17009TIP3   OH272517   1.173   4.610  14.113  0.3955 -0.0135  0.3818
17009TIP3    H172518   1.080   4.606  14.088  0.6227 -0.6788 -0.4087
17009TIP3    H272519   1.208   4.681  14.059  0.8670 -1.3931 -1.2301
17010TIP3   OH272520   5.665   3.482   2.975  0.0907  0.4398  0.3409
17010TIP3    H172521   5.674   3.503   3.068  0.5894  1.3144  0.1052
17010TIP3    H272522   5.572   3.496   2.956 -0.2079 -0.6734  0.9154
17011TIP3   OH272523   0.295   1.278   3.355 -0.6144  0.3096 -0.2876
17011TIP3    H172524   0.292   1.266   3.260 -1.7453 -1.2555 -0.1006
17011TIP3    H272525   0.205   1.302   3.378 -0.9093 -1.4391  0.5838
17012TIP3   OH272526   2.437   0.406   0.379 -0.0455  0.0962  0.8110
17012TIP3    H172527   2.343   0.386   0.382 -0.2460  0.6616 -1.0275
17012TIP3    H272528   2.444   0.485   0.326  1.6641 -1.3538 -1.2871
17013TIP3   OH272529   5.985   6.301   4.608 -0.0394 -0.0796  0.2390
17013TIP3    H172530   5.942   6.241   4.669 -1.0925 -0.4165 -0.7996
17013TIP3    H272531   6.010   6.247   4.534  1.0828  0.3597  0.2726
17014TIP3   OH272532   2.011   4.176   2.943  0.3089  0.3772 -0.1898
17014TIP3    H172533   1.962   4.106   2.900 -0.4964  0.6372  0.2831
17014TIP3    H272534   1.986   4.170   3.035  0.1294  1.3712 -0.1619
17015TIP3   OH272535   3.656   3.239  13.377 -0.1594  0.5743 -0.1369
17015TIP3    H172536   3.715   3.179  13.331 -1.6471  0.5565 -2.1567
17015TIP3    H272537   3.681   3.326  13.346  0.3931  0.7962  0.9031
17016TIP3   OH272538   4.282   3.275   5.898 -0.1512 -0.0243 -0.0087
17016TIP3    H172539   4.231   3.336   5.952 -3.1634 -0.6127 -1.9458
17016TIP3    H272540   4.300   3.324   5.818 -1.4082 -1.1796 -1.0283
17017TIP3   OH272541   0.607   5.097  13.450 -0.1149  0.4197  0.2518
17017TIP3    H172542   0.513   5.082  13.439 -0.1552 -0.1914  1.2822
17017TIP3    H272543   0.634   5.144  13.371 -1.1400 -0.0426 -0.3800
17018TIP3   OH272544   4.477   4.014   4.271  0.1205  0.3096  0.3309
17018TIP3    H172545   4.398   4.017   4.324 -0.5860 -0.9162 -0.5974
17018TIP3    H272546   4.501   3.921   4.268  0.6173  0.4455 -0.7885
17019TIP3   OH272547   4.388   4.679  13.488  0.8884 -0.0901  0.8271
17019TIP3    H172548   4.375   4.596  13.534  0.3831  0.8666  2.4759
17019TIP3    H272549   4.432   4.735  13.552  0.0907  1.3261  0.1717
17020TIP3   OH272550   6.782   3.001  16.084 -0.1466 -0.1156 -0.1267
17020TIP3    H172551   6.736   3.079  16.055  2.4079  1.3086 -0.6195
17020TIP3    H272552   6.754   2.932  16.023 -0.1800  1.1566 -1.5908
17021TIP3   OH272553   3.243   2.695  15.888  0.2007  0.2761  0.2695
17021TIP3    H172554   3.282   2.645  15.960 -0.2624  1.2088  1.1782
17021TIP3    H272555   3.244   2.634  15.814  1.3627 -0.4485  0.8560
17022TIP3   OH272556   6.668   5.470  11.312 -0.4690 -0.0825 -0.4159
17022TIP3    H172557   6.682   5.384  11.273  3.1825  0.2037 -0.0893
17022TIP3    H272558   6.712   5.531  11.253 -2.5070  1.5567 -0.3494
17023TIP3   OH272559   4.745   5.520  11.159 -0.0887 -0.6768  0.0364
17023TIP3    H172560   4.679   5.572  11.113 -1.7933 -1.6313  1.2598
17023TIP3    H272561   4.734   5.432  11.125  0.3411 -0.9059  0.4763
17024TIP3   OH272562   0.038   0.267   2.851 -0.0825  0.0795  0.5577
17024TIP3    H172563   0.113   0.236   2.902  0.2425 -1.4783 -0.7633
17024TIP3    H272564  -0.038   0.229   2.895 -0.1403  1.5085  1.7901
17025TIP3   OH272565   1.608   1.081  16.303  0.3834  0.2625  0.5433
17025TIP3    H172566   1.699   1.051  16.299  0.4798  0.3253  1.7298
17025TIP3    H272567   1.569   1.028  16.373 -0.5405  0.1230 -0.0647
17026TIP3   OH272568   3.118   0.474   1.347  0.6456  0.4625  0.5163
17026TIP3    H172569   3.116   0.564   1.314 -0.5514 -0.4746 -2.2710
17026TIP3    H272570   3.025   0.449   1.353  0.9705 -0.6566  1.0446
17027TIP3   OH272571   1.229   4.947  16.048  0.5032  0.3157 -0.1937
17027TIP3    H172572   1.260   4.911  16.132  0.5020 -1.3563 -0.8814
17027TIP3    H272573   1.306   4.946  15.992 -0.0410 -0.9312 -0.9578
17028TIP3   OH272574   3.600   4.679  16.504 -0.3361  0.4305  0.4645
17028TIP3    H172575   3.556   4.647  16.426 -1.4269 -1.6808  1.8766
17028TIP3    H272576   3.575   4.772  16.509 -3.2751 -0.2739  0.2815
17029TIP3   OH272577   6.478   5.792   3.642  0.1138 -0.2927 -0.0064
17029TIP3    H172578   6.465   5.759   3.554 -0.3300 -1.5946  0.5190
17029TIP3    H272579   6.438   5.879   3.642 -3.0090 -1.6060 -0.2136
17030TIP3   OH272580   4.007   3.899  16.951  0.1092  0.0660 -0.1237
17030TIP3    H172581   3.958   3.819  16.933  0.2275 -0.0198 -0.0739
17030TIP3    H272582   4.002   3.949  16.870  1.3036 -0.6696 -0.6887
17031TIP3   OH272583   0.468   2.159  16.419 -0.2896 -0.0060 -0.1266
17031TIP3    H172584   0.426   2.231  16.372 -1.5696 -0.3216  0.4946
17031TIP3    H272585   0.399   2.124  16.476  0.6792 -0.8800  0.5431
17032TIP3   OH272586   5.514   5.578  12.162  0.0768  0.3309 -0.4286
17032TIP3    H172587   5.460   5.531  12.099  1.2482 -0.0266 -1.2033
17032TIP3    H272588   5.459   5.652  12.190 -1.7088 -1.3093  0.6514
17033TIP3   OH272589   0.091   4.401  15.623  0.2565  0.4704 -0.5384
17033TIP3    H172590   0.076   4.320  15.672 -0.3021  1.0189  0.2198
17033TIP3    H272591   0.181   4.394  15.591  0.0993 -0.5991 -0.7794
17034TIP3   OH272592   1.721   3.562   0.054  0.8598  0.5591 -0.1382
17034TIP3    H172593   1.662   3.517  -0.007  1.6222 -0.2192 -0.3266
17034TIP3    H272594   1.767   3.491   0.098 -1.2651  0.9652  3.0592
17035TIP3   OH272595   1.475   1.633  14.079  0.2470  0.4799 -0.6207
17035TIP3    H172596   1.442   1.559  14.130 -0.9753  0.1866 -1.7894
17035TIP3    H272597   1.560   1.603  14.046  1.0824  0.6970  1.2446
17036TIP3   OH272598   2.620   1.226  11.429  0.2446  0.0302  0.5194
17036TIP3    H172599   2.600   1.206  11.521  0.5550 -3.1209  0.0134
17036TIP3    H272600   2.535   1.226  11.386  0.2222  0.0289  0.5632
17037TIP3   OH272601   2.177   4.725   4.842 -0.2121  0.6116 -0.4611
17037TIP3    H172602   2.208   4.784   4.773 -0.4766  1.8525  0.4397
17037TIP3    H272603   2.158   4.783   4.916  0.1051 -0.6766  0.6756
17038TIP3   OH272604   3.268   2.520   4.123  0.3483  0.0823 -0.5873
17038TIP3    H172605   3.310   2.453   4.177  1.2403  0.6378 -0.5750
17038TIP3    H272606   3.332   2.591   4.118 -0.0023  0.3355 -1.7929
17039TIP3   OH272607   6.347   0.299  10.650  0.1857  0.1386 -0.0953
17039TIP3    H172608   6.401   0.232  10.690  0.1694  0.9589  1.3827
17039TIP3    H272609   6.276   0.251  10.607  1.1190 -0.8553 -0.5519
17040TIP3   OH272610   5.965   4.679  16.229 -0.4286 -0.0835 -0.4156
17040TIP3    H172611   5.889   4.622  16.225  0.9141 -1.9320 -1.1427
17040TIP3    H272612   6.019   4.652  16.154  1.1327  0.8477  0.3175
17041TIP3   OH272613   6.255   0.846  12.087  0.0446  0.2573  0.2742
17041TIP3    H172614   6.175   0.874  12.132  0.6209 -1.3933  2.5195
17041TIP3    H272615   6.326   0.893  12.131  0.5064  0.0044 -0.1831
17042TIP3   OH272616   1.195   3.604   5.855 -0.2242  0.2018  0.2670
17042TIP3    H172617   1.147   3.632   5.778  0.7241  1.5057  0.1172
17042TIP3    H272618   1.173   3.669   5.922 -1.0025 -0.8823  1.1214
17043TIP3   OH272619   1.272   0.582   5.599  0.2718 -0.2927 -0.2020
17043TIP3    H172620   1.206   0.549   5.538 -0.1236  0.2642 -0.0851
17043TIP3    H272621   1.339   0.620   5.543  0.8301 -1.4583 -0.3433
17044TIP3   OH272622   4.870   3.212   1.535 -0.6785 -0.2764  0.2008
17044TIP3    H172623   4.868   3.119   1.561 -0.7051 -0.4739 -0.4872
17044TIP3    H272624   4.962   3.230   1.518 -0.3442  0.4517  2.4774
17045TIP3   OH272625   4.913   3.259   1.215  0.1546  0.3409 -0.2506
17045TIP3    H172626   4.925   3.250   1.121 -0.6199 -0.2479 -0.3010
17045TIP3    H272627   4.992   3.221   1.253  0.7568  1.1310 -0.6565
17046TIP3   OH272628   5.910   3.348   5.812  0.3183 -0.0313  0.1792
17046TIP3    H172629   6.002   3.322   5.808  0.2104 -0.2574 -2.0607
17046TIP3    H272630   5.908   3.437   5.779 -0.0542  0.7955  2.2766
17047TIP3   OH272631   3.128   2.894  13.213  0.4620 -0.3789  0.4274
17047TIP3    H172632   3.100   2.915  13.302  0.1069  1.2019 -0.0231
17047TIP3    H272633   3.051   2.910  13.159  0.2954 -2.5070 -0.0582
17048TIP3   OH272634   3.259   4.542   4.840 -0.3182 -0.0538  0.3573
17048TIP3    H172635   3.324   4.476   4.865 -1.7785 -1.5746  0.3636
17048TIP3    H272636   3.231   4.581   4.923 -0.3500 -0.3509  0.4890
17049TIP3   OH272637   4.144   5.800  13.067  0.5242 -0.6664  0.5361
17049TIP3    H172638   4.079   5.746  13.111 -0.1457 -1.1140 -0.9379
17049TIP3    H272639   4.094   5.873  13.030  0.7366 -1.2498 -0.9969
17050TIP3   OH272640   2.729   4.270   3.354  0.4662  0.0178 -0.1061
17050TIP3    H172641   2.672   4.203   3.392 -0.9770  1.0217 -0.4337
17050TIP3    H272642   2.677   4.309   3.283  1.9217  0.3214 -1.0613
17051TIP3   OH272643   1.601   5.493  14.174 -0.0889  0.1050  0.3799
17051TIP3    H172644   1.595   5.437  14.096 -0.4426 -0.6676  0.9492
17051TIP3    H272645   1.530   5.557  14.162 -1.5018 -1.2866  1.0425
17052TIP3   OH272646   6.188   5.278   4.828 -0.1496 -0.6211  0.1191
17052TIP3    H172647   6.100   5.248   4.854 -0.3641 -1.1493 -1.1763
17052TIP3    H272648   6.196   5.252   4.737  0.3939  1.6396 -0.5273
17053TIP3   OH272649   1.029   5.306   2.197  0.4309 -0.3041  0.0503
17053TIP3    H172650   1.096   5.375   2.201  1.1557 -1.0528  2.0568
17053TIP3    H272651   1.032   5.275   2.107  2.0895  0.3758 -0.1628
17054TIP3   OH272652   5.570   3.244  15.504  0.0051  0.5400  0.5229
17054TIP3    H172653   5.626   3.167  15.512 -1.2472 -0.4584 -0.0015
17054TIP3    H272654   5.548   3.266  15.594  1.0311  0.8113  0.7265
17055TIP3   OH272655   1.691   5.369   5.870  0.1600 -0.2253 -0.1922
17055TIP3    H172656   1.648   5.287   5.898 -0.2122 -0.8900 -2.5175
17055TIP3    H272657   1.783   5.345   5.860 -0.1418 -0.7775 -2.0952
17056TIP3   OH272658   5.407   2.119   4.491  0.6469 -0.4097 -0.1195
17056TIP3    H172659   5.321   2.138   4.452  0.6884  2.0478  0.7770
17056TIP3    H272660   5.387   2.061   4.564 -0.1696 -0.3498 -0.2765
17057TIP3   OH272661   5.567   0.231  15.097 -1.3187 -0.0607 -0.4901
17057TIP3    H172662   5.598   0.218  15.187 -0.7926  0.8683 -0.5174
17057TIP3    H272663   5.472   0.228  15.104 -1.4145  2.5080  0.5766
17058TIP3   OH272664   4.738   6.433   1.304 -0.2381  0.2113 -0.2273
17058TIP3    H172665   4.746   6.466   1.393  0.7987 -0.4337 -0.0561
17058TIP3    H272666   4.744   6.338   1.313 -2.5715 -0.0492 -0.7619
17059TIP3   OH272667   3.648   6.778  12.524 -0.0335  0.2401  0.4012
17059TIP3    H172668   3.701   6.845  12.480  0.4630 -0.5854 -0.3121
17059TIP3    H272669   3.592   6.827  12.584 -1.5809  1.5762 -1.9786
17060TIP3   OH272670   2.423   6.201  13.985 -0.4866  0.3379 -0.5359
17060TIP3    H172671   2.393   6.206  14.076 -0.9392  1.6860 -0.7480
17060TIP3    H272672   2.506   6.248  13.985  0.0443 -0.5813 -0.6180
17061TIP3   OH272673   1.839   2.562  11.526 -0.0802 -0.0500  0.3360
17061TIP3    H172674   1.770   2.594  11.468  0.9037  1.1196 -0.2362
17061TIP3    H272675   1.914   2.549  11.469  0.1408 -1.4935  0.9243
17062TIP3   OH272676   1.031   1.141  16.959  0.1732 -0.2918  0.2489
17062TIP3    H172677   1.020   1.100  17.045 -0.1515  0.8518  0.7653
17062TIP3    H272678   1.050   1.233  16.978  2.1162 -0.4108 -0.8547
17063TIP3   OH272679   4.533   3.013   3.954 -0.4976 -0.0939 -0.3813
17063TIP3    H172680   4.607   2.953   3.940  0.2150  0.4005  1.0839
17063TIP3    H272681   4.460   2.972   3.908  0.0914 -1.8425  0.1817
17064TIP3   OH272682   1.886   0.733  13.650 -0.0304  0.1470 -0.1061
17064TIP3    H172683   1.915   0.714  13.739 -0.6577 -1.8939 -0.2762
17064TIP3    H272684   1.954   0.695  13.594  0.5744  1.7838 -0.5297
17065TIP3   OH272685   5.105   3.548  11.867  0.5165  0.0742 -0.2433
17065TIP3    H172686   5.016   3.560  11.835  1.2331  1.6127 -1.8799
17065TIP3    H272687   5.160   3.592  11.801  2.5796 -1.8155  0.0796
17066TIP3   OH272688   4.083   2.045   0.451  0.0159  0.7310 -0.3050
17066TIP3    H172689   4.095   2.131   0.412  1.9890  0.8666  0.4906
17066TIP3    H272690   4.138   2.046   0.530 -0.1689 -1.1452 -0.0921
17067TIP3   OH272691   5.842   5.347   2.726 -0.0884  0.5236  0.6547
17067TIP3    H172692   5.825   5.346   2.632  0.7518  0.2734  0.4881
17067TIP3    H272693   5.756   5.353   2.767 -0.4991  0.0501 -0.1210
17068TIP3   OH272694   6.281   3.194   1.892  0.6095 -0.5493 -0.2058
17068TIP3    H172695   6.339   3.163   1.961 -0.1173 -1.1909  0.1176
17068TIP3    H272696   6.238   3.116   1.859  0.6144 -0.1926 -1.0874
17069TIP3   OH272697   5.263   5.426  14.834 -0.0108  0.1296  0.8039
17069TIP3    H172698   5.191   5.425  14.772 -0.8746  1.9782  1.6875
17069TIP3    H272699   5.297   5.337  14.833 -1.5197 -0.4786 -0.5417
17070TIP3   OH272700   5.944   0.326  14.209 -0.4994  0.1875 -0.3942
17070TIP3    H172701   5.978   0.326  14.120  0.3435 -1.3500 -0.1027
17070TIP3    H272702   5.871   0.388  14.206  1.9448  3.3121 -1.1463
17071TIP3   OH272703   1.725   5.310   3.252  0.0567  0.5303 -1.1114
17071TIP3    H172704   1.631   5.298   3.244  0.0769  0.4958 -1.3039
17071TIP3    H272705   1.736   5.403   3.268 -0.0258  0.4929 -0.8368
17072TIP3   OH272706   5.351   2.589  11.517 -0.6354 -0.2801 -0.7593
17072TIP3    H172707   5.332   2.497  11.497  1.2942 -1.9690  3.7646
17072TIP3    H272708   5.444   2.599  11.496 -0.1316 -0.3088  1.2366
17073TIP3   OH272709   4.095   5.586   1.552  0.2707 -0.1822  0.3970
17073TIP3    H172710   4.033   5.657   1.566  1.5269  0.7873  1.3134
17073TIP3    H272711   4.135   5.606   1.467 -0.1959 -0.4368  0.1172
17074TIP3   OH272712   1.904   5.734  16.235  0.3194  0.3309 -0.2232
17074TIP3    H172713   1.943   5.761  16.152  0.8924  0.7303  0.1626
17074TIP3    H272714   1.974   5.686  16.279 -0.2595 -0.6263 -0.3294
17075TIP3   OH272715   5.070   2.959  15.319  0.1510  0.1301  0.2638
17075TIP3    H172716   5.018   2.907  15.258  0.3067  0.7420 -0.4014
17075TIP3    H272717   5.018   3.038  15.334 -0.0829 -0.2020  1.2655
17076TIP3   OH272718   3.564   2.136  16.041 -0.0952 -0.1160 -0.2791
17076TIP3    H172719   3.559   2.061  15.981 -1.4853  1.1319 -1.8199
17076TIP3    H272720   3.658   2.156  16.044  0.1722 -1.1653 -0.8056
17077TIP3   OH272721   4.478   0.300   2.076  0.5737 -0.4836 -0.1129
17077TIP3    H172722   4.383   0.301   2.072  0.6009 -0.5122 -0.9156
17077TIP3    H272723   4.500   0.214   2.113  0.2969 -0.4583  0.1147
17078TIP3   OH272724   4.028   3.606  14.415 -0.0383 -0.2146 -0.2465
17078TIP3    H172725   4.107   3.638  14.371  0.9077 -2.2353 -0.1288
17078TIP3    H272726   3.973   3.683  14.424 -0.0208  0.4627 -4.3431
17079TIP3   OH272727   5.272   5.179   6.053  0.3067 -0.3193 -0.1182
17079TIP3    H172728   5.266   5.239   5.978 -1.9147 -1.3331 -0.8547
17079TIP3    H272729   5.182   5.170   6.084  1.2174  0.4500  3.0807
17080TIP3   OH272730   1.996   5.071  12.552 -0.2930 -0.1737 -0.0331
17080TIP3    H172731   2.002   5.159  12.588 -2.3128 -0.1486  0.3607
17080TIP3    H272732   2.079   5.059  12.505 -0.4526  2.4017 -1.1450
17081TIP3   OH272733   0.281   4.647   3.625 -0.1595  0.6763  0.0958
17081TIP3    H172734   0.376   4.649   3.620 -0.2474  1.4320 -2.2147
17081TIP3    H272735   0.254   4.736   3.604 -1.3639  1.2503  3.4670
17082TIP3   OH272736   0.896   4.684   2.995  0.3820 -0.0699 -0.3550
17082TIP3    H172737   0.825   4.723   3.046 -0.3198 -0.1427 -1.2391
17082TIP3    H272738   0.909   4.745   2.922  2.2281  0.6789  0.5452
17083TIP3   OH272739   3.963   6.368  16.390  0.6946 -0.1748 -0.5811
17083TIP3    H172740   3.973   6.276  16.369  2.0727 -0.2597  0.3271
17083TIP3    H272741   3.988   6.414  16.310 -0.6566 -0.5750 -1.2547
17084TIP3   OH272742   2.833   4.581   0.743  0.3749 -0.6068  0.3420
17084TIP3    H172743   2.885   4.611   0.668  0.1719  1.5541  0.9815
17084TIP3    H272744   2.742   4.597   0.716  0.2543 -0.7729  0.6511
17085TIP3   OH272745   6.698   5.715  14.183  0.2343 -0.4670  0.1939
17085TIP3    H172746   6.607   5.740  14.199  0.6896  0.6385  1.1127
17085TIP3    H272747   6.739   5.714  14.269  1.0174 -1.3245 -0.1678
17086TIP3   OH272748   3.539   6.145  13.195 -0.4373  0.3646  0.1853
17086TIP3    H172749   3.461   6.103  13.231 -0.6095 -0.4035 -1.0296
17086TIP3    H272750   3.611   6.086  13.219 -0.3140  0.7568  0.7793
17087TIP3   OH272751   6.703   4.472  15.178  0.2633 -0.2190 -0.1136
17087TIP3    H172752   6.705   4.560  15.216  0.2531 -0.0545 -0.4946
17087TIP3    H272753   6.696   4.486  15.084  0.7039 -0.6213 -0.2120
17088TIP3   OH272754   6.611   6.598  12.088 -0.1650 -0.3189 -0.5961
17088TIP3    H172755   6.535   6.610  12.146  0.6875  1.7357  0.1677
17088TIP3    H272756   6.572   6.571  12.005 -1.9777  2.4560 -0.7775
17089TIP3   OH272757   4.809   5.510  10.775  0.0575  0.2465  0.0257
17089TIP3    H172758   4.816   5.597  10.813 -0.1965  0.7099 -0.9496
17089TIP3    H272759   4.897   5.473  10.785  0.8626  1.5431 -1.6541
17090TIP3   OH272760   3.462   5.956  17.131  0.1528  0.4091  0.0680
17090TIP3    H172761   3.492   6.042  17.161 -0.9738  1.1879 -0.9429
17090TIP3    H272762   3.540   5.916  17.093  0.4338  1.4969 -0.5601
17091TIP3   OH272763   2.924   5.706  12.555  0.4015 -0.2999  0.5077
17091TIP3    H172764   2.974   5.785  12.537  0.5739 -0.2714  1.0937
17091TIP3    H272765   2.988   5.644  12.592  0.2952 -0.7564 -0.0563
17092TIP3   OH272766   0.965   5.741  16.113 -0.5038 -0.2616 -0.5124
17092TIP3    H172767   0.897   5.685  16.077 -0.9456 -0.2514  0.2788
17092TIP3    H272768   0.957   5.732  16.208  1.3415 -1.1435 -0.3796
17093TIP3   OH272769   4.988   2.211   1.850 -0.1763 -0.0407  0.5160
17093TIP3    H172770   5.080   2.237   1.852 -0.3976  0.7186  1.8318
17093TIP3    H272771   4.975   2.165   1.933 -0.6797 -1.2632 -0.2269
17094TIP3   OH272772   0.867   3.885  16.794 -0.1085 -0.0537  0.2471
17094TIP3    H172773   0.812   3.809  16.813 -1.2640  0.6271 -0.2858
17094TIP3    H272774   0.928   3.889  16.868 -0.1358 -1.3879  0.3677
17095TIP3   OH272775   3.767   1.961   4.137 -0.1606 -0.3713 -0.3740
17095TIP3    H172776   3.708   2.029   4.103 -0.6793  0.0961  1.3083
17095TIP3    H272777   3.721   1.879   4.121 -1.4524  0.0004  1.0823
17096TIP3   OH272778   4.190   1.536  13.787 -0.1783 -0.1404 -0.0088
17096TIP3    H172779   4.201   1.555  13.693  0.6341 -2.7660 -0.5352
17096TIP3    H272780   4.104   1.571  13.809  0.1324  1.6635 -1.3826
17097TIP3   OH272781   1.291   4.230  17.061 -0.4269 -0.2086 -0.0378
17097TIP3    H172782   1.375   4.204  17.098  0.9901 -0.0542 -2.9086
17097TIP3    H272783   1.237   4.250  17.138  1.4521 -2.2237  1.9953
17098TIP3   OH272784   5.243   3.631   5.300  0.1020  0.5398  0.0350
17098TIP3    H172785   5.245   3.541   5.267 -0.3149  0.2550  0.7495
17098TIP3    H272786   5.316   3.675   5.256 -0.1432  0.0570 -0.8823
17099TIP3   OH272787   0.497   0.396   4.273  0.2211 -0.2935  0.0521
17099TIP3    H172788   0.468   0.452   4.201 -2.2751 -1.6845 -0.1495
17099TIP3    H272789   0.568   0.445   4.314  0.5540  1.3416 -2.2614
17100TIP3   OH272790   3.620   4.752   3.877 -0.2065  0.2955 -0.2322
17100TIP3    H172791   3.712   4.726   3.881  0.3286  2.0011 -0.7561
17100TIP3    H272792   3.599   4.783   3.966 -0.0287  0.6836 -0.3251
17101TIP3   OH272793   0.716   4.469  11.260  0.0574  0.3115  0.5126
17101TIP3    H172794   0.625   4.439  11.255  0.3670 -0.5019 -0.7057
17101TIP3    H272795   0.722   4.539  11.195  0.3173  0.3365  0.5632
17102TIP3   OH272796   1.689   1.605  12.671  0.7390  0.2636  0.1792
17102TIP3    H172797   1.727   1.655  12.743  0.3554  0.9071 -0.0478
17102TIP3    H272798   1.595   1.605  12.689  0.4337  1.8662 -1.1466
17103TIP3   OH272799   6.215   0.452  11.419  0.5575  0.0729  0.5341
17103TIP3    H172800   6.268   0.483  11.493  1.4546 -2.9733  1.3259
17103TIP3    H272801   6.136   0.417  11.459  0.5626 -0.6185 -0.0368
17104TIP3   OH272802   6.204   1.583   0.374  0.0321  0.0928 -0.3325
17104TIP3    H172803   6.150   1.635   0.314  0.8789  0.4458 -0.8181
17104TIP3    H272804   6.194   1.625   0.459  0.4775  0.8959 -0.6644
17105TIP3   OH272805   6.611   3.175   4.225 -0.1652  0.6179  0.4931
17105TIP3    H172806   6.640   3.165   4.134  0.2853  2.7915  0.3499
17105TIP3    H272807   6.614   3.269   4.241 -1.3314  0.3756  2.4236
17106TIP3   OH272808   6.252   4.217  16.433 -0.2287  0.1301  0.1693
17106TIP3    H172809   6.200   4.177  16.503 -0.5301 -2.1320 -1.2358
17106TIP3    H272810   6.201   4.293  16.406  0.2099  1.4753  2.7610
17107TIP3   OH272811   0.011   0.263  12.665 -0.1089  0.3532  0.5565
17107TIP3    H172812  -0.035   0.333  12.710  1.1801  0.1719  2.2526
17107TIP3    H272813   0.070   0.308  12.605 -1.6110  0.5995 -0.8283
17108TIP3   OH272814   0.202   6.544  13.183  0.2496 -0.3065  0.2683
17108TIP3    H172815   0.180   6.564  13.274 -0.5277  1.0882 -0.1948
17108TIP3    H272816   0.284   6.591  13.168 -2.1322  3.8908 -1.1471
17109TIP3   OH272817   3.106   5.984   0.785 -0.4384 -0.4753  0.6408
17109TIP3    H172818   3.077   5.975   0.695 -0.4163 -0.7164  0.6566
17109TIP3    H272819   3.045   5.930   0.836 -1.3378  0.7939  0.9512
17110TIP3   OH272820   3.840   0.793  15.419 -0.2644  0.1110 -0.0003
17110TIP3    H172821   3.800   0.880  15.409 -1.8026 -0.7898 -2.8445
17110TIP3    H272822   3.903   0.804  15.489 -0.2086  3.6087 -0.4072
17111TIP3   OH272823   0.247   1.511  12.073  0.9484  0.2351  0.0293
17111TIP3    H172824   0.226   1.539  12.162 -1.0514 -1.2793  0.0887
17111TIP3    H272825   0.299   1.583  12.038 -1.1039  2.4824  1.2779
17112TIP3   OH272826   3.950   5.844   1.484  0.5202  0.3791 -0.6407
17112TIP3    H172827   3.995   5.836   1.400 -0.9802 -1.0864 -1.3472
17112TIP3    H272828   3.893   5.921   1.474  0.0469 -0.0284 -1.1243
17113TIP3   OH272829   5.849   3.486   5.444 -0.0126 -0.1736 -0.0528
17113TIP3    H172830   5.785   3.509   5.377 -1.3080  0.2514  1.2908
17113TIP3    H272831   5.834   3.393   5.461 -0.0251 -0.1607  0.0069
17114TIP3   OH272832   0.184   5.068  15.590 -0.4917  0.0225 -0.0936
17114TIP3    H172833   0.262   5.051  15.537  0.4333  1.9274  0.5887
17114TIP3    H272834   0.119   5.100  15.527 -0.6425 -1.1976 -0.5995
17115TIP3   OH272835   0.590   2.110  17.117 -0.0174  0.2260  0.4013
17115TIP3    H172836   0.585   2.073  17.205  1.0746  2.9826  1.7419
17115TIP3    H272837   0.673   2.157  17.116 -0.7407  1.5753 -1.5639
17116TIP3   OH272838   5.311   4.951   5.884 -0.0668 -0.8132 -0.3804
17116TIP3    H172839   5.263   5.032   5.898  1.3413  0.0578 -0.3368
17116TIP3    H272840   5.375   4.973   5.816 -0.2062 -2.1379 -0.9662
17117TIP3   OH272841   5.118   2.237  13.699  0.0135  0.1514 -0.5775
17117TIP3    H172842   5.105   2.281  13.614 -0.8669  0.7871 -0.1285
17117TIP3    H272843   5.129   2.308  13.761  1.4726 -0.3234 -0.2494
17118TIP3   OH272844   5.932   3.802   2.202 -0.0877  0.0824  0.7783
17118TIP3    H172845   5.973   3.791   2.116 -0.5889  1.1812  0.3648
17118TIP3    H272846   5.966   3.886   2.233 -1.3010  0.5880  0.8144
17119TIP3   OH272847   5.301   5.587   1.814 -0.4111  0.1006 -0.0644
17119TIP3    H172848   5.376   5.541   1.851 -0.0849 -1.4455 -2.4337
17119TIP3    H272849   5.305   5.674   1.853  2.5795  0.0562 -0.0309
17120TIP3   OH272850   1.788   6.627  11.592  0.4376 -0.3838  0.4831
17120TIP3    H172851   1.755   6.716  11.600 -0.4848 -0.6227 -0.4451
17120TIP3    H272852   1.872   6.636  11.546  0.3474 -0.0035  0.3932
17121TIP3   OH272853   5.515   2.283  14.972  0.3620 -0.1765  0.1847
17121TIP3    H172854   5.564   2.363  14.989  0.3891 -0.3397  0.9392
17121TIP3    H272855   5.464   2.302  14.894  1.0791  0.2457 -0.1904
17122TIP3   OH272856   2.743   2.346   1.771  0.7038 -0.0910  0.1982
17122TIP3    H172857   2.762   2.407   1.842 -1.4199 -0.0901  0.8384
17122TIP3    H272858   2.655   2.369   1.742  0.3575 -1.9855 -0.4330
17123TIP3   OH272859   1.292   6.397   1.642 -0.1653 -0.0223 -0.0641
17123TIP3    H172860   1.279   6.303   1.641  2.2159 -0.4119 -1.3156
17123TIP3    H272861   1.353   6.413   1.715 -0.5816  0.5537  0.1677
17124TIP3   OH272862   6.421   5.950   2.192  0.1006  0.1341 -0.0042
17124TIP3    H172863   6.402   5.872   2.140 -2.6183  0.2201  0.7120
17124TIP3    H272864   6.398   5.926   2.281 -0.2757  1.5701  0.3172
17125TIP3   OH272865   3.213   3.582  10.739  0.2404 -0.2905  0.4997
17125TIP3    H172866   3.168   3.600  10.656  1.3137  0.1695  0.0039
17125TIP3    H272867   3.149   3.606  10.806 -0.3764  0.0267 -0.1833
17126TIP3   OH272868   0.691   4.907   6.509  0.3869  0.5205  0.1736
17126TIP3    H172869   0.739   4.839   6.462 -0.4240 -0.1442  0.2654
17126TIP3    H272870   0.740   4.987   6.494  2.7311 -0.4541  2.0171
17127TIP3   OH272871   5.128   1.929  13.664 -0.3421  0.0006 -0.4677
17127TIP3    H172872   5.135   2.016  13.627  0.2110 -0.1008 -0.6104
17127TIP3    H272873   5.121   1.943  13.758  0.0781  0.1877 -0.4618
17128TIP3   OH272874   0.624   4.292  15.378 -0.2117  0.2996  0.1760
17128TIP3    H172875   0.639   4.312  15.470 -1.8282  0.4882  0.4355
17128TIP3    H272876   0.613   4.197  15.376  0.1637  0.2554  0.1144
17129TIP3   OH272877   2.691   1.482  13.659  0.0535  0.2756  0.2929
17129TIP3    H172878   2.763   1.471  13.722  0.3928  1.6764  0.1750
17129TIP3    H272879   2.612   1.470  13.712  0.3525  0.1861  0.7302
17130TIP3   OH272880   6.704   0.094  15.096  0.1390  0.2749  0.6171
17130TIP3    H172881   6.668   0.044  15.023  1.0752  1.2321 -0.5266
17130TIP3    H272882   6.633   0.095  15.161  0.0452 -2.3972  0.6543
17131TIP3   OH272883   6.553   6.654  11.102  0.4259 -0.6301 -0.2009
17131TIP3    H172884   6.593   6.675  11.017  0.9619 -1.4902 -0.1668
17131TIP3    H272885   6.472   6.704  11.102  0.8221  0.0367 -0.8698
17132TIP3   OH272886   5.232   3.888  15.904 -0.2632 -1.1809 -0.0043
17132TIP3    H172887   5.208   3.941  15.827  1.4385  0.1634  0.3194
17132TIP3    H272888   5.254   3.953  15.971  0.1233 -2.3266  1.0026
17133TIP3   OH272889   2.467   2.398  16.647  0.7639  0.0891  0.6752
17133TIP3    H172890   2.401   2.467  16.653  0.4435 -0.1657  0.0748
17133TIP3    H272891   2.503   2.392  16.736 -1.2727 -1.0299  1.4755
17134TIP3   OH272892   6.013   5.716  11.787  0.3662  0.3495 -0.1293
17134TIP3    H172893   5.928   5.685  11.756  0.1837  1.6364 -1.0036
17134TIP3    H272894   5.992   5.794  11.840  0.9567  0.2841  0.2165
17135TIP3   OH272895   2.872   5.130  17.096  0.2349 -0.1715 -0.5125
17135TIP3    H172896   2.965   5.113  17.114  0.1576  0.6507  0.7817
17135TIP3    H272897   2.867   5.225  17.087 -0.5445 -0.1851 -0.2531
17136TIP3   OH272898   6.389   1.695   1.583  0.1979  0.0824  0.4084
17136TIP3    H172899   6.379   1.696   1.678  0.0373  2.4397  0.4323
17136TIP3    H272900   6.414   1.785   1.561  0.9168 -0.5883 -1.7196
17137TIP3   OH272901   4.750   4.424  12.466  0.3573  0.0342  0.2072
17137TIP3    H172902   4.795   4.362  12.409  1.0548 -0.2506  1.0568
17137TIP3    H272903   4.689   4.470  12.407  0.1296 -1.1445 -0.5075
17138TIP3   OH272904   0.320   1.439   1.414 -0.1022 -0.3743  0.8748
17138TIP3    H172905   0.396   1.432   1.473  1.7138 -2.2910 -1.4836
17138TIP3    H272906   0.322   1.358   1.363 -1.3709  1.2937 -2.0370
17139TIP3   OH272907   2.691   1.419  12.290 -0.1844  0.0155 -0.1762
17139TIP3    H172908   2.690   1.427  12.195  1.1542 -2.0899 -0.4129
17139TIP3    H272909   2.671   1.508  12.321 -1.8323  0.4956 -2.3739
17140TIP3   OH272910   2.089   3.719   4.610 -1.0983 -0.1178  0.0681
17140TIP3    H172911   2.175   3.762   4.618 -1.4651  1.4034 -2.8303
17140TIP3    H272912   2.110   3.627   4.599  0.0454 -0.0316  1.2427
17141TIP3   OH272913   3.260   4.051  17.249 -0.6748 -0.5449  0.2398
17141TIP3    H172914   3.301   4.136  17.262  0.8573 -1.3976  1.2376
17141TIP3    H272915   3.194   4.066  17.181  0.1584  1.2290 -0.2208
17142TIP3   OH272916   1.366   2.236   5.159  0.3911  0.1171  0.2493
17142TIP3    H172917   1.421   2.217   5.083 -0.8790  0.0822 -0.7036
17142TIP3    H272918   1.351   2.151   5.200 -0.5272 -0.1709 -0.6336
17143TIP3   OH272919   6.604   5.235  13.108 -0.1438 -0.3693 -0.0221
17143TIP3    H172920   6.508   5.235  13.112 -0.1821  1.2462 -0.1288
17143TIP3    H272921   6.631   5.266  13.194  0.3420 -1.7374  0.3402
17144TIP3   OH272922   4.049   6.623  12.124  0.0034 -0.3180 -0.4165
17144TIP3    H172923   4.059   6.698  12.181  0.5584  0.4916 -1.5348
17144TIP3    H272924   4.085   6.549  12.173  2.6896  0.7677 -0.5790
17145TIP3   OH272925   1.440   0.763   5.452  0.4052 -0.0463 -0.5057
17145TIP3    H172926   1.423   0.857   5.441  0.2001  0.0347  0.4266
17145TIP3    H272927   1.535   0.755   5.447  0.4529  0.2758 -0.1051
17146TIP3   OH272928   3.397   0.333   2.667 -0.1528  0.6595 -0.1495
17146TIP3    H172929   3.305   0.307   2.666 -0.5186  1.8834 -0.0809
17146TIP3    H272930   3.398   0.417   2.714  1.3332 -0.5336  2.1804
17147TIP3   OH272931   2.469   4.901   2.290  0.6870  0.9946  0.2540
17147TIP3    H172932   2.514   4.817   2.280  0.8923  1.0302  0.8314
17147TIP3    H272933   2.403   4.901   2.222  0.3449  0.1348  0.5721
17148TIP3   OH272934   0.781   4.121  14.450 -0.4772 -0.0410  0.2517
17148TIP3    H172935   0.715   4.061  14.486  1.0730 -0.9066  1.7762
17148TIP3    H272936   0.833   4.066  14.391 -0.9946  0.6052 -0.8358
17149TIP3   OH272937   0.845   1.255   3.710 -0.1034 -0.3310  0.3825
17149TIP3    H172938   0.807   1.337   3.742  0.2941  0.3728 -0.8628
17149TIP3    H272939   0.774   1.191   3.717 -0.8548  0.4565  0.0936
17150TIP3   OH272940   1.483   0.193   2.032  0.0091  0.1015 -0.0215
17150TIP3    H172941   1.553   0.228   1.977  0.7563 -0.9284  0.2390
17150TIP3    H272942   1.524   0.180   2.118 -0.4550 -0.6905  0.0881
17151TIP3   OH272943   5.782   6.618   5.387  0.5625 -0.1764  0.1698
17151TIP3    H172944   5.812   6.550   5.446 -1.1937 -0.6672  0.5533
17151TIP3    H272945   5.720   6.574   5.329 -0.8730  1.1224  0.6398
17152TIP3   OH272946   1.220   0.915  15.491 -0.3964  1.0265  0.0531
17152TIP3    H172947   1.253   0.902  15.580  2.2291 -2.3625 -1.1883
17152TIP3    H272948   1.266   0.993  15.460  3.2800 -0.9546 -0.0490
17153TIP3   OH272949   0.949   6.593  12.426  0.7276  0.0690  0.5564
17153TIP3    H172950   1.030   6.545  12.445  1.8306  1.9275  0.8394
17153TIP3    H272951   0.955   6.616  12.333  2.0327  2.6827  1.1737
17154TIP3   OH272952   5.209   4.806  15.721  0.2912  0.5001  0.3506
17154TIP3    H172953   5.212   4.900  15.701 -2.5881  0.8803  1.2805
17154TIP3    H272954   5.220   4.801  15.816 -0.9624  0.0851  0.5005
17155TIP3   OH272955   5.681   0.372   2.150 -0.0124 -0.4446  0.0804
17155TIP3    H172956   5.591   0.394   2.174  0.1699 -0.5392  0.8831
17155TIP3    H272957   5.687   0.394   2.057 -0.5183  0.6781  0.2957
17156TIP3   OH272958   4.724   6.426   5.814 -0.2562  0.1514  0.0300
17156TIP3    H172959   4.656   6.461   5.756  0.1706 -0.6633 -0.9901
17156TIP3    H272960   4.765   6.504   5.851  1.7680  0.9537 -3.4369
17157TIP3   OH272961   5.797   6.344   2.190  0.0576  0.3685 -0.0742
17157TIP3    H172962   5.773   6.431   2.157 -0.3624  0.3789  0.2538
17157TIP3    H272963   5.719   6.312   2.235 -0.2227 -0.7319 -1.2962
17158TIP3   OH272964   2.430   3.389  12.141 -0.7282  0.5565 -0.1075
17158TIP3    H172965   2.351   3.344  12.113 -0.9055  2.1576 -2.4757
17158TIP3    H272966   2.416   3.407  12.234 -2.5487 -0.3333 -0.1721
17159TIP3   OH272967   2.872   6.147   3.470  0.4376  0.1203 -0.1385
17159TIP3    H172968   2.805   6.084   3.441  1.0870 -0.9717  0.6432
17159TIP3    H272969   2.936   6.148   3.400 -0.1088  0.7484 -0.6402
17160TIP3   OH272970   0.277   5.187   5.542  0.2460  0.0225  0.1523
17160TIP3    H172971   0.302   5.185   5.634 -0.1150 -2.0466  0.2633
17160TIP3    H272972   0.194   5.139   5.539 -0.7251  1.6727 -1.0139
17161TIP3   OH272973   2.410   4.680  16.203  0.0561  0.4558  0.0980
17161TIP3    H172974   2.462   4.756  16.178  0.3803  0.5144  0.8944
17161TIP3    H272975   2.353   4.712  16.273 -1.7479  0.6301 -1.3685
17162TIP3   OH272976   0.653   0.272   4.890 -0.0621 -0.1504 -0.1668
17162TIP3    H172977   0.713   0.244   4.820  1.1600 -0.4863  0.9712
17162TIP3    H272978   0.570   0.290   4.845  0.8814  0.3502 -1.8031
17163TIP3   OH272979   6.329   2.640  11.693 -0.2726  0.1641 -0.6120
17163TIP3    H172980   6.290   2.556  11.669  0.8407 -0.6113  0.1520
17163TIP3    H272981   6.424   2.625  11.687  0.0593  0.4596  2.2449
17164TIP3   OH272982   3.910   6.720   2.322  0.3111 -0.2036 -0.0880
17164TIP3    H172983   3.964   6.798   2.322 -0.7961  0.5865  0.3288
17164TIP3    H272984   3.972   6.647   2.330  1.4672  0.5305 -1.7796
17165TIP3   OH272985   1.766   1.853  10.570  0.2118 -0.2703  0.4439
17165TIP3    H172986   1.686   1.873  10.618 -0.2604  0.4416 -0.6182
17165TIP3    H272987   1.825   1.926  10.590  0.1297 -0.1372  0.2038
17166TIP3   OH272988   4.488   4.444  11.102 -0.2656 -0.3636  0.0419
17166TIP3    H172989   4.550   4.392  11.050  0.7261  1.0523 -0.2337
17166TIP3    H272990   4.491   4.531  11.063 -2.0410 -0.1125  0.3849
17167TIP3   OH272991   1.992   4.254  15.605 -0.0594  0.3345  0.2305
17167TIP3    H172992   1.920   4.264  15.543 -2.3644 -0.4740  2.6285
17167TIP3    H272993   2.001   4.160  15.617  2.2539  0.3512 -0.8611
17168TIP3   OH272994   4.133   6.033  16.839  0.0287 -0.5436  0.0608
17168TIP3    H172995   4.166   6.090  16.909  0.0511 -0.1614 -0.2531
17168TIP3    H272996   4.191   5.957  16.840 -1.4009 -1.6891  2.0203
17169TIP3   OH272997   4.923   2.045   4.261 -0.3233  0.5438  0.2812
17169TIP3    H172998   4.997   1.987   4.242  0.2844  1.1098  0.8492
17169TIP3    H272999   4.914   2.041   4.357  0.2866  2.0242  0.4259
17170TIP3   OH273000   1.332   5.089  15.388  0.1327  0.4405 -0.3281
17170TIP3    H173001   1.330   5.045  15.303 -2.8907  0.4757 -0.3945
17170TIP3    H273002   1.244   5.125  15.398 -0.1367 -0.8290  3.4489
17171TIP3   OH273003   0.595   3.701  15.295  0.1653  0.1660 -0.0070
17171TIP3    H173004   0.542   3.741  15.363 -1.3396  0.4927 -1.3083
17171TIP3    H273005   0.586   3.607  15.311 -1.4312  0.1847 -0.6101
17172TIP3   OH273006   0.009   1.334   1.174  0.8308  0.2133 -0.1826
17172TIP3    H173007  -0.002   1.241   1.155  1.8449  0.2444 -1.0611
17172TIP3    H273008   0.033   1.337   1.267  0.2300 -0.3429 -0.0016
17173TIP3   OH273009   5.031   4.404   0.828  0.2592 -0.0217 -0.0967
17173TIP3    H173010   4.980   4.469   0.778 -0.8394 -1.1237 -0.4577
17173TIP3    H273011   5.014   4.321   0.784  0.0499 -0.8724  1.5268
17174TIP3   OH273012   1.648   2.578   0.123 -0.4075 -0.0320 -0.4014
17174TIP3    H173013   1.720   2.624   0.165 -1.2370  0.8648  0.0912
17174TIP3    H273014   1.662   2.486   0.145 -0.2447  0.2990  0.9795
17175TIP3   OH273015   4.622   3.768   2.789  0.2552 -0.3946 -0.0426
17175TIP3    H173016   4.631   3.680   2.752 -1.4312 -0.1773 -1.0542
17175TIP3    H273017   4.544   3.762   2.845  0.9228  0.1190  0.9638
17176TIP3   OH273018   2.435   5.236   3.351 -0.2098  0.6296 -0.6081
17176TIP3    H173019   2.369   5.222   3.419 -0.3711 -0.4569 -0.9701
17176TIP3    H273020   2.403   5.311   3.301 -1.5789 -0.3364 -1.2358
17177TIP3   OH273021   6.277   0.536   4.664 -0.1299  0.0907 -0.2293
17177TIP3    H173022   6.279   0.498   4.576 -0.0793  1.1511 -0.7021
17177TIP3    H273023   6.185   0.533   4.689  0.0801 -2.0689  0.5523
17178TIP3   OH273024   5.301   0.044   0.635 -0.1700 -0.5583  0.1846
17178TIP3    H173025   5.291  -0.040   0.590 -0.3172 -1.7705  2.3310
17178TIP3    H273026   5.234   0.100   0.595 -0.9257 -1.8610 -0.4611
17179TIP3   OH273027   6.780   2.563   3.529  0.2661  0.4081 -0.4749
17179TIP3    H173028   6.826   2.581   3.611  1.3156  0.6892 -1.0996
17179TIP3    H273029   6.713   2.631   3.524  0.4483  0.6270 -0.0345
17180TIP3   OH273030   1.495   1.486   4.483 -0.7085  0.0331 -0.0883
17180TIP3    H173031   1.574   1.450   4.443 -1.1231 -0.9766 -0.0360
17180TIP3    H273032   1.443   1.517   4.410 -0.8429 -0.5128 -0.2248
17181TIP3   OH273033   4.194   4.665   1.109 -1.0694 -0.4936 -0.4720
17181TIP3    H173034   4.148   4.748   1.099 -1.5979 -0.4898  1.4781
17181TIP3    H273035   4.217   4.662   1.202 -0.7702 -2.3791 -0.5654
17182TIP3   OH273036   2.174   0.308  15.032 -0.2937  0.7379  0.2443
17182TIP3    H173037   2.105   0.296  15.097 -1.0421  1.4380 -0.3962
17182TIP3    H273038   2.141   0.266  14.953  0.2456  0.6209  0.0712
17183TIP3   OH273039   3.820   1.211   0.500  0.3340 -0.1736 -0.8280
17183TIP3    H173040   3.830   1.121   0.471  0.1345  0.2211 -2.2269
17183TIP3    H273041   3.899   1.229   0.550  0.0701 -1.3123  0.0198
17184TIP3   OH273042   4.283   2.145   5.888 -0.3514  0.7647 -0.2046
17184TIP3    H173043   4.200   2.156   5.842 -0.6253  1.0155  0.3317
17184TIP3    H273044   4.260   2.095   5.967  0.2142 -0.2041 -0.6398
17185TIP3   OH273045   4.236   4.835   4.949 -0.6061 -0.0181 -0.0786
17185TIP3    H173046   4.180   4.890   5.004 -1.6774 -1.9594  0.8794
17185TIP3    H273047   4.175   4.780   4.900  0.4283 -1.0665 -0.2354
17186TIP3   OH273048   1.930   1.551  16.136 -0.4797 -0.2612 -0.0456
17186TIP3    H173049   1.929   1.494  16.059 -0.2838 -2.6299  1.6181
17186TIP3    H273050   1.874   1.508  16.200  1.7951 -0.0856  2.2613
17187TIP3   OH273051   0.511   5.207   6.690 -0.0994  0.2322  0.3631
17187TIP3    H173052   0.561   5.239   6.615 -1.5622 -0.1900 -0.8508
17187TIP3    H273053   0.557   5.127   6.718  0.7319  0.6623  0.2420
17188TIP3   OH273054   0.921   4.878  15.561 -0.1534  0.4450  0.9067
17188TIP3    H173055   0.971   4.924  15.628  1.1760 -0.5455  0.6511
17188TIP3    H273056   0.954   4.913  15.478 -0.7858  0.6753  0.7487
17189TIP3   OH273057   2.391   3.586  15.621 -0.3092  0.2647  0.8706
17189TIP3    H173058   2.443   3.631  15.688 -2.0525  2.0132  1.1207
17189TIP3    H273059   2.390   3.495  15.649  2.2539  0.2017  1.0417
17190TIP3   OH273060   0.293   0.967  16.862  0.8456 -0.5424 -0.1912
17190TIP3    H173061   0.383   0.997  16.845  0.8998  1.1551  2.4786
17190TIP3    H273062   0.253   1.039  16.911 -2.2970 -0.8864 -2.0114
17191TIP3   OH273063   0.828   4.088   3.873 -0.6490  0.0793  0.1809
17191TIP3    H173064   0.923   4.097   3.880 -0.6109 -0.5157  0.4591
17191TIP3    H273065   0.801   4.053   3.958 -0.9254 -1.3124 -0.4499
17192TIP3   OH273066   0.556   3.441  15.320 -0.3745 -0.1658  0.4450
17192TIP3    H173067   0.638   3.397  15.299  0.2375  0.7927  0.7926
17192TIP3    H273068   0.497   3.417  15.248  0.3901 -0.3615 -0.1226
17193TIP3   OH273069   0.619   3.987   1.075  0.5186 -0.4808 -0.3684
17193TIP3    H173070   0.688   4.026   1.021 -0.9031 -0.2471 -2.1220
17193TIP3    H273071   0.625   3.893   1.059 -1.0079 -0.2863 -2.4357
17194TIP3   OH273072   3.860   1.865   0.289  0.1876 -0.0503  0.8683
17194TIP3    H173073   3.786   1.898   0.340 -0.7900 -0.7053 -0.0765
17194TIP3    H273074   3.937   1.897   0.335 -0.6550 -0.2926  2.5380
17195TIP3   OH273075   6.300   6.487  14.056  0.6713 -0.2080  0.0845
17195TIP3    H173076   6.238   6.548  14.016  1.1822  0.8649  0.8645
17195TIP3    H273077   6.385   6.515  14.021  0.7533 -1.6181 -0.9234
17196TIP3   OH273078   5.517   1.217  13.436 -0.2316  0.1463 -0.1424
17196TIP3    H173079   5.581   1.160  13.394 -1.8053 -0.9512 -1.1963
17196TIP3    H273080   5.434   1.170  13.426 -1.0260  0.8479  2.3487
17197TIP3   OH273081   1.017   5.626   1.755 -0.3917 -0.1957  0.1826
17197TIP3    H173082   0.966   5.696   1.794  0.8859  0.5472  0.5675
17197TIP3    H273083   1.070   5.669   1.688  1.6149 -0.4657  1.5215
17198TIP3   OH273084   3.960   4.773   5.292  0.0138  0.3097  0.4171
17198TIP3    H173085   4.039   4.719   5.287  0.6830  1.3346 -0.5019
17198TIP3    H273086   3.899   4.722   5.345  0.4723 -1.5405 -0.7412
17199TIP3   OH273087   4.623   4.716  12.392 -0.5157 -0.1775 -0.3042
17199TIP3    H173088   4.529   4.706  12.373 -0.5546 -1.9221  0.5614
17199TIP3    H273089   4.667   4.673  12.318 -0.3635  0.7384 -0.7667
17200TIP3   OH273090   1.271   0.581  11.727 -0.0300  0.5566  0.0311
17200TIP3    H173091   1.262   0.526  11.649  0.9617  0.9156 -0.3415
17200TIP3    H273092   1.200   0.551  11.785  0.1403 -0.7352 -0.3885
17201TIP3   OH273093   5.990   6.727   5.227 -0.2414 -0.3601 -0.8716
17201TIP3    H173094   6.066   6.706   5.281 -0.5713 -0.1993 -0.3429
17201TIP3    H273095   5.915   6.711   5.284 -0.5797  0.1186 -1.1754
17202TIP3   OH273096   3.161   3.203   0.912  0.0955 -0.0024 -0.1044
17202TIP3    H173097   3.189   3.216   1.003 -0.5614  0.3060  0.0541
17202TIP3    H273098   3.084   3.259   0.902  0.0865 -0.1362 -0.8153
17203TIP3   OH273099   0.538   0.092   3.523 -0.1354 -0.4669 -0.3162
17203TIP3    H173100   0.593   0.098   3.445  0.7043  0.4695  0.3222
17203TIP3    H273101   0.459   0.047   3.494 -0.2177  0.6527 -1.9190
17204TIP3   OH273102   2.707   0.323  11.713 -0.6123  0.0375 -0.2596
17204TIP3    H173103   2.628   0.274  11.733  0.8785 -2.2854  0.3699
17204TIP3    H273104   2.709   0.394  11.777 -1.1407 -1.1547  1.1277
17205TIP3   OH273105   5.443   6.115   6.566  0.0020 -0.0338 -0.4556
17205TIP3    H173106   5.512   6.048   6.569  1.0015  0.9838  1.5510
17205TIP3    H273107   5.362   6.066   6.583  0.4053 -1.0359 -1.2979
17206TIP3   OH273108   4.565   3.267  13.231 -0.2533  0.0975  0.2343
17206TIP3    H173109   4.543   3.285  13.140 -1.3778 -1.5065  0.1374
17206TIP3    H273110   4.594   3.176  13.231 -1.1405 -0.2262  1.5924
17207TIP3   OH273111   1.819   5.852  16.540  0.0896 -0.2414 -0.6765
17207TIP3    H173112   1.810   5.763  16.506  1.1528 -0.5587 -0.1612
17207TIP3    H273113   1.914   5.865  16.549  0.0080  1.2581 -1.5583
17208TIP3   OH273114   5.284   4.372   0.988 -0.4276  0.0665 -0.2647
17208TIP3    H173115   5.332   4.293   0.964 -0.2500  0.2274 -0.4524
17208TIP3    H273116   5.209   4.374   0.929 -0.4753 -0.0032 -0.2064
17209TIP3   OH273117   3.749   4.294   0.300 -0.6373 -0.5015 -0.4678
17209TIP3    H173118   3.811   4.365   0.315 -1.1884 -0.1407  0.1651
17209TIP3    H273119   3.665   4.337   0.286 -0.5951 -0.9391 -2.3278
17210TIP3   OH273120   1.365   4.197   3.072  0.2187 -0.4141  0.0873
17210TIP3    H173121   1.399   4.109   3.060 -1.9189 -0.9770 -2.6122
17210TIP3    H273122   1.394   4.246   2.995 -0.9523  0.4565  0.1700
17211TIP3   OH273123   1.783   5.312   1.964  0.0825  0.0628 -0.0278
17211TIP3    H173124   1.840   5.359   2.026  0.6653  2.0061 -1.9144
17211TIP3    H273125   1.840   5.289   1.891 -1.5408  2.8648 -2.4014
17212TIP3   OH273126   3.732   5.989   1.730  0.3981 -0.3991  0.1268
17212TIP3    H173127   3.690   6.075   1.735  0.5846 -0.3017  0.0213
17212TIP3    H273128   3.694   5.948   1.653 -0.5159 -0.8526  0.8097
17213TIP3   OH273129   2.410   2.073   5.170  0.3419  0.4946 -0.3474
17213TIP3    H173130   2.411   2.067   5.265  1.0940 -1.2228 -0.4285
17213TIP3    H273131   2.317   2.075   5.147  0.1506  1.6976  0.4230
17214TIP3   OH273132   6.394   4.814   2.380  0.0750 -0.0305 -0.1819
17214TIP3    H173133   6.420   4.786   2.468  0.6949  2.1094  0.3920
17214TIP3    H273134   6.418   4.907   2.377 -1.8176  0.4769 -1.8843
17215TIP3   OH273135   2.109   6.685  14.055  0.3184  0.0355  0.2204
17215TIP3    H173136   2.119   6.775  14.023  2.0863  1.2671  3.7330
17215TIP3    H273137   2.189   6.668  14.104  0.5312 -3.9700 -1.1836
17216TIP3   OH273138   4.405   0.497  15.557  0.5231  0.7216  0.3574
17216TIP3    H173139   4.382   0.467  15.470  0.9056 -0.5356  0.6781
17216TIP3    H273140   4.328   0.547  15.587 -0.0693  0.1672 -0.2298
17217TIP3   OH273141   5.188   0.345   6.367 -0.1089  0.0313  0.0265
17217TIP3    H173142   5.146   0.341   6.453  0.8589 -0.6116  0.4850
17217TIP3    H273143   5.126   0.393   6.312  0.0969  2.1950  1.5760
17218TIP3   OH273144   2.898   4.034  11.879 -0.0967  0.0363  0.0851
17218TIP3    H173145   2.918   4.099  11.812 -0.9319 -1.6327 -1.8856
17218TIP3    H273146   2.980   4.023  11.927  0.6110  1.0632 -0.8375
17219TIP3   OH273147   3.143   4.453  16.258 -0.4247  0.1634  0.2651
17219TIP3    H173148   3.211   4.387  16.251  0.1064  0.7917 -0.7689
17219TIP3    H273149   3.092   4.427  16.335 -0.5047 -1.6979 -0.3547
17220TIP3   OH273150   4.870   3.403   0.771 -0.4898 -0.1874 -0.0720
17220TIP3    H173151   4.890   3.495   0.789 -1.0763 -0.4086  1.9547
17220TIP3    H273152   4.924   3.381   0.695  0.5332  1.5100  0.1101
17221TIP3   OH273153   1.713   3.474  14.990  0.0174  0.3198 -0.9857
17221TIP3    H173154   1.669   3.390  15.007 -2.5270  1.6362 -0.4897
17221TIP3    H273155   1.702   3.488  14.896 -0.3986  0.5167 -0.9099
17222TIP3   OH273156   5.661   5.652  15.611  0.4283 -0.8073 -0.0470
17222TIP3    H173157   5.676   5.743  15.588 -1.0933 -0.5636 -0.1841
17222TIP3    H273158   5.701   5.642  15.697  0.4944  0.0322  0.0292
17223TIP3   OH273159   2.368   0.024  14.959  0.5267  0.2314 -0.0040
17223TIP3    H173160   2.283   0.066  14.942  0.7486  0.6314 -0.1482
17223TIP3    H273161   2.362  -0.006  15.050  0.3059  0.4465  0.0539
17224TIP3   OH273162   5.522   4.984  15.772 -0.4863 -0.5353 -0.6853
17224TIP3    H173163   5.571   5.066  15.764 -0.3524 -0.7089 -1.9830
17224TIP3    H273164   5.433   5.011  15.794 -0.9874  0.1562 -3.2504
17225TIP3   OH273165   4.148   4.899  13.303  0.2582 -0.7762 -0.3722
17225TIP3    H173166   4.093   4.972  13.332  0.4386 -0.3618 -1.0439
17225TIP3    H273167   4.206   4.883  13.377  0.8696  0.4206 -0.5563
17226TIP3   OH273168   3.851   3.034   2.451  0.0015 -0.5482 -0.7978
17226TIP3    H173169   3.941   3.065   2.455 -0.2671  0.0999  1.0729
17226TIP3    H273170   3.856   2.940   2.472  0.2586 -0.5742 -0.9774
17227TIP3   OH273171   3.228   6.685   1.350  0.2100 -0.1097 -0.2583
17227TIP3    H173172   3.247   6.731   1.268 -1.7280  2.5994  0.6923
17227TIP3    H273173   3.286   6.725   1.415 -0.4443 -0.0722  0.3086
17228TIP3   OH273174   0.282   4.443  16.807 -0.1584 -0.2438 -0.1018
17228TIP3    H173175   0.254   4.432  16.716  0.7816  1.3050 -0.6202
17228TIP3    H273176   0.376   4.426  16.805  0.1774  1.4103  0.2296
17229TIP3   OH273177   0.541   2.112  13.195  0.1816  0.1507  0.1679
17229TIP3    H173178   0.461   2.069  13.226  0.3001  0.8511  1.5085
17229TIP3    H273179   0.543   2.093  13.101  0.3341 -2.9276  0.6892
17230TIP3   OH273180   5.265   1.678   3.111  0.2192  0.3461 -0.4302
17230TIP3    H173181   5.179   1.709   3.138  1.0051  0.5968  1.9657
17230TIP3    H273182   5.326   1.718   3.174  2.1206  0.2794 -2.1173
17231TIP3   OH273183   0.422   2.069  14.989  0.3991  0.1420 -0.7954
17231TIP3    H173184   0.336   2.066  14.947  0.1751  0.5292 -0.3729
17231TIP3    H273185   0.475   2.122  14.929  0.5214 -0.6050 -1.3618
17232TIP3   OH273186   2.868   1.108  12.120  0.4766  0.4674 -0.0154
17232TIP3    H173187   2.868   1.163  12.199 -2.4092 -1.6693  1.6721
17232TIP3    H273188   2.783   1.123  12.080  1.1591  0.0510 -1.7174
17233TIP3   OH273189   0.713   1.595  16.558 -0.1604 -0.2616  0.0130
17233TIP3    H173190   0.698   1.646  16.638  0.7623  0.7848 -0.4646
17233TIP3    H273191   0.630   1.600  16.510 -0.4001 -0.0830  0.4376
17234TIP3   OH273192   4.377   3.092  16.913 -0.0043  0.4269 -0.6356
17234TIP3    H173193   4.306   3.033  16.939 -0.6258  0.6890 -1.6496
17234TIP3    H273194   4.376   3.090  16.817  0.7948  1.1067 -0.6756
17235TIP3   OH273195   5.961   1.573  13.325  0.0005 -0.9733 -0.1699
17235TIP3    H173196   5.877   1.541  13.358  0.3360 -0.2467  1.4656
17235TIP3    H273197   6.020   1.498  13.334 -0.1255 -1.0502  0.0084
17236TIP3   OH273198   5.949   3.187  14.976 -0.0735  0.5196 -0.3858
17236TIP3    H173199   5.899   3.224  15.049 -0.6135 -1.9332  0.5929
17236TIP3    H273200   5.960   3.094  14.999  4.3956  0.7081 -0.8352
17237TIP3   OH273201   6.822   1.856  14.870 -0.7131 -0.3403 -0.2461
17237TIP3    H173202   6.796   1.885  14.783  1.5912  0.6582 -0.6750
17237TIP3    H273203   6.810   1.761  14.869 -1.3130 -0.2649 -1.4023
17238TIP3   OH273204   1.692   5.004  15.638  0.6446  0.1722  0.3104
17238TIP3    H173205   1.629   4.945  15.680  0.2050 -0.2174 -0.8816
17238TIP3    H273206   1.733   4.952  15.570 -0.1931  1.3780 -1.1816
17239TIP3   OH273207   2.049   2.707  13.200 -0.4340  0.4252  0.4164
17239TIP3    H173208   1.994   2.780  13.170 -0.5633  0.9167  1.7771
17239TIP3    H273209   2.128   2.714  13.147 -0.6139  1.3103  0.2428
17240TIP3   OH273210   0.153   1.696  13.441  0.3056 -0.3614 -0.1892
17240TIP3    H173211   0.113   1.763  13.385 -1.7498 -1.8288 -0.5666
17240TIP3    H273212   0.206   1.643  13.381  0.5702 -0.1152 -0.1788
17241TIP3   OH273213   3.870   6.135   5.332  0.0214  0.4035  0.2367
17241TIP3    H173214   3.908   6.048   5.332  0.5504  0.6266  1.1881
17241TIP3    H273215   3.944   6.194   5.347 -0.2317  1.0726 -0.9761
17242TIP3   OH273216   1.004   1.058  13.845  0.3534  0.4056  0.7921
17242TIP3    H173217   0.999   1.043  13.751 -3.0364  0.0341  0.9245
17242TIP3    H273218   1.045   1.144  13.853  0.9302  0.3348 -0.9966
17243TIP3   OH273219   2.505   6.210   6.772  0.0914 -0.5741 -0.5494
17243TIP3    H173220   2.459   6.283   6.731 -0.3723 -0.6981 -0.2623
17243TIP3    H273221   2.448   6.134   6.757  0.7391 -0.9587 -1.1667
17244TIP3   OH273222   0.444   3.867  16.532  0.5273 -0.0022 -0.2355
17244TIP3    H173223   0.439   3.783  16.486  1.4387 -1.2608  1.8530
17244TIP3    H273224   0.383   3.858  16.605  1.9327  0.4429  1.0432
17245TIP3   OH273225   4.377   5.257   2.738 -0.5434  0.1004  0.0358
17245TIP3    H173226   4.372   5.350   2.717 -1.2787  0.2947  1.0129
17245TIP3    H273227   4.426   5.254   2.820 -1.5687 -0.2570  0.6558
17246TIP3   OH273228   4.368   5.515   0.093  0.0514  0.4068  0.1960
17246TIP3    H173229   4.461   5.520   0.116  0.4764  1.8101 -1.5452
17246TIP3    H273230   4.322   5.524   0.176  1.4796  1.6174  0.9127
17247TIP3   OH273231   2.936   0.625  10.851 -0.3184  0.4757  0.4979
17247TIP3    H173232   2.891   0.567  10.790 -1.7036  1.4666  0.5466
17247TIP3    H273233   2.871   0.691  10.875  0.8362  1.3309  1.4133
17248TIP3   OH273234   3.164   2.008  16.075 -0.1346 -0.0138 -0.6017
17248TIP3    H173235   3.081   1.965  16.054  0.1836 -0.8801 -0.1189
17248TIP3    H273236   3.221   1.938  16.105  0.4682  0.7079 -0.0082
17249TIP3   OH273237   2.636   6.439   4.056  0.0671 -0.2675  0.2639
17249TIP3    H173238   2.656   6.508   4.119  0.3598  2.8329 -2.8891
17249TIP3    H273239   2.545   6.457   4.030  0.4305 -0.4660 -1.2294
17250TIP3   OH273240   6.423   1.428   1.088 -0.1440 -0.0307  0.1209
17250TIP3    H173241   6.446   1.339   1.114  2.6503  1.0007  1.5924
17250TIP3    H273242   6.341   1.446   1.133 -0.7571 -1.8066 -0.2019
17251TIP3   OH273243   0.815   1.920  15.001  0.2961 -0.6487 -0.4640
17251TIP3    H173244   0.734   1.947  15.045 -0.5417  0.0127 -2.3256
17251TIP3    H273245   0.836   1.835  15.040 -1.6584 -1.1511 -0.3988
17252TIP3   OH273246   2.571   3.112   1.291  0.2904 -0.0367 -0.3580
17252TIP3    H173247   2.662   3.133   1.312 -0.4871  2.4383  0.8690
17252TIP3    H273248   2.575   3.077   1.202  2.4969 -0.7587 -0.0394
17253TIP3   OH273249   0.454   0.414  15.220  0.5726 -0.1573  0.1728
17253TIP3    H173250   0.544   0.413  15.190  0.7301  0.4428  0.6061
17253TIP3    H273251   0.454   0.359  15.298  0.2728 -1.2804 -0.5984
17254TIP3   OH273252   5.106   1.055   5.676  0.0652 -0.1485 -0.1875
17254TIP3    H173253   5.200   1.049   5.656  0.3483 -0.5202  1.1870
17254TIP3    H273254   5.092   1.148   5.693  0.3795 -0.2104  0.4550
17255TIP3   OH273255   5.152   3.687  16.075 -0.1873  0.5508 -0.4038
17255TIP3    H173256   5.181   3.596  16.071  0.2280  0.5899  1.1558
17255TIP3    H273257   5.191   3.728  15.998  1.4171 -0.1035  0.0232
17256TIP3   OH273258   0.791   2.733  11.757  0.6578  0.1637  0.0058
17256TIP3    H173259   0.706   2.773  11.737  0.3068  0.4942  2.0043
17256TIP3    H273260   0.847   2.758  11.683 -0.2840  2.0825 -0.1104
17257TIP3   OH273261   0.989   2.747   2.510  0.0946 -0.5744 -0.0795
17257TIP3    H173262   1.003   2.710   2.423  1.4500 -2.1590  0.7485
17257TIP3    H273263   0.964   2.838   2.494 -1.2527 -1.2547 -2.1501
17258TIP3   OH273264   4.854   5.096   1.866  0.4132  0.1270 -0.4116
17258TIP3    H173265   4.776   5.142   1.836  1.1012  0.4572 -1.7714
17258TIP3    H273266   4.824   5.044   1.941 -0.7132  1.5777  0.1874
17259TIP3   OH273267   0.617   3.281   5.017 -0.0053  0.2554  0.0586
17259TIP3    H173268   0.686   3.260   4.954  0.5836  0.4928  0.6132
17259TIP3    H273269   0.588   3.196   5.051 -0.8143  0.0698 -1.0147
17260TIP3   OH273270   6.393   1.770  11.685  0.3029  0.0165 -0.4231
17260TIP3    H173271   6.457   1.716  11.729  0.9326 -0.4574 -1.8622
17260TIP3    H273272   6.411   1.859  11.715  0.7586 -0.2798  0.1858
17261TIP3   OH273273   3.346   0.693  15.931 -0.0352  0.4545 -0.4019
17261TIP3    H173274   3.291   0.770  15.940 -2.3279 -1.2339  1.1875
17261TIP3    H273275   3.379   0.675  16.019  2.1393  0.6922 -1.0912
17262TIP3   OH273276   4.225   1.758   4.272 -0.3362 -0.0254 -0.1000
17262TIP3    H173277   4.288   1.738   4.203  0.3241  0.8071  0.2489
17262TIP3    H273278   4.251   1.702   4.346 -1.5238 -1.5182 -0.7345
17263TIP3   OH273279   2.150   5.136  14.332 -0.6043 -0.3481 -0.4984
17263TIP3    H173280   2.101   5.213  14.303 -0.0945  0.0593 -0.3014
17263TIP3    H273281   2.093   5.095  14.397 -0.1737  0.8403  0.6938
17264TIP3   OH273282   1.799   1.779   1.927  0.3636 -0.0005 -0.1383
17264TIP3    H173283   1.788   1.873   1.916  0.3593 -0.0107 -0.2275
17264TIP3    H273284   1.877   1.758   1.874  0.4623 -0.0203  0.0152
17265TIP3   OH273285   5.242   1.188   0.962 -0.3859 -0.3258 -0.4936
17265TIP3    H173286   5.324   1.236   0.952 -0.8503  0.4758 -0.6220
17265TIP3    H273287   5.241   1.161   1.054 -0.6404  0.9495 -0.0952
17266TIP3   OH273288   6.203   3.807   2.675  0.4409  0.9729 -0.3292
17266TIP3    H173289   6.169   3.810   2.585  0.7985  0.4336 -0.4888
17266TIP3    H273290   6.174   3.722   2.709  1.3552  0.6327 -0.3662
17267TIP3   OH273291   3.954   2.504   4.681  0.1217 -0.2130  0.2603
17267TIP3    H173292   4.027   2.523   4.622  0.0252 -0.9660 -0.1031
17267TIP3    H273293   3.996   2.481   4.764  0.3113 -0.9744 -0.0428
17268TIP3   OH273294   0.617   1.386  14.388  0.2065  0.4174  0.3362
17268TIP3    H173295   0.612   1.482  14.380  0.3794  0.4763  0.8743
17268TIP3    H273296   0.555   1.353  14.323 -1.6401  0.9411  1.7409
17269TIP3   OH273297   6.780   4.397   5.736  0.2746 -0.0691 -0.4491
17269TIP3    H173298   6.790   4.423   5.828  1.7223 -1.8455 -0.0519
17269TIP3    H273299   6.687   4.375   5.727  0.6203 -2.8553  1.5002
17270TIP3   OH273300   2.623   0.965   4.852  0.1699  0.3708  0.3811
17270TIP3    H173301   2.650   0.877   4.827  1.8177  0.3890  1.8940
17270TIP3    H273302   2.528   0.962   4.850  0.1230 -1.9490  1.9098
17271TIP3   OH273303   1.198   2.449   5.573 -0.1398 -0.2830  0.0701
17271TIP3    H173304   1.185   2.543   5.588 -1.8242 -0.1497 -1.7898
17271TIP3    H273305   1.235   2.444   5.485  1.6490 -1.3282  0.8328
17272TIP3   OH273306   2.990   2.900   4.098 -0.1195  0.0504 -0.3558
17272TIP3    H173307   2.976   2.833   4.165 -2.2365  0.9904  0.2389
17272TIP3    H273308   3.081   2.928   4.111 -0.0372 -0.8044  1.1801
17273TIP3   OH273309   2.959   5.218   3.866 -0.1293  0.0058  0.3693
17273TIP3    H173310   2.905   5.141   3.881 -1.7700  0.7525 -1.2091
17273TIP3    H273311   2.919   5.260   3.789  0.0927  2.9255  1.7238
17274TIP3   OH273312   4.170   4.939   2.561 -0.2470  0.1013 -0.2323
17274TIP3    H173313   4.177   5.027   2.523 -0.1193  1.4383  2.5927
17274TIP3    H273314   4.083   4.938   2.602 -0.3070 -1.1607 -0.3646
17275TIP3   OH273315   1.415   5.089  14.223 -0.0824 -0.8117 -0.5822
17275TIP3    H173316   1.490   5.146  14.237  0.6627 -1.3067 -2.2642
17275TIP3    H273317   1.453   5.002  14.208 -1.1921 -1.8653  2.0786
17276TIP3   OH273318   4.122   5.533  14.523  0.1052 -0.0494  0.7334
17276TIP3    H173319   4.055   5.601  14.521  1.2548  1.2311  2.6927
17276TIP3    H273320   4.204   5.580  14.508  0.7022 -1.3824 -0.2857
17277TIP3   OH273321   0.995   0.647  14.072 -0.1813 -0.1229 -0.4967
17277TIP3    H173322   0.943   0.727  14.059 -0.6206 -0.4115 -0.5226
17277TIP3    H273323   1.047   0.641  13.992  1.6210  1.4205  0.4820
17278TIP3   OH273324   0.374   3.575   3.886  0.0988 -0.0165 -0.1072
17278TIP3    H173325   0.430   3.641   3.927  0.9957 -1.0058  0.3061
17278TIP3    H273326   0.423   3.493   3.893 -0.4317 -0.5146 -1.7417
17279TIP3   OH273327   5.377   6.291  15.606  0.0230 -0.1692 -0.5437
17279TIP3    H173328   5.372   6.358  15.538  2.7697  0.3694 -0.3456
17279TIP3    H273329   5.454   6.239  15.583 -0.1350 -1.1958  1.0914
17280TIP3   OH273330   0.548   6.480  12.722  0.0298  0.2515  0.2307
17280TIP3    H173331   0.475   6.529  12.759 -0.4521 -0.8773  0.8174
17280TIP3    H273332   0.613   6.547  12.699  0.0027  1.0689  2.3317
17281TIP3   OH273333   4.830   1.182  14.448  0.3069 -0.4013 -0.0892
17281TIP3    H173334   4.765   1.233  14.496 -1.0503 -1.7075 -0.4653
17281TIP3    H273335   4.900   1.244  14.429 -1.1111  1.2356 -0.2106
17282TIP3   OH273336   5.790   5.449  13.406  0.1910 -0.4825 -0.6141
17282TIP3    H173337   5.758   5.392  13.476  0.9621  1.1419  1.1482
17282TIP3    H273338   5.879   5.418  13.389  0.2905 -0.3772 -0.2911
17283TIP3   OH273339   5.440   2.624  12.756  0.0973 -0.4559 -0.2983
17283TIP3    H173340   5.442   2.712  12.716 -1.8582  0.1125  0.7493
17283TIP3    H273341   5.446   2.564  12.681  0.8994  0.5492 -1.0767
17284TIP3   OH273342   5.636   0.957  16.675 -0.3823  0.0104  0.0882
17284TIP3    H173343   5.611   1.049  16.688 -0.6573 -0.1304  0.6043
17284TIP3    H273344   5.647   0.923  16.764 -0.8562 -0.6090 -0.0832
17285TIP3   OH273345   2.726   0.451  16.815  0.3402 -0.0060  0.3556
17285TIP3    H173346   2.772   0.518  16.764  0.5727 -1.2447 -1.1401
17285TIP3    H273347   2.764   0.368  16.785 -1.2082 -0.9228  0.8387
17286TIP3   OH273348   4.969   5.992  13.952  0.1473  0.0223 -0.1323
17286TIP3    H173349   4.936   5.936  14.023 -1.5446  0.6029 -0.4167
17286TIP3    H273350   4.916   5.969  13.876 -1.1396  2.4612 -0.0831
17287TIP3   OH273351   3.212   3.509  16.435  0.4753 -0.5684 -0.8296
17287TIP3    H173352   3.215   3.494  16.340  2.3042 -1.1092 -0.7302
17287TIP3    H273353   3.146   3.448  16.467 -0.1462 -0.3966 -1.7382
17288TIP3   OH273354   6.266   2.157   3.714  0.1088  0.6780  0.3990
17288TIP3    H173355   6.313   2.074   3.704  0.3404  0.6970  1.1902
17288TIP3    H273356   6.176   2.131   3.734  0.3460  0.5851  1.4292
17289TIP3   OH273357   1.638   1.953  15.410  0.1709  0.2285 -0.5192
17289TIP3    H173358   1.562   1.926  15.358  0.5214 -0.9841 -0.4375
17289TIP3    H273359   1.713   1.915  15.364  0.4328 -1.6367  1.2820
17290TIP3   OH273360   3.404   4.913  16.260 -0.4156  0.0810  0.0984
17290TIP3    H173361   3.422   4.881  16.171 -1.8857 -1.1354  0.2034
17290TIP3    H273362   3.329   4.862  16.289  1.6889 -1.6085  3.1286
17291TIP3   OH273363   1.822   0.894  16.141 -0.3512 -0.1950  0.2314
17291TIP3    H173364   1.879   0.822  16.115 -0.1825  0.1403 -0.3352
17291TIP3    H273365   1.767   0.910  16.064 -1.8095 -1.0684  1.0221
17292TIP3   OH273366   2.618   1.646  15.778  0.0045 -0.3639 -0.0961
17292TIP3    H173367   2.609   1.702  15.701 -2.2759 -0.8413 -0.2467
17292TIP3    H273368   2.536   1.657  15.826  0.2555 -2.1389  0.8470
17293TIP3   OH273369   0.243   5.021  17.110  0.3365 -0.7293 -0.3593
17293TIP3    H173370   0.255   5.100  17.162  1.3682  0.3070 -2.0946
17293TIP3    H273371   0.278   5.042  17.024 -1.0832 -2.4643 -1.4524
17294TIP3   OH273372   2.916   6.404  11.743  0.4500  0.1005 -0.4114
17294TIP3    H173373   2.899   6.351  11.665  0.7865  1.3090 -1.3334
17294TIP3    H273374   3.003   6.440  11.729 -0.4119  2.2326 -0.6265
17295TIP3   OH273375   0.099   5.237   5.331  0.0139  0.3608  0.0182
17295TIP3    H173376   0.057   5.173   5.273 -1.3936 -0.4011  1.7718
17295TIP3    H273377   0.192   5.230   5.311 -0.2504 -1.2450 -0.8240
17296TIP3   OH273378   5.167   3.126   3.780  0.4359  0.0113 -0.0791
17296TIP3    H173379   5.249   3.169   3.804  0.7799  0.4193 -1.8390
17296TIP3    H273380   5.099   3.186   3.811  0.8253  0.1573  0.5018
17297TIP3   OH273381   6.399   0.825  14.810  0.1309  0.0506 -0.4862
17297TIP3    H173382   6.428   0.897  14.866  2.8465 -1.0616 -0.2846
17297TIP3    H273383   6.366   0.867  14.731  0.2647  1.5331  0.2195
17298TIP3   OH273384   2.592   6.220   2.834 -0.3642 -0.2840 -0.3794
17298TIP3    H173385   2.586   6.131   2.801  0.5583 -0.0081 -1.3200
17298TIP3    H273386   2.534   6.271   2.777  0.0524 -0.0728 -0.6178
17299TIP3   OH273387   5.309   2.744   4.853 -0.0889  0.2804 -0.4434
17299TIP3    H173388   5.319   2.837   4.871  1.4053 -0.1732  1.2625
17299TIP3    H273389   5.241   2.715   4.914  2.0014 -0.4026  1.7226
17300TIP3   OH273390   3.375   6.538  11.634  0.0931 -0.3157 -0.0372
17300TIP3    H173391   3.384   6.448  11.667  0.9257 -0.1609  0.1633
17300TIP3    H273392   3.462   6.561  11.601 -0.3297  0.1059 -0.9055
17301TIP3   OH273393   2.390   3.980   6.109  0.8427  0.2399 -0.1987
17301TIP3    H173394   2.337   3.925   6.166  0.9883 -0.5583 -0.8230
17301TIP3    H273395   2.377   4.069   6.143  2.6260 -0.3960  2.4180
17302TIP3   OH273396   2.799   0.559   5.557  0.2212  0.4423 -0.0303
17302TIP3    H173397   2.732   0.607   5.605  1.0328  0.7960  0.7956
17302TIP3    H273398   2.875   0.559   5.616  1.0647  0.3836 -1.0817
17303TIP3   OH273399   2.086   6.820   5.663 -0.4315  0.1344  0.3358
17303TIP3    H173400   2.020   6.882   5.694 -0.3949  1.3724 -1.8206
17303TIP3    H273401   2.169   6.861   5.686 -0.4026  1.1028 -1.3313
17304TIP3   OH273402   1.202   0.449  13.619  0.4918  0.1015 -1.0054
17304TIP3    H173403   1.220   0.371  13.671 -0.8436 -0.3278 -1.1437
17304TIP3    H273404   1.242   0.431  13.534 -0.3233 -0.7060 -1.2312
17305TIP3   OH273405   2.172   1.470  15.398  0.1568  0.3065 -0.1404
17305TIP3    H173406   2.179   1.477  15.493 -0.2673 -2.0269  0.1277
17305TIP3    H273407   2.078   1.460  15.381  0.0559  2.1541 -0.9953
17306TIP3   OH273408   5.820   1.109  15.041  0.0976 -0.2431  0.0143
17306TIP3    H173409   5.797   1.032  15.091 -1.6449  0.1819 -0.0567
17306TIP3    H273410   5.825   1.180  15.106 -1.9308  0.2606 -0.3053
17307TIP3   OH273411   1.620   4.380  11.136  0.9347 -0.0754  0.2839
17307TIP3    H173412   1.704   4.423  11.124  0.0097  1.8117  0.1370
17307TIP3    H273413   1.561   4.426  11.077 -0.2425 -1.2705  0.4727
17308TIP3   OH273414   6.001   2.368   2.691  0.3487 -0.2979  0.3760
17308TIP3    H173415   6.080   2.313   2.681  1.0550  0.7769 -0.1260
17308TIP3    H273416   5.956   2.360   2.607  0.2642 -0.3687  0.4266
17309TIP3   OH273417   1.445   6.128   3.581  0.0422 -0.4287 -0.2143
17309TIP3    H173418   1.358   6.160   3.603  1.2455  2.5779  0.5933
17309TIP3    H273419   1.453   6.045   3.627 -2.1990 -0.5547  0.0438
17310TIP3   OH273420   1.464   2.080  13.787  0.4695  0.2073 -0.8215
17310TIP3    H173421   1.497   2.050  13.872 -2.0772 -3.2478 -0.8335
17310TIP3    H273422   1.391   2.138  13.809  0.0879 -0.3403 -0.6122
17311TIP3   OH273423   0.429   3.587   2.082  0.5191  0.2638  0.1154
17311TIP3    H173424   0.425   3.564   1.989 -1.3653  0.7576  0.0460
17311TIP3    H273425   0.343   3.565   2.117  0.9621  0.7558  1.5974
17312TIP3   OH273426   3.380   4.592  11.198  0.0351 -0.0482  0.2392
17312TIP3    H173427   3.374   4.499  11.217  2.6493 -0.1146  1.0644
17312TIP3    H273428   3.434   4.628  11.269  0.1514  1.8507 -0.7462
17313TIP3   OH273429   6.463   2.733  13.499  0.8232 -0.2317 -0.3054
17313TIP3    H173430   6.455   2.828  13.505  1.5034 -0.1805 -0.1252
17313TIP3    H273431   6.384   2.699  13.542 -0.7431  0.2448 -2.6452
17314TIP3   OH273432   5.930   5.712   5.045  0.2259 -0.1675  0.2601
17314TIP3    H173433   6.024   5.728   5.053  0.1129 -0.2229  2.1169
17314TIP3    H273434   5.915   5.701   4.951  2.0141  0.1461 -0.0893
17315TIP3   OH273435   2.457   0.281  15.339  0.2709  0.2114  0.5419
17315TIP3    H173436   2.362   0.294  15.348  0.1423 -0.6940  0.5159
17315TIP3    H273437   2.484   0.349  15.277 -0.3509  0.5118  0.5881
17316TIP3   OH273438   2.504   0.423   5.481 -0.0163 -0.3816 -0.2003
17316TIP3    H173439   2.578   0.464   5.526  0.0560 -0.3866 -0.3135
17316TIP3    H273440   2.533   0.333   5.464 -0.9555 -1.1667  1.9367
17317TIP3   OH273441   1.537   4.321   6.228  0.1267  0.8790 -0.1548
17317TIP3    H173442   1.453   4.304   6.185  0.0788  1.5770 -0.3441
17317TIP3    H273443   1.579   4.388   6.174  0.0527  1.7893  0.8760
17318TIP3   OH273444   2.612   0.274  13.204 -0.3980  0.2783 -0.2180
17318TIP3    H173445   2.651   0.229  13.129 -0.6806  0.2453 -0.3447
17318TIP3    H273446   2.538   0.220  13.229 -0.6652  0.6030 -0.2911
17319TIP3   OH273447   0.769   4.756   2.084 -0.2942  0.0783  0.0810
17319TIP3    H173448   0.718   4.718   2.012 -0.8449 -1.7225  1.3509
17319TIP3    H273449   0.860   4.736   2.063 -0.4581 -0.4959 -0.1110
17320TIP3   OH273450   4.282   2.193   3.525 -0.3460 -0.5862  0.4268
17320TIP3    H173451   4.322   2.107   3.538  0.9524  0.1734  1.8224
17320TIP3    H273452   4.281   2.205   3.430  0.7761 -1.5514  0.2641
17321TIP3   OH273453   2.863   3.054   5.276  0.0306 -0.5898 -0.0887
17321TIP3    H173454   2.946   3.015   5.249 -0.4403  0.6643 -3.9668
17321TIP3    H273455   2.874   3.148   5.261 -1.8092 -0.2960  0.1815
17322TIP3   OH273456   4.397   4.650  13.781  0.6417 -0.3086 -0.2866
17322TIP3    H173457   4.356   4.570  13.814  0.6445 -0.7754 -1.3476
17322TIP3    H273458   4.323   4.707  13.760  0.4839 -1.0313 -1.9040
17323TIP3   OH273459   0.806   5.884  15.749  0.2955  0.0350 -0.1488
17323TIP3    H173460   0.748   5.933  15.807  0.6390 -0.3447  0.5158
17323TIP3    H273461   0.748   5.822  15.704 -0.1220  0.9490 -0.9106
17324TIP3   OH273462   1.599   3.972   0.203  0.1419  0.0180  0.2281
17324TIP3    H173463   1.623   3.971   0.295  1.9699  1.6257 -0.1560
17324TIP3    H273464   1.678   3.942   0.157  0.2342  1.7852 -0.9043
17325TIP3   OH273465   1.900   0.201  16.900 -0.2001 -0.2912  0.2832
17325TIP3    H173466   1.906   0.239  16.812 -2.9581 -2.1023 -0.8542
17325TIP3    H273467   1.862   0.270  16.954 -2.0150 -0.2807 -0.9218
17326TIP3   OH273468   6.647   2.661   2.527  0.3283  0.3698 -0.0189
17326TIP3    H173469   6.671   2.727   2.592  0.7254 -0.2378  0.4644
17326TIP3    H273470   6.698   2.584   2.551 -2.4132 -1.1643  1.3314
17327TIP3   OH273471   2.441   5.768   2.847  0.0935  0.3265  0.4589
17327TIP3    H173472   2.436   5.699   2.913  0.3140 -0.4296 -0.2974
17327TIP3    H273473   2.361   5.759   2.796 -1.1022  2.2546  1.8807
17328TIP3   OH273474   4.112   0.924   5.642  0.1549  0.1962  0.1316
17328TIP3    H173475   4.195   0.883   5.617  0.3135  0.4596  0.2266
17328TIP3    H273476   4.122   0.947   5.734 -0.5724 -1.1113  0.5615
17329TIP3   OH273477   6.590   0.924  16.576  0.1218 -0.1074 -0.1164
17329TIP3    H173478   6.533   0.879  16.639 -0.0652 -0.2689 -0.3989
17329TIP3    H273479   6.662   0.863  16.561 -0.0524 -0.2505 -0.3808
17330TIP3   OH273480   5.954   5.109   3.129  0.3953  0.4231  0.5272
17330TIP3    H173481   6.003   5.191   3.135  0.7275  0.1647  1.7211
17330TIP3    H273482   5.863   5.133   3.145  0.1387  0.8598 -1.3743
17331TIP3   OH273483   2.108   6.226   4.830  0.7887  0.3592 -0.3088
17331TIP3    H173484   2.058   6.250   4.908  0.2532 -1.6994  0.0500
17331TIP3    H273485   2.200   6.236   4.856  0.6081  0.2023  0.4078
17332TIP3   OH273486   2.144   1.160   3.749  0.0071 -0.5745 -0.2837
17332TIP3    H173487   2.055   1.136   3.723  0.2950 -2.6286  0.4381
17332TIP3    H273488   2.182   1.199   3.670 -0.6887 -2.1806 -1.4675
17333TIP3   OH273489   4.718   5.030  12.868  0.2053  0.3374 -0.0620
17333TIP3    H173490   4.672   5.017  12.785 -0.0204 -1.7900  0.3292
17333TIP3    H273491   4.654   5.071  12.926 -0.0118  0.7345 -0.5743
17334TIP3   OH273492   3.898   4.077  10.529 -0.2373 -0.0513  0.3259
17334TIP3    H173493   3.823   4.130  10.554 -2.0585 -1.8295 -1.0432
17334TIP3    H273494   3.947   4.131  10.467 -1.0739  0.6979  0.3091
17335TIP3   OH273495   2.554   4.655   1.826 -0.4547  0.0238  0.0236
17335TIP3    H173496   2.517   4.717   1.764 -2.1804 -0.7314  0.2316
17335TIP3    H273497   2.642   4.637   1.793 -1.2346 -0.1734 -2.0942
17336TIP3   OH273498   4.388   6.723   3.318 -0.3508 -0.7543  0.0013
17336TIP3    H173499   4.339   6.667   3.377  1.8403 -1.6371  1.1093
17336TIP3    H273500   4.424   6.664   3.252 -0.2319 -0.2335 -0.4120
17337TIP3   OH273501   6.450   6.196  14.417  0.1062  0.3308 -0.1847
17337TIP3    H173502   6.534   6.235  14.442 -1.0173  1.3245  2.4664
17337TIP3    H273503   6.403   6.267  14.373 -0.8165  1.1709  2.0071
17338TIP3   OH273504   5.431   5.942   0.759  0.0127  0.0312  0.3183
17338TIP3    H173505   5.352   5.966   0.807  0.0633 -1.1227  1.0240
17338TIP3    H273506   5.405   5.865   0.708  0.4049  0.2714 -0.2512
17339TIP3   OH273507   3.336   3.823  13.287 -0.0843 -0.0459  0.0560
17339TIP3    H173508   3.429   3.800  13.279  0.2129  1.4909 -1.6130
17339TIP3    H273509   3.334   3.892  13.354 -0.3307 -1.3824  1.4918
17340TIP3   OH273510   3.772   5.962  12.035  0.2978 -0.3687  0.7088
17340TIP3    H173511   3.745   6.049  12.064  0.6166  0.7444 -2.0064
17340TIP3    H273512   3.690   5.916  12.017  0.0240  0.8877 -1.7259
17341TIP3   OH273513   5.239   4.802   4.991  0.1347 -0.2482  0.2406
17341TIP3    H173514   5.240   4.741   4.917 -0.6341  0.8698 -0.7232
17341TIP3    H273515   5.162   4.776   5.042  1.0025 -1.4008  1.0090
17342TIP3   OH273516   3.759   2.189   4.482  0.4878 -0.2269  0.4506
17342TIP3    H173517   3.823   2.126   4.517  0.2906 -0.3973  0.5045
17342TIP3    H273518   3.761   2.175   4.388  0.8617  0.0829  0.4102
17343TIP3   OH273519   3.422   6.534   4.452 -1.0302  0.0786 -0.2780
17343TIP3    H173520   3.463   6.505   4.370 -0.3362 -0.2475  0.1791
17343TIP3    H273521   3.358   6.465   4.472 -0.0223 -0.7028  0.3283
17344TIP3   OH273522   3.499   4.960  15.447  0.4406  0.3890  0.3214
17344TIP3    H173523   3.561   4.904  15.401 -0.0498  0.0621  0.0597
17344TIP3    H273524   3.419   4.908  15.454 -1.0582  2.0652 -2.5645
17345TIP3   OH273525   2.176   4.085  14.162  0.1246  0.4616 -0.1694
17345TIP3    H173526   2.097   4.041  14.193  0.6086 -0.4395 -0.1616
17345TIP3    H273527   2.190   4.052  14.074  0.8973  0.0212  0.1000
17346TIP3   OH273528   3.188   5.127  14.396  0.2647 -0.2001 -0.4527
17346TIP3    H173529   3.136   5.075  14.333 -1.0664  1.8197 -1.1101
17346TIP3    H273530   3.123   5.166  14.454  0.9514  2.6095 -1.4358
17347TIP3   OH273531   1.982   3.546   3.854  0.1908  0.3514 -0.0794
17347TIP3    H173532   1.975   3.468   3.800  0.1559 -0.5366  1.1594
17347TIP3    H273533   2.074   3.552   3.878  0.0016  0.0277  0.7582
17348TIP3   OH273534   1.635   3.889  15.897 -0.5184 -0.7383  0.7199
17348TIP3    H173535   1.539   3.889  15.902 -0.5299  0.6016  0.8959
17348TIP3    H273536   1.660   3.979  15.918  0.5447  0.1165 -3.2921
17349TIP3   OH273537   6.346   4.129  14.947  0.3489  0.0086 -0.1389
17349TIP3    H173538   6.415   4.174  14.996  0.5107 -0.1133 -0.2571
17349TIP3    H273539   6.385   4.110  14.862 -0.9499  3.2374 -1.6494
17350TIP3   OH273540   4.468   3.201   0.457 -0.2547  0.5157 -0.6681
17350TIP3    H173541   4.525   3.130   0.486 -0.9101 -0.3056 -1.3315
17350TIP3    H273542   4.386   3.188   0.506  0.5187  2.5070  1.3423
17351TIP3   OH273543   4.834   1.232   4.865 -0.0711  0.3854 -0.1799
17351TIP3    H173544   4.859   1.297   4.801 -1.0378  0.7754 -0.1811
17351TIP3    H273545   4.745   1.206   4.840 -0.2123  0.0666  0.6048
17352TIP3   OH273546   1.667   6.152  14.290  0.0018  0.2444  0.2683
17352TIP3    H173547   1.587   6.152  14.341  0.0482 -0.5841  0.3521
17352TIP3    H273548   1.677   6.243  14.261 -1.7826  0.0791 -1.0407
17353TIP3   OH273549   1.383   3.430  15.375 -0.2188 -0.0588 -0.7992
17353TIP3    H173550   1.318   3.379  15.423 -1.0722  1.6441 -0.0617
17353TIP3    H273551   1.334   3.504  15.340  1.1786  0.8582 -0.8912
17354TIP3   OH273552   4.066   4.811  12.617  0.5035 -0.3807 -0.0828
17354TIP3    H173553   4.079   4.901  12.587  1.0535  0.1736  1.6569
17354TIP3    H273554   3.989   4.815  12.674  1.3186 -0.6914  1.0929
17355TIP3   OH273555   6.326   1.002   3.321 -0.4238 -0.0351 -0.0407
17355TIP3    H173556   6.264   1.002   3.395 -0.7393 -1.4353 -0.2789
17355TIP3    H273557   6.410   0.979   3.361 -0.2600  0.8188  0.1206
17356TIP3   OH273558   2.264   3.893  13.527 -0.3676 -0.3164 -0.0564
17356TIP3    H173559   2.312   3.974  13.547  0.2070  0.3804 -3.6546
17356TIP3    H273560   2.185   3.899  13.581  0.4303  1.8046  1.0252
17357TIP3   OH273561   4.043   1.834   4.066 -0.1255 -0.3845 -0.5999
17357TIP3    H173562   4.066   1.813   4.157  0.5674  1.0234 -0.4267
17357TIP3    H273563   3.958   1.878   4.072  1.1721  2.2696 -0.2668
17358TIP3   OH273564   3.199   3.732  15.284 -0.0592  0.5585 -0.0207
17358TIP3    H173565   3.161   3.645  15.291 -0.5497  0.5468 -2.0080
17358TIP3    H273566   3.293   3.717  15.274 -0.1273  0.2654 -0.2233
17359TIP3   OH273567   2.298   5.217  16.411 -0.3385 -0.3737  0.3682
17359TIP3    H173568   2.270   5.222  16.320  2.0044  1.7223 -0.3642
17359TIP3    H273569   2.238   5.276  16.458  0.7751  1.6823 -0.6238
17360TIP3   OH273570   2.587   5.904  11.562 -0.4106 -0.3048 -0.0129
17360TIP3    H173571   2.611   5.946  11.480  1.8602 -0.8390  0.2799
17360TIP3    H273572   2.590   5.811  11.543 -1.1305 -0.4060  0.3630
17361TIP3   OH273573   2.300   1.185  15.736 -0.5867 -0.0766  0.0484
17361TIP3    H173574   2.357   1.258  15.709  0.0526  0.1169  1.7981
17361TIP3    H273575   2.326   1.113  15.680  0.3290  0.4445 -0.2305
17362TIP3   OH273576   5.645   0.995  15.456 -0.5099 -0.2874 -0.1725
17362TIP3    H173577   5.592   1.071  15.432 -1.2412 -1.0301 -0.9790
17362TIP3    H273578   5.680   0.964  15.372  0.9255 -0.0308  0.3068
17363TIP3   OH273579   3.109   1.758   2.559  0.1887 -0.1388 -0.3562
17363TIP3    H173580   3.123   1.828   2.623 -0.2766 -1.2340  1.0159
17363TIP3    H273581   3.031   1.785   2.510  0.9416  1.0340 -0.9329
17364TIP3   OH273582   2.824   0.885   5.074  0.3934 -0.0453  0.1888
17364TIP3    H173583   2.871   0.856   4.996  0.3338 -1.5170  0.6846
17364TIP3    H273584   2.743   0.923   5.040  0.8201  0.2486 -0.5155
17365TIP3   OH273585   6.737   2.791  12.275  0.5605  0.0338  0.9522
17365TIP3    H173586   6.761   2.716  12.329 -0.6450  0.8382  2.6859
17365TIP3    H273587   6.655   2.765  12.232  0.9491 -0.1914  0.3232
17366TIP3   OH273588   1.388   5.089  11.830 -0.0375  0.5941 -0.0679
17366TIP3    H173589   1.396   5.184  11.832  0.5617  0.5693 -0.7802
17366TIP3    H273590   1.311   5.070  11.883 -1.3106  1.6194 -1.4491
17367TIP3   OH273591   5.481   6.796  14.903 -0.2294 -0.2725 -0.4389
17367TIP3    H173592   5.441   6.875  14.938  1.6990  0.8115 -0.5277
17367TIP3    H273593   5.536   6.763  14.974 -0.9124 -1.5091 -0.4414
17368TIP3   OH273594   2.710   4.920   6.066  0.3399  0.3147  0.9335
17368TIP3    H173595   2.798   4.891   6.090  0.9615  1.1287 -0.2455
17368TIP3    H273596   2.654   4.844   6.084  1.5067 -0.7312  0.3450
17369TIP3   OH273597   5.334   3.057  14.859  0.1451  0.4169  0.7565
17369TIP3    H173598   5.338   3.148  14.828 -0.3616  0.4670  0.8209
17369TIP3    H273599   5.368   3.061  14.948 -1.4135  0.8561  1.3750
17370TIP3   OH273600   5.550   5.294   4.373 -0.5005  0.0800 -0.4203
17370TIP3    H173601   5.632   5.340   4.389  0.0814 -0.8009 -0.8308
17370TIP3    H273602   5.488   5.364   4.351  0.2838  0.7031 -0.7089
17371TIP3   OH273603   6.265   1.331   4.945 -0.2124 -0.8900 -0.2215
17371TIP3    H173604   6.265   1.296   5.035 -0.1092  0.1324  0.1881
17371TIP3    H273605   6.358   1.342   4.924 -0.2445 -0.9095 -0.3730
17372TIP3   OH273606   5.565   3.773  13.878 -0.1008  0.7066 -0.0527
17372TIP3    H173607   5.597   3.851  13.832 -0.4687  1.8672  1.5839
17372TIP3    H273608   5.579   3.792  13.971 -0.2341 -1.1774  0.3962
17373TIP3   OH273609   0.436   1.886  15.816  0.4855 -0.1741 -0.0764
17373TIP3    H173610   0.414   1.837  15.895  1.6604 -1.9139 -0.7807
17373TIP3    H273611   0.362   1.873  15.758 -0.2139  0.8007  0.5659
17374TIP3   OH273612   3.907   0.471   2.475 -0.3357  0.3123 -1.1818
17374TIP3    H173613   3.969   0.543   2.462 -0.2616  0.7065  0.9168
17374TIP3    H273614   3.947   0.396   2.432  1.3141  0.7222 -0.4630
17375TIP3   OH273615   0.485   0.453  11.084  0.1092  0.9055 -0.1420
17375TIP3    H173616   0.564   0.470  11.034 -0.7183 -1.7615 -2.6292
17375TIP3    H273617   0.416   0.499  11.036 -0.3573  0.2417 -0.1300
17376TIP3   OH273618   1.293   0.629   2.071 -0.1693  0.1285 -0.7854
17376TIP3    H173619   1.307   0.562   2.004  1.9236 -0.5330  0.2084
17376TIP3    H273620   1.294   0.581   2.154 -2.3749  0.9655 -0.2149
17377TIP3   OH273621   4.188   5.337  14.911 -0.1959  0.0531  0.4655
17377TIP3    H173622   4.104   5.324  14.956 -0.2829 -0.2597  0.2177
17377TIP3    H273623   4.209   5.429  14.925 -1.5921  0.6727 -1.2270
17378TIP3   OH273624   3.078   3.767  12.911  0.1777 -0.3633 -0.1208
17378TIP3    H173625   3.077   3.743  12.818  0.4059 -0.5396 -0.0785
17378TIP3    H273626   3.170   3.787  12.930  0.4309 -1.9708  0.4810
17379TIP3   OH273627   5.248   5.540   2.158  0.1348  0.7296 -0.5638
17379TIP3    H173628   5.261   5.470   2.094 -0.6536 -0.8154  0.8855
17379TIP3    H273629   5.159   5.571   2.141 -0.0396  0.3848 -0.2972
17380TIP3   OH273630   5.698   1.097   1.399 -0.3682  0.4482 -0.3334
17380TIP3    H173631   5.685   1.072   1.308 -0.9987 -0.1082 -0.0930
17380TIP3    H273632   5.790   1.124   1.404 -0.9104  2.7978 -1.6736
17381TIP3   OH273633   1.722   0.965   4.332  0.1788 -0.0288  0.0932
17381TIP3    H173634   1.682   0.879   4.318 -1.5358  1.0389 -2.2082
17381TIP3    H273635   1.682   0.996   4.414  0.1248 -1.0331  0.4637
17382TIP3   OH273636   3.707   1.987  16.891  0.1452 -0.2671 -0.2246
17382TIP3    H173637   3.718   1.911  16.833 -0.2921 -1.2583  0.9615
17382TIP3    H273638   3.794   2.024  16.899  0.6702 -1.5642  0.3931
17383TIP3   OH273639   3.799   0.570  16.470  1.0910 -0.3079  0.3334
17383TIP3    H173640   3.746   0.496  16.500 -1.6770  1.6171  0.6400
17383TIP3    H273641   3.803   0.560  16.375  1.7253 -1.4106  0.4643
17384TIP3   OH273642   4.782   2.810   6.118  0.7562 -0.4700  0.5226
17384TIP3    H173643   4.858   2.846   6.162 -0.1557  1.3858  0.6587
17384TIP3    H273644   4.726   2.778   6.189  0.0033  1.0696  0.6483
17385TIP3   OH273645   2.399   4.633   0.241 -0.0815 -0.3181  1.1366
17385TIP3    H173646   2.479   4.589   0.271  0.0078 -1.1254 -0.2128
17385TIP3    H273647   2.410   4.724   0.268  1.5615 -0.2910  0.4990
17386TIP3   OH273648   3.758   1.276   5.143  0.8890  0.4717 -0.2381
17386TIP3    H173649   3.727   1.228   5.220  2.7411  0.7953  0.7554
17386TIP3    H273650   3.813   1.346   5.178  0.7459  1.4317 -1.8163
17387TIP3   OH273651   6.197   1.496  13.527  0.6248  0.5419 -0.1592
17387TIP3    H173652   6.265   1.500  13.594  1.0583  1.3918 -0.6356
17387TIP3    H273653   6.217   1.569  13.468 -0.7802  0.9097 -0.2232
17388TIP3   OH273654   4.687   4.062   1.406  0.0683 -0.2859  0.5815
17388TIP3    H173655   4.617   4.101   1.458  0.8868 -2.6909  3.7603
17388TIP3    H273656   4.643   4.026   1.329 -2.0328 -0.6747  1.8839
17389TIP3   OH273657   4.132   3.632   6.300  0.2812 -0.1760  0.5280
17389TIP3    H173658   4.192   3.667   6.367 -0.5913 -0.4366  1.4650
17389TIP3    H273659   4.104   3.709   6.251  0.9110  0.0266  0.4765
17390TIP3   OH273660   1.244   3.606  13.074 -0.1397  0.2841  0.3391
17390TIP3    H173661   1.164   3.639  13.032 -0.1786  0.5552  0.6205
17390TIP3    H273662   1.218   3.521  13.111 -0.4064  0.5468  0.7639
17391TIP3   OH273663   0.294   6.335   6.465 -0.0188 -0.2020 -0.3822
17391TIP3    H173664   0.221   6.273   6.463  0.9247 -1.3315 -0.6786
17391TIP3    H273665   0.371   6.282   6.445  0.8229  1.0663 -0.5805
17392TIP3   OH273666   6.585   1.276   5.448  0.2113 -0.0699  0.6646
17392TIP3    H173667   6.642   1.267   5.371 -0.6916  0.2971 -0.0686
17392TIP3    H273668   6.644   1.269   5.523  1.1177 -0.4099 -0.0607
17393TIP3   OH273669   2.971   1.350   5.662  0.1623  0.3441  0.5336
17393TIP3    H173670   3.014   1.273   5.626  1.7004  1.3721  0.0898
17393TIP3    H273671   2.883   1.348   5.624  1.1944  0.4902 -2.0642
17394TIP3   OH273672   0.792   3.195  16.751 -0.7071 -0.2951  0.4662
17394TIP3    H173673   0.886   3.188  16.730 -0.5747  0.6163  0.7293
17394TIP3    H273674   0.748   3.165  16.672 -0.1917 -0.3032  0.1772
17395TIP3   OH273675   0.180   3.894   4.268  0.2512 -0.4036 -0.2551
17395TIP3    H173676   0.192   3.844   4.348  1.9657  0.3531  0.0112
17395TIP3    H273677   0.144   3.832   4.205  2.2658 -2.0033  0.0733
17396TIP3   OH273678   1.815   3.574  16.814 -0.1792  1.0092 -0.5714
17396TIP3    H173679   1.754   3.611  16.750 -0.8413 -0.3786 -0.7767
17396TIP3    H273680   1.901   3.583  16.774 -0.7101 -1.2896 -2.4670
17397TIP3   OH273681   6.622   3.006  15.103 -0.4562  0.1440 -0.3276
17397TIP3    H173682   6.618   3.099  15.128 -1.3377  0.0961 -0.2789
17397TIP3    H273683   6.621   2.959  15.186 -0.2994  0.0829 -0.3605
17398TIP3   OH273684   4.164   1.841   2.606  0.7498 -0.3344 -0.4226
17398TIP3    H173685   4.192   1.933   2.606  1.5457 -0.5152 -2.4780
17398TIP3    H273686   4.103   1.834   2.680  0.7403  1.8157 -0.1671
17399TIP3   OH273687   2.443   2.059   2.793 -0.0515  0.4371  0.1947
17399TIP3    H173688   2.413   2.123   2.858 -0.6142 -0.0325  0.4039
17399TIP3    H273689   2.513   2.012   2.838 -0.1780  0.3711  0.3231
17400TIP3   OH273690   3.267   1.937   1.551  0.1085 -0.0919  0.2551
17400TIP3    H173691   3.294   1.972   1.637  0.7015  0.6386 -0.2155
17400TIP3    H273692   3.205   1.868   1.572 -1.6497  1.6679  1.2511
17401TIP3   OH273693   3.434   2.398   3.015 -0.1540 -0.2864 -0.1243
17401TIP3    H173694   3.349   2.375   2.976 -0.3249 -1.5900  0.9373
17401TIP3    H273695   3.468   2.315   3.047  0.8303  0.4642  0.8242
17402TIP3   OH273696   2.021   5.967   2.165 -0.4816  0.2999  0.0346
17402TIP3    H173697   1.972   6.022   2.226 -0.7611  0.5000 -0.3636
17402TIP3    H273698   2.032   6.022   2.087 -0.6448 -0.1586 -0.3168
17403TIP3   OH273699   5.710   2.690   5.003  0.6428  0.6574 -0.2570
17403TIP3    H173700   5.643   2.649   5.058  1.4251  1.3798  1.3281
17403TIP3    H273701   5.762   2.742   5.065  4.2408 -1.8171 -0.8860
17404TIP3   OH273702   3.667   3.652  12.701  0.2877 -0.4256 -0.3289
17404TIP3    H173703   3.741   3.714  12.696 -0.4891  0.4462 -1.6456
17404TIP3    H273704   3.708   3.567  12.712  1.5140  0.0230 -1.2053
17405TIP3   OH273705   0.380   0.636   4.545 -0.2367 -0.1880 -0.0801
17405TIP3    H173706   0.359   0.668   4.633  0.2120 -0.9397  0.3035
17405TIP3    H273707   0.433   0.706   4.507 -2.6313  1.3823 -0.7736
17406TIP3   OH273708   5.595   6.065  13.640  0.2972 -0.2048  0.2629
17406TIP3    H173709   5.538   6.082  13.715  0.2231 -1.7763  0.5918
17406TIP3    H273710   5.680   6.100  13.666  0.6600 -2.0510  1.7172
17407TIP3   OH273711   0.625   5.645  15.647 -0.7369  0.2966 -0.1386
17407TIP3    H173712   0.532   5.647  15.627 -1.8218 -2.6179  3.4819
17407TIP3    H273713   0.632   5.587  15.722  4.1464 -0.1837 -0.6420
17408TIP3   OH273714   5.818   6.802  14.267  0.2525  0.6201 -0.8321
17408TIP3    H173715   5.748   6.737  14.265  1.7408 -1.0150 -1.5588
17408TIP3    H273716   5.896   6.754  14.292  0.8247  2.8000  2.1936
17409TIP3   OH273717   1.753   4.236   5.444  0.2591 -0.2937 -0.5935
17409TIP3    H173718   1.714   4.198   5.522  0.5460  0.0587 -0.2735
17409TIP3    H273719   1.755   4.330   5.462 -0.6170 -0.0958 -1.4453
17410TIP3   OH273720   5.405   0.897   1.938 -0.2626 -0.4760  0.4080
17410TIP3    H173721   5.359   0.903   1.854 -1.4482 -0.1674  1.0700
17410TIP3    H273722   5.402   0.804   1.960 -1.9561 -0.2771  1.1790
17411TIP3   OH273723   5.858   1.203  12.563  0.2946 -0.0259  0.3575
17411TIP3    H173724   5.895   1.170  12.481  0.2170 -0.0617  0.3367
17411TIP3    H273725   5.884   1.139  12.628  0.0547 -0.1843  0.2982
17412TIP3   OH273726   1.346   1.320  14.170  1.1044 -0.1496 -0.7880
17412TIP3    H173727   1.378   1.316  14.080 -0.4095 -0.6229 -1.3401
17412TIP3    H273728   1.350   1.230  14.201  2.0894  0.0864 -0.1866
17413TIP3   OH273729   6.428   6.507  13.099  0.1353  0.3438 -0.5102
17413TIP3    H173730   6.352   6.563  13.117 -0.8334 -0.4880 -1.7611
17413TIP3    H273731   6.393   6.437  13.043  1.6887 -0.4735 -0.5165
17414TIP3   OH273732   4.408   6.412  11.603 -0.2952 -0.4558  0.2276
17414TIP3    H173733   4.425   6.424  11.509 -0.8284  0.6676  0.2490
17414TIP3    H273734   4.319   6.376  11.606  0.0450 -1.2971  0.2773
17415TIP3   OH273735   1.820   1.151  10.658  0.2197 -0.2271 -0.5287
17415TIP3    H173736   1.757   1.125  10.591 -1.2908  1.5048  0.1239
17415TIP3    H273737   1.785   1.116  10.740  0.1751  0.5971 -0.1818
17416TIP3   OH273738   3.128   3.097  15.083  0.7682 -0.3808  0.4177
17416TIP3    H173739   3.144   3.007  15.110  0.2128 -0.3071  1.0275
17416TIP3    H273740   3.194   3.148  15.131 -0.2364 -0.2469  1.7314
17417TIP3   OH273741   5.629   0.610   3.752 -0.1141  0.1123  0.2533
17417TIP3    H173742   5.707   0.555   3.765 -0.5804 -0.2345  1.8337
17417TIP3    H273743   5.655   0.697   3.782  0.3357  0.5693 -1.3709
17418TIP3   OH273744   0.494   0.489   3.530  0.0812  0.1953  0.0784
17418TIP3    H173745   0.569   0.548   3.526 -0.6986  1.2664  0.7276
17418TIP3    H273746   0.422   0.541   3.494 -0.5647 -0.4584  0.4237
17419TIP3   OH273747   4.181   2.901  16.941  0.5922 -0.2846 -0.7541
17419TIP3    H173748   4.086   2.902  16.928  0.3453  0.0367  0.8671
17419TIP3    H273749   4.211   2.823  16.894 -0.7393 -1.4946  0.3264
17420TIP3   OH273750   4.860   6.508  16.837  0.4709  0.4159 -0.7581
17420TIP3    H173751   4.842   6.415  16.853 -1.9852  0.6635 -1.5573
17420TIP3    H273752   4.920   6.509  16.763  1.6139 -0.5272  0.1242
17421TIP3   OH273753   2.190   5.791  14.947  0.0148 -0.2277  0.3231
17421TIP3    H173754   2.249   5.851  14.992 -0.3730  0.3536  0.0720
17421TIP3    H273755   2.136   5.847  14.892  0.3552 -0.9018 -0.7410
17422TIP3   OH273756   0.456   6.082  16.340 -0.2902 -0.2025 -0.1340
17422TIP3    H173757   0.510   6.154  16.374 -1.0598  0.7510 -0.8608
17422TIP3    H273758   0.443   6.025  16.415  0.4044  0.3786  0.4490
17423TIP3   OH273759   1.023   1.869   4.004  0.8868  0.1220  0.6510
17423TIP3    H173760   0.931   1.859   4.031  1.3510  0.1969  2.4205
17423TIP3    H273761   1.072   1.850   4.084  2.4100  0.2637 -0.2322
17424TIP3   OH273762   1.179   1.215  11.339  0.4940  0.1578 -0.1736
17424TIP3    H173763   1.165   1.250  11.251  0.3934  0.6208  0.0202
17424TIP3    H273764   1.100   1.238  11.387  0.8194  0.4914  0.2139
17425TIP3   OH273765   0.150   4.180  12.872 -0.6796  0.3723 -0.4337
17425TIP3    H173766   0.140   4.271  12.898  1.8579  0.5603  0.1122
17425TIP3    H273767   0.099   4.172  12.790 -1.1757  2.1613 -0.3325
17426TIP3   OH273768   0.505   0.856   4.410 -0.1363  0.0232 -0.3355
17426TIP3    H173769   0.469   0.944   4.413 -1.5712 -0.2706 -3.7951
17426TIP3    H273770   0.574   0.861   4.344 -1.6395 -1.7731 -2.1729
17427TIP3   OH273771   1.732   0.790  16.650 -0.2123  0.0882 -0.4820
17427TIP3    H173772   1.768   0.878  16.646 -0.0139  0.0718  0.5524
17427TIP3    H273773   1.741   0.765  16.742 -0.4916 -0.9150 -0.7154
17428TIP3   OH273774   1.815   3.163   2.207  0.0659 -0.9333 -0.5803
17428TIP3    H173775   1.779   3.149   2.295  0.8212  1.6885  0.2342
17428TIP3    H273776   1.740   3.194   2.155  0.2233  0.4017 -0.0344
17429TIP3   OH273777   3.038   1.721  16.163 -0.4897 -0.1094 -0.5540
17429TIP3    H173778   3.113   1.707  16.105  0.5784  0.0520  0.7306
17429TIP3    H273779   2.971   1.760  16.107 -1.2790 -4.1429 -2.8029
17430TIP3   OH273780   6.130   5.050  12.119  0.1267  0.1182  0.4823
17430TIP3    H173781   6.178   5.123  12.079 -0.2170  0.4701  0.6951
17430TIP3    H273782   6.058   5.034  12.058  0.7122 -0.6581 -0.0272
17431TIP3   OH273783   6.033   6.608  14.313 -0.0072 -0.5650  0.1563
17431TIP3    H173784   6.060   6.636  14.401 -3.3694  1.4981  0.6763
17431TIP3    H273785   5.983   6.528  14.328 -0.1935 -0.4658  0.0681
17432TIP3   OH273786   5.921   5.075   1.382 -0.0857 -0.6058 -0.0891
17432TIP3    H173787   5.909   5.162   1.344  0.2207 -0.5999 -0.1776
17432TIP3    H273788   6.016   5.066   1.390 -0.1683 -0.1384  1.7845
17433TIP3   OH273789   4.209   4.643  10.963 -0.2461  0.4379 -1.0200
17433TIP3    H173790   4.177   4.555  10.983  0.5077  0.2104 -0.7600
17433TIP3    H273791   4.221   4.684  11.049  0.9038  0.2289 -1.0535
17434TIP3   OH273792   0.196   6.110   3.898 -0.2028 -0.2832  0.0171
17434TIP3    H173793   0.271   6.157   3.934  0.1648  0.4036 -1.5630
17434TIP3    H273794   0.234   6.045   3.839 -0.8168 -0.4580 -0.1957
17435TIP3   OH273795   6.792   2.384  16.599 -0.0251  0.4334 -0.0114
17435TIP3    H173796   6.806   2.477  16.616 -0.8459  0.8240 -1.3433
17435TIP3    H273797   6.697   2.373  16.602 -0.0692  0.0437 -1.6896
17436TIP3   OH273798   5.327   2.066  12.414 -0.3326 -0.1040  0.1666
17436TIP3    H173799   5.257   2.051  12.350 -0.1313 -1.2708  0.1943
17436TIP3    H273800   5.403   2.021  12.377 -0.0029 -0.1185  0.8510
17437TIP3   OH273801   0.724   1.002   3.608  0.1630 -0.7576  0.0974
17437TIP3    H173802   0.797   0.953   3.571  0.8589 -0.3654  0.9345
17437TIP3    H273803   0.717   1.080   3.554 -1.3184 -1.9853 -1.6104
17438TIP3   OH273804   4.722   5.768  13.950  0.0646 -0.0217 -0.3878
17438TIP3    H173805   4.778   5.793  14.023 -0.1179  0.8907 -0.5449
17438TIP3    H273806   4.783   5.752  13.878  0.1096  1.5325 -0.7172
17439TIP3   OH273807   2.273   1.182   4.471 -0.1816 -0.3846 -0.0979
17439TIP3    H173808   2.279   1.199   4.565  0.8464  1.2338 -0.4176
17439TIP3    H273809   2.354   1.137   4.449 -0.3862 -0.6926 -0.2376
17440TIP3   OH273810   6.379   4.758  11.581  0.5541 -0.1279  0.0120
17440TIP3    H173811   6.400   4.733  11.491  1.0164 -0.8413  0.3039
17440TIP3    H273812   6.366   4.674  11.626  0.9593  0.2020  0.7537
17441TIP3   OH273813   4.648   6.786  12.745 -0.5560 -0.1615 -0.1464
17441TIP3    H173814   4.613   6.710  12.699 -0.0449 -1.0290  0.8772
17441TIP3    H273815   4.734   6.758  12.777  0.0389  1.1451 -0.5355
17442TIP3   OH273816   2.481   0.259   0.610 -0.4697 -0.2527 -0.1472
17442TIP3    H173817   2.496   0.307   0.529  2.7917 -2.7397 -1.1824
17442TIP3    H273818   2.537   0.303   0.674  0.0856 -0.7381 -0.2954
17443TIP3   OH273819   2.602   2.355   2.058 -0.1320 -0.0441 -0.6250
17443TIP3    H173820   2.670   2.388   2.117  1.2126 -0.3817 -1.9157
17443TIP3    H273821   2.546   2.431   2.042  1.3190  0.9402 -1.3667
17444TIP3   OH273822   3.213   6.509  13.114 -0.6888 -0.1412 -0.4059
17444TIP3    H173823   3.291   6.473  13.155 -0.6628  0.3686 -0.0112
17444TIP3    H273824   3.245   6.555  13.036 -0.7343 -1.0631 -0.9859
17445TIP3   OH273825   1.871   5.631   5.802  0.4056 -0.2208  0.1451
17445TIP3    H173826   1.938   5.621   5.734 -0.8240  0.2577 -1.2181
17445TIP3    H273827   1.900   5.575   5.874  1.4469 -1.2692 -1.0399
17446TIP3   OH273828   6.517   5.919   3.996 -0.7985  0.0652 -0.5551
17446TIP3    H173829   6.481   5.939   4.082 -1.2045 -2.6558 -0.0164
17446TIP3    H273830   6.470   5.840   3.968  1.0324 -0.5139 -2.1835
17447TIP3   OH273831   1.921   5.845  11.845 -0.4277 -0.0301  0.2496
17447TIP3    H173832   1.827   5.840  11.863 -0.2423  0.5925  1.4489
17447TIP3    H273833   1.930   5.916  11.782 -0.6279  0.8236  1.1720
17448TIP3   OH273834   5.756   2.979  15.523 -0.0015 -0.3035 -0.4256
17448TIP3    H173835   5.823   3.028  15.570 -1.0656  0.1441  0.6981
17448TIP3    H273836   5.802   2.938  15.450  1.0342  2.0154 -1.1971
17449TIP3   OH273837   2.968   2.228  16.905 -0.7095  0.0557  0.1907
17449TIP3    H173838   2.984   2.321  16.890  1.7139 -0.1708  1.0077
17449TIP3    H273839   2.959   2.221  17.000 -2.4409 -0.3811  0.0354
17450TIP3   OH273840   6.222   5.946  15.780  0.1648  0.1535 -0.4597
17450TIP3    H173841   6.257   6.035  15.783 -0.7663  0.5132  1.6261
17450TIP3    H273842   6.259   5.903  15.857 -0.7090 -0.7553 -0.5278
17451TIP3   OH273843   3.626   5.459  11.951 -0.0566  0.4549 -0.1650
17451TIP3    H173844   3.620   5.472  12.046  0.2418  2.8612 -0.4356
17451TIP3    H273845   3.562   5.389  11.933 -0.3446  0.1646  1.7410
17452TIP3   OH273846   0.046   0.331   5.539 -0.1165  0.4283  0.3413
17452TIP3    H173847   0.123   0.284   5.572  0.1678  0.2100 -0.5970
17452TIP3    H273848   0.032   0.296   5.452 -1.5563  0.1610  0.6489
17453TIP3   OH273849   0.136   2.970  12.018  0.3645  0.2053  0.5140
17453TIP3    H173850   0.144   2.963  12.113 -0.1997  0.7088  0.6042
17453TIP3    H273851   0.043   2.988  12.003  0.4538  0.1448 -0.1328
17454TIP3   OH273852   0.572   0.950  14.585  0.4070  0.3858 -0.1816
17454TIP3    H173853   0.659   0.989  14.592  0.6099  0.0654 -0.8509
17454TIP3    H273854   0.580   0.887  14.514 -0.7403  1.3283 -1.1782
17455TIP3   OH273855   0.579   6.052  12.191 -0.1131 -0.0022 -0.1372
17455TIP3    H173856   0.607   5.962  12.204  0.7743  0.5144  1.8178
17455TIP3    H273857   0.596   6.069  12.098  3.8060 -0.5264  0.3514
17456TIP3   OH273858   2.807   6.731  12.387  0.2978 -0.0384  0.1074
17456TIP3    H173859   2.849   6.652  12.422 -2.5272 -2.7262 -1.9647
17456TIP3    H273860   2.829   6.730  12.294 -0.8818  0.8178 -0.2065
17457TIP3   OH273861   2.547   5.077  11.495  0.6236  0.6607 -0.2305
17457TIP3    H173862   2.591   5.030  11.424 -3.1199 -2.5771 -0.7425
17457TIP3    H273863   2.585   5.040  11.575  1.2281  0.5204 -0.5761
17458TIP3   OH273864   1.315   3.587  14.251 -0.0893  0.3254  0.0129
17458TIP3    H173865   1.254   3.632  14.310 -1.5520 -2.4597  0.8221
17458TIP3    H273866   1.260   3.525  14.203  2.1004 -3.1464  1.5829
17459TIP3   OH273867   3.867   2.565   1.613 -0.3181 -0.1093  0.1439
17459TIP3    H173868   3.931   2.594   1.548  0.7815 -0.4594  1.0351
17459TIP3    H273869   3.830   2.485   1.577  0.7911 -0.6847  0.2620
17460TIP3   OH273870   5.218   2.981  13.469 -0.0395 -0.4664 -0.8125
17460TIP3    H173871   5.236   2.927  13.393  1.4162 -0.4166 -0.5275
17460TIP3    H273872   5.249   2.930  13.543 -1.2540 -0.4305 -0.2452
17461TIP3   OH273873   4.477   2.430   3.569  0.0225 -0.3252 -0.0032
17461TIP3    H173874   4.539   2.363   3.595  0.0153 -0.4888 -0.4056
17461TIP3    H273875   4.394   2.383   3.559 -0.4550  0.0753  1.6649
17462TIP3   OH273876   0.862   5.140  10.580 -0.2129 -0.0146  0.1711
17462TIP3    H173877   0.801   5.213  10.579  0.9338  0.9690 -0.1755
17462TIP3    H273878   0.904   5.145  10.666  0.8200  0.5839 -0.3411
17463TIP3   OH273879   4.667   0.783  17.182  0.0464  0.5227  0.2550
17463TIP3    H173880   4.592   0.798  17.124  1.0382 -0.1336 -1.2854
17463TIP3    H273881   4.743   0.802  17.127  1.0545 -0.8063  1.1231
17464TIP3   OH273882   4.086   5.678  10.943  0.1355  0.5186 -0.2118
17464TIP3    H173883   4.028   5.612  10.904 -0.1057 -0.7381  2.0340
17464TIP3    H273884   4.027   5.744  10.979  0.2051  0.4964 -0.0521
17465TIP3   OH273885   2.258   5.060   3.549  0.2266 -0.2305  0.2513
17465TIP3    H173886   2.249   5.100   3.636  0.8625  0.8790 -0.1629
17465TIP3    H273887   2.336   5.004   3.557  0.6469  0.3392  0.2481
17466TIP3   OH273888   6.472   5.243   6.613 -0.0611 -0.7294  0.7489
17466TIP3    H173889   6.432   5.321   6.652  0.6929  0.2630 -0.4274
17466TIP3    H273890   6.399   5.197   6.571 -0.1357  0.6675 -0.7230
17467TIP3   OH273891   6.783   5.118   3.986  0.0151  0.1426 -1.0288
17467TIP3    H173892   6.865   5.114   4.036 -0.8135 -0.3487  0.3716
17467TIP3    H273893   6.782   5.206   3.948  1.9988 -0.4227 -2.5771
17468TIP3   OH273894   2.667   2.979  16.817 -0.2796 -0.3757 -0.0253
17468TIP3    H173895   2.756   2.945  16.807 -0.5356 -1.5857  1.5192
17468TIP3    H273896   2.612   2.916  16.771 -0.5114 -0.6768  0.6522
17469TIP3   OH273897   2.312   2.143   5.932  0.4416 -1.1571  0.4966
17469TIP3    H173898   2.249   2.175   5.997 -0.6305 -0.8434 -0.6555
17469TIP3    H273899   2.388   2.199   5.943 -0.3134 -0.1012  0.4730
17470TIP3   OH273900   0.819   0.484  13.102  0.6434 -0.6701  0.0358
17470TIP3    H173901   0.896   0.496  13.045 -0.2989 -2.0494 -1.6279
17470TIP3    H273902   0.750   0.535  13.059 -0.3023 -2.3966 -0.5990
17471TIP3   OH273903   4.251   2.069  13.247 -0.7820  0.6687 -0.3759
17471TIP3    H173904   4.222   2.033  13.163 -0.2835  0.8917 -0.6462
17471TIP3    H273905   4.180   2.048  13.308  0.4502 -2.9604  0.0934
17472TIP3   OH273906   0.111   0.573  13.294  0.0283 -0.2099  0.3970
17472TIP3    H173907   0.053   0.643  13.322  0.2500 -0.4342  1.4414
17472TIP3    H273908   0.190   0.617  13.263  0.7968 -0.0168  2.4947
17473TIP3   OH273909   1.103   4.470   1.313  0.6473 -0.0627 -0.2364
17473TIP3    H173910   1.125   4.388   1.268  0.6099 -0.0158 -0.3404
17473TIP3    H273911   1.186   4.499   1.352  0.1971 -1.4231  1.9084
17474TIP3   OH273912   4.755   3.373  15.148 -0.1460  0.2814 -0.3279
17474TIP3    H173913   4.753   3.280  15.128  0.6233  0.1767  0.0253
17474TIP3    H273914   4.692   3.383  15.220 -0.7659  0.1636 -0.8532
17475TIP3   OH273915   6.131   1.662  11.595 -0.2880 -0.2243 -0.0119
17475TIP3    H173916   6.055   1.681  11.650 -1.7848  0.1761 -2.0766
17475TIP3    H273917   6.201   1.717  11.631 -0.9392 -0.6118  1.9487
17476TIP3   OH273918   3.345   0.492  12.310  0.2335 -0.4666  0.3887
17476TIP3    H173919   3.282   0.435  12.266 -0.6383  1.2802 -0.7436
17476TIP3    H273920   3.296   0.531  12.382  0.1914  0.4097 -0.1033
17477TIP3   OH273921   0.830   5.296   4.662 -0.0916  0.2472 -0.0229
17477TIP3    H173922   0.784   5.213   4.653 -0.1206  0.3878 -1.4063
17477TIP3    H273923   0.818   5.320   4.753 -3.1475  0.4766 -0.3853
17478TIP3   OH273924   6.160   3.607  11.292 -0.1590  0.6460  0.4193
17478TIP3    H173925   6.070   3.640  11.300 -0.8865 -1.1312  0.0503
17478TIP3    H273926   6.167   3.540  11.360  0.9985  0.9283  0.6079
17479TIP3   OH273927   3.585   5.516  12.863 -0.1934 -0.1665  0.4198
17479TIP3    H173928   3.585   5.605  12.897  0.0864  0.4116 -1.0054
17479TIP3    H273929   3.533   5.521  12.783  0.0567 -1.2122  0.1756
17480TIP3   OH273930   4.408   1.110  14.406 -0.7745 -0.0428 -0.7800
17480TIP3    H173931   4.322   1.074  14.426 -0.4564  0.7873  2.6488
17480TIP3    H273932   4.468   1.036  14.421 -0.4621  0.7722  2.5877
17481TIP3   OH273933   3.126   0.913  12.223  0.2232  0.5323 -0.1836
17481TIP3    H173934   3.072   0.987  12.193 -0.1649 -0.1017 -1.0882
17481TIP3    H273935   3.149   0.866  12.143  0.5999 -0.2423  0.3677
17482TIP3   OH273936   6.025   5.749  14.056  0.2525  0.6043 -0.2209
17482TIP3    H173937   5.945   5.720  14.100  0.3544 -0.5024 -0.7204
17482TIP3    H273938   6.020   5.844  14.057 -0.5987  0.5649  0.6140
17483TIP3   OH273939   2.762   5.614  13.005  0.1457  0.0514  0.0022
17483TIP3    H173940   2.701   5.540  13.009  0.2427 -0.0771 -0.7371
17483TIP3    H273941   2.709   5.690  13.032  0.4751 -0.5085  2.4060
17484TIP3   OH273942   5.587   1.485   4.322 -0.1198  0.5245 -0.2259
17484TIP3    H173943   5.552   1.566   4.284 -0.1927 -0.1867 -1.7565
17484TIP3    H273944   5.511   1.429   4.334 -0.2177  1.0331  1.8565
17485TIP3   OH273945   1.144   0.473   2.825  0.3846  0.0208 -0.2804
17485TIP3    H173946   1.157   0.516   2.741 -1.0917 -1.0009 -1.0708
17485TIP3    H273947   1.229   0.435   2.846  0.5258 -0.5410 -1.7837
17486TIP3   OH273948   2.910   1.205  16.135 -0.8066 -0.5820  0.3345
17486TIP3    H173949   2.962   1.284  16.148 -0.1163 -1.1040  0.7772
17486TIP3    H273950   2.857   1.198  16.215  0.4514 -1.5395  1.1243
17487TIP3   OH273951   2.316   5.263  13.031  0.0594  0.3224  0.0436
17487TIP3    H173952   2.351   5.177  13.006 -0.2567 -0.0389  0.8170
17487TIP3    H273953   2.224   5.259  13.005 -0.5192 -0.4124  2.0559
17488TIP3   OH273954   3.900   6.503  10.749 -0.2094  0.5177  0.5622
17488TIP3    H173955   3.821   6.449  10.754 -0.0821  0.0810 -1.3213
17488TIP3    H273956   3.929   6.495  10.658  2.1768  0.4503  1.2454
17489TIP3   OH273957   1.773   2.398  14.917  0.1707 -0.4390  0.0682
17489TIP3    H173958   1.687   2.370  14.887  0.8052 -1.0503 -1.2758
17489TIP3    H273959   1.823   2.413  14.837  0.7667  1.7530  0.7877
17490TIP3   OH273960   0.979   3.828  11.153 -0.3483 -0.2393  0.5961
17490TIP3    H173961   0.945   3.886  11.086  0.6372  0.9033  1.0452
17490TIP3    H273962   1.029   3.885  11.212  1.2223 -1.6120  0.6939
17491TIP3   OH273963   3.560   0.196   1.960 -0.2745 -0.0353 -0.2152
17491TIP3    H173964   3.598   0.208   2.047 -0.9312 -0.5796  0.1577
17491TIP3    H273965   3.474   0.157   1.977 -1.0956  1.3575 -1.0377
17492TIP3   OH273966   1.133   4.219  11.782 -0.1460 -0.6203  0.0823
17492TIP3    H173967   1.091   4.178  11.857 -1.4194  1.5063  0.6108
17492TIP3    H273968   1.064   4.222  11.715 -0.4294  1.4224  0.3938
17493TIP3   OH273969   5.249   1.840  14.264 -0.3985 -0.0931 -0.2825
17493TIP3    H173970   5.296   1.904  14.316 -0.7282 -0.0070 -0.0864
17493TIP3    H273971   5.159   1.875  14.259 -0.6446 -0.6671  0.0456
17494TIP3   OH273972   3.488   3.068   4.051 -0.0242 -0.3909 -0.3789
17494TIP3    H173973   3.512   2.975   4.054 -0.8079 -0.5815  0.5588
17494TIP3    H273974   3.533   3.106   4.126  0.3290  0.0041 -0.7866
17495TIP3   OH273975   5.193   3.573   0.816 -0.5236 -0.6173 -0.1100
17495TIP3    H173976   5.138   3.590   0.739 -1.5455 -0.1393  0.7039
17495TIP3    H273977   5.273   3.534   0.780 -0.1164  1.4349 -1.6090
17496TIP3   OH273978   5.055   4.920  14.794  0.1552  0.1502  0.5806
17496TIP3    H173979   5.100   5.002  14.774  0.6255  0.0248  1.0929
17496TIP3    H273980   4.967   4.947  14.819  0.4031  0.5338  1.0662
17497TIP3   OH273981   0.862   1.034  11.188  0.0225  0.6667 -0.3927
17497TIP3    H173982   0.806   1.083  11.249 -1.1445  1.0058 -1.6738
17497TIP3    H273983   0.916   1.101  11.146  0.9681  0.4108  0.3940
17498TIP3   OH273984   0.620   6.257   1.249 -0.4635  0.3912  1.0550
17498TIP3    H173985   0.531   6.228   1.270 -1.1856  0.3606 -1.6466
17498TIP3    H273986   0.619   6.351   1.264 -1.1164  0.4648  0.6019
17499TIP3   OH273987   5.317   5.760  13.600 -0.4681  0.7520  0.2255
17499TIP3    H173988   5.406   5.769  13.566 -0.8425 -1.0362 -1.3748
17499TIP3    H273989   5.325   5.693  13.669 -0.7658 -0.5196 -0.9313
17500TIP3   OH273990   0.940   2.669   4.634  0.7715  0.2087  0.3060
17500TIP3    H173991   1.022   2.661   4.682  0.7320  0.3047  0.3896
17500TIP3    H273992   0.872   2.646   4.697  0.5952  1.8655  0.7764
17501TIP3   OH273993   6.102   6.771   0.397 -0.0791  0.5298 -0.0240
17501TIP3    H173994   6.045   6.734   0.464 -0.5397  2.4004  0.6792
17501TIP3    H273995   6.065   6.741   0.315 -2.5004  2.1482  0.3810
17502TIP3   OH273996   5.089   1.307   4.956 -0.1927  0.4685  0.0063
17502TIP3    H173997   5.029   1.381   4.941 -0.6063 -0.0536 -1.1037
17502TIP3    H273998   5.051   1.236   4.903  0.2414 -0.5120  0.9888
17503TIP3   OH273999   1.054   1.139  12.472  0.5780 -0.1787 -0.0699
17503TIP3    H174000   1.105   1.067  12.509  0.8943  0.0797  0.0011
17503TIP3    H274001   1.079   1.140  12.380  3.1735  1.9416  0.5122
17504TIP3   OH274002   1.466   3.690  12.080  0.4041  0.1475 -0.4927
17504TIP3    H174003   1.526   3.726  12.146 -1.5161  2.7170 -0.0085
17504TIP3    H274004   1.498   3.725  11.997  0.0731  0.8210 -0.3378
17505TIP3   OH274005   1.590   6.749   1.626 -0.4685 -0.2207 -0.4733
17505TIP3    H174006   1.599   6.840   1.653  2.6455 -0.0372 -1.7279
17505TIP3    H274007   1.638   6.699   1.692  0.6514 -0.5698 -1.5201
17506TIP3   OH274008   4.572   2.550   4.949  0.3809  0.2691 -0.1884
17506TIP3    H174009   4.579   2.561   4.854  0.7049 -0.3451 -0.2441
17506TIP3    H274010   4.632   2.478   4.969 -1.4467 -1.2268  0.1566
17507TIP3   OH274011   0.991   0.647   3.280  0.2370  0.3740 -0.1629
17507TIP3    H174012   0.936   0.576   3.247 -0.8355  1.3072 -0.4443
17507TIP3    H274013   1.044   0.607   3.349 -0.1509 -0.7529 -0.5017
17508TIP3   OH274014   5.886   3.231  15.604 -0.0075 -0.5926 -0.5752
17508TIP3    H174015   5.850   3.300  15.659 -0.2507 -1.7325  0.7683
17508TIP3    H274016   5.899   3.272  15.518 -1.9683  0.5747 -0.3699
17509TIP3   OH274017   6.732   4.605  12.619 -0.2634  0.0373  0.7551
17509TIP3    H174018   6.740   4.510  12.610  2.7808  0.3830 -2.0612
17509TIP3    H274019   6.727   4.620  12.713 -1.0711 -2.8839  1.2798
17510TIP3   OH274020   1.341   2.411   4.434 -0.3893  0.3749 -0.3289
17510TIP3    H174021   1.413   2.457   4.477 -1.0287  1.1405 -0.0488
17510TIP3    H274022   1.383   2.357   4.367  0.5136  0.1246  0.4181
17511TIP3   OH274023   4.859   0.712   6.020  0.7845  0.2379  0.2976
17511TIP3    H174024   4.883   0.629   6.062  0.4757  0.1602  0.3213
17511TIP3    H274025   4.811   0.760   6.087  3.0803  1.5001  1.1527
17512TIP3   OH274026   4.227   4.387  12.929 -0.0124  0.3080 -0.1919
17512TIP3    H174027   4.272   4.449  12.986 -1.2532  0.6412  0.4593
17512TIP3    H274028   4.198   4.439  12.855  0.3373  0.1615 -0.4393
17513TIP3   OH274029   6.109   3.412  16.207  0.2532 -0.2968  0.6782
17513TIP3    H174030   6.141   3.500  16.229 -1.7431  0.9020 -0.8494
17513TIP3    H274031   6.035   3.398  16.267 -1.3210  0.4050 -0.9970
17514TIP3   OH274032   1.127   6.643   4.458  0.6491  0.2560  0.1891
17514TIP3    H174033   1.133   6.731   4.495  0.4767  0.8086 -1.0376
17514TIP3    H274034   1.206   6.634   4.405 -0.5779  0.7357 -1.8285
17515TIP3   OH274035   3.967   0.371   0.456 -0.8072 -0.1571  0.3778
17515TIP3    H174036   3.933   0.300   0.511 -1.5977 -0.6612 -0.7239
17515TIP3    H274037   3.897   0.436   0.455 -0.9063 -0.2716 -0.2423
17516TIP3   OH274038   6.268   6.470   4.675 -0.5475 -0.0718 -0.2346
17516TIP3    H174039   6.237   6.448   4.587 -2.6991 -0.8862  0.6356
17516TIP3    H274040   6.261   6.565   4.680 -0.4180 -0.0206 -0.9502
17517TIP3   OH274041   1.224   5.492   0.320 -0.5580  0.1627 -0.6332
17517TIP3    H174042   1.175   5.563   0.361 -1.5483 -0.4287 -0.7695
17517TIP3    H274043   1.291   5.536   0.268  0.8797  0.9413  1.7368
17518TIP3   OH274044   5.799   4.215  15.427 -1.1525 -0.4682  0.4045
17518TIP3    H174045   5.838   4.268  15.357 -2.2103  2.2460  1.7292
17518TIP3    H274046   5.711   4.194  15.395 -1.0836 -0.5939  0.2940
17519TIP3   OH274047   4.146   0.894   1.030 -0.2248  0.4341 -0.7425
17519TIP3    H174048   4.101   0.863   1.109  0.2797 -0.5171 -0.8175
17519TIP3    H274049   4.205   0.823   1.006  0.2202  1.0466 -1.5200
17520TIP3   OH274050   4.433   5.417  14.441 -0.2293 -0.4461 -0.3744
17520TIP3    H174051   4.386   5.439  14.361 -2.1252 -1.5374  0.3608
17520TIP3    H274052   4.458   5.501  14.479  0.6260  0.0817 -2.0290
17521TIP3   OH274053   5.755   4.555  12.998 -0.2808 -0.1984  0.0089
17521TIP3    H174054   5.715   4.638  13.025  1.3876  0.0740  1.8708
17521TIP3    H274055   5.729   4.544  12.906 -2.0651  1.4248  0.2617
17522TIP3   OH274056   2.101   1.880  13.305  0.2441 -0.6254 -0.6207
17522TIP3    H174057   2.136   1.795  13.334 -0.8324 -0.9291 -0.1399
17522TIP3    H274058   2.179   1.934  13.291  0.9323 -1.5128 -0.3717
17523TIP3   OH274059   0.107   5.448  13.620  0.0799 -0.4353 -0.5320
17523TIP3    H174060   0.094   5.490  13.706  0.4554 -0.8673 -0.2559
17523TIP3    H274061   0.048   5.494  13.561  0.1960  0.2176 -0.1475
17524TIP3   OH274062   1.151   6.731  14.271 -0.1918  0.6273 -0.7381
17524TIP3    H174063   1.207   6.808  14.263  0.0436  0.6685  0.9878
17524TIP3    H274064   1.198   6.673  14.330 -2.6869  1.4360  2.3117
17525TIP3   OH274065   0.650   0.125   0.293 -0.0715  0.6657 -0.3214
17525TIP3    H174066   0.599   0.152   0.217  1.0378  1.5212 -0.8011
17525TIP3    H274067   0.586   0.086   0.353 -0.8171 -1.1418 -2.1599
17526TIP3   OH274068   4.178   0.965  11.821 -0.0972  0.1264  0.3845
17526TIP3    H174069   4.179   0.901  11.892 -1.2286 -0.4202 -0.0725
17526TIP3    H274070   4.153   1.047  11.864  1.1185  0.2399  0.9286
17527TIP3   OH274071   3.108   0.161  15.640 -0.1035  0.0162 -0.1799
17527TIP3    H174072   3.145   0.221  15.575 -0.4687  1.1059  0.5985
17527TIP3    H274073   3.090   0.080  15.590  1.2195  0.2318 -1.0389
17528TIP3   OH274074   4.464   2.989  14.760  0.3753 -0.3397 -0.6531
17528TIP3    H174075   4.461   2.894  14.752  0.4239 -0.3526 -0.5151
17528TIP3    H274076   4.539   3.015  14.706  0.0614 -0.3365 -1.0899
17529TIP3   OH274077   0.854   0.167   5.965 -0.0395  0.1504 -0.1341
17529TIP3    H174078   0.788   0.188   6.031  0.9755 -1.1450  1.3851
17529TIP3    H274079   0.809   0.178   5.882 -2.0969 -0.4084  0.8304
17530TIP3   OH274080   2.138   1.443  14.259  0.3966  0.0855 -0.6296
17530TIP3    H174081   2.174   1.500  14.327  0.9036 -0.6053 -0.2948
17530TIP3    H274082   2.058   1.407  14.297  0.0845  0.5489 -0.8357
17531TIP3   OH274083   3.881   1.029  15.948  0.8977 -0.1714  0.1131
17531TIP3    H174084   3.956   1.034  16.007  0.8410  0.9076  0.1139
17531TIP3    H274085   3.834   1.111  15.961 -1.5946 -1.7248  1.7743
17532TIP3   OH274086   1.509   0.248   0.147 -0.0749 -0.3587  0.2728
17532TIP3    H174087   1.503   0.313   0.218  1.7760  0.3362 -0.1459
17532TIP3    H274088   1.535   0.167   0.190  0.2502 -0.1400  0.4906
17533TIP3   OH274089   2.107   3.203  13.580 -0.4600  0.4169 -0.4293
17533TIP3    H174090   2.184   3.170  13.534 -0.8523  1.5937 -2.0324
17533TIP3    H274091   2.142   3.246  13.658  0.3939 -0.1350 -0.4975
17534TIP3   OH274092   2.125   3.771  15.594 -0.3827  0.1725  0.3902
17534TIP3    H174093   2.176   3.782  15.674 -0.3860 -1.5309  0.6797
17534TIP3    H274094   2.187   3.787  15.523  0.6296 -1.8411  0.7355
17535TIP3   OH274095   0.159   0.525   0.860 -0.3729 -0.2374  0.5041
17535TIP3    H174096   0.137   0.489   0.946  0.4702  0.5421  1.0573
17535TIP3    H274097   0.090   0.589   0.842 -0.5749 -0.4336  0.5709
17536TIP3   OH274098   1.801   0.414  15.370  0.3468 -1.3370  0.3895
17536TIP3    H174099   1.795   0.336  15.314 -1.9604  0.0733 -1.5185
17536TIP3    H274100   1.835   0.482  15.312  0.3448 -0.4038  1.4479
17537TIP3   OH274101   2.843   3.925  11.590  0.0088 -0.0773  0.1988
17537TIP3    H174102   2.795   3.908  11.671  1.7547  0.1475  1.3309
17537TIP3    H274103   2.834   3.845  11.539  3.0976 -2.4219  2.8441
17538TIP3   OH274104   2.598   2.825   4.079 -0.7002 -0.1449 -0.0812
17538TIP3    H174105   2.668   2.776   4.036 -0.5241  1.3994 -1.6852
17538TIP3    H274106   2.601   2.798   4.170 -1.2713 -3.8640 -0.9914
17539TIP3   OH274107   2.891   3.360  14.068  0.0209  0.0078 -0.1881
17539TIP3    H174108   2.876   3.283  14.013  0.2294 -1.7873  2.0924
17539TIP3    H274109   2.806   3.377  14.109  0.2975  0.0915  0.3670
17540TIP3   OH274110   5.967   4.871  13.186  0.0255 -0.3772 -0.0675
17540TIP3    H174111   5.943   4.859  13.094 -1.9349  1.5164  0.1146
17540TIP3    H274112   6.053   4.914  13.183 -0.1094 -0.1499 -1.0256
17541TIP3   OH274113   0.232   3.773  13.493  0.4348 -0.0976  1.0376
17541TIP3    H174114   0.172   3.844  13.468 -0.1863 -1.4390 -1.5838
17541TIP3    H274115   0.180   3.694  13.488  2.2579 -1.2580 -0.8422
17542TIP3   OH274116   5.384   0.373   5.225 -0.1548  0.0680  0.0510
17542TIP3    H174117   5.311   0.341   5.278 -0.9001 -0.9714 -1.5298
17542TIP3    H274118   5.423   0.294   5.188  0.7882  0.7236 -0.3774
17543TIP3   OH274119   0.733   1.444   0.398 -0.1339 -0.3754  0.6868
17543TIP3    H174120   0.819   1.402   0.400  0.5054  0.9131  1.2748
17543TIP3    H274121   0.750   1.535   0.421 -1.8022 -0.3426  2.0095
17544TIP3   OH274122   2.181   1.044   5.889 -0.0129 -0.1761  0.0645
17544TIP3    H174123   2.089   1.050   5.913  0.1844  0.5065  0.6901
17544TIP3    H274124   2.208   0.957   5.920 -0.1736  0.0554  0.8673
17545TIP3   OH274125   5.652   5.661   3.559 -0.3884  0.2856 -0.1260
17545TIP3    H174126   5.654   5.604   3.483 -1.9535  0.9158 -0.6816
17545TIP3    H274127   5.637   5.602   3.633  0.4040 -0.2510 -0.3799
17546TIP3   OH274128   6.155   0.516  12.312 -0.4393  0.0755  0.5569
17546TIP3    H174129   6.112   0.524  12.397 -1.4848  1.8219 -0.0825
17546TIP3    H274130   6.221   0.585  12.312 -0.6174  0.2539 -0.1316
17547TIP3   OH274131   3.498   6.693  11.318  0.4770  0.0098 -0.3454
17547TIP3    H174132   3.542   6.635  11.380  0.6966 -1.5406 -1.9063
17547TIP3    H274133   3.567   6.722  11.259  0.2479  1.4107  0.0339
17548TIP3   OH274134   6.364   1.108  10.680 -0.1189  0.0718  0.5059
17548TIP3    H174135   6.392   1.087  10.769  0.4593 -1.9338 -0.1102
17548TIP3    H274136   6.295   1.044  10.661  2.0891 -1.8370 -1.6500
17549TIP3   OH274137   4.878   4.804   1.065 -0.0776  0.3506  0.1957
17549TIP3    H174138   4.919   4.719   1.081  0.8815  0.7421 -0.1423
17549TIP3    H274139   4.950   4.861   1.039 -0.8489  1.0318 -0.4844
17550TIP3   OH274140   1.495   5.945   5.795  0.5468  0.2623  0.2673
17550TIP3    H174141   1.523   6.006   5.727  0.7963 -1.6657 -1.4456
17550TIP3    H274142   1.540   5.863   5.774 -1.6734 -1.2213  0.9826
17551TIP3   OH274143   1.027   4.613   2.671 -0.1360 -0.3310  0.1278
17551TIP3    H174144   1.016   4.532   2.721 -0.4082 -0.3933 -0.0275
17551TIP3    H274145   1.120   4.617   2.651  0.0828  0.0029  1.1556
17552TIP3   OH274146   3.028   4.529  11.014  0.1924  0.3341 -0.4688
17552TIP3    H174147   3.081   4.485  10.948  1.2771  1.2347 -0.2396
17552TIP3    H274148   3.071   4.507  11.097  0.9040  1.9428 -0.3685
17553TIP3   OH274149   0.938   0.760   2.667 -0.2057  0.0605 -0.1101
17553TIP3    H174150   0.976   0.785   2.583 -0.1767 -0.1926 -0.1758
17553TIP3    H274151   0.904   0.672   2.651 -1.3365  0.5024 -0.2252
17554TIP3   OH274152   6.108   0.955   4.735 -0.1547  0.4792  0.3604
17554TIP3    H174153   6.192   0.968   4.692 -0.5397 -0.4233 -0.7100
17554TIP3    H274154   6.079   1.043   4.758  0.8701  0.8340  0.3464
17555TIP3   OH274155   2.442   4.269  12.844  0.3997 -0.3313  1.0096
17555TIP3    H174156   2.514   4.328  12.868  1.2616 -1.6659  1.8230
17555TIP3    H274157   2.383   4.272  12.919 -0.7098  1.1364  0.1471
17556TIP3   OH274158   2.211   4.246  16.059 -0.1738  0.3768  0.3267
17556TIP3    H174159   2.162   4.268  16.138 -1.1012  2.8426 -0.8420
17556TIP3    H274160   2.144   4.229  15.993  0.5478  0.8149 -0.5430
17557TIP3   OH274161   3.739   5.199  14.413  0.0107 -0.2925  0.8392
17557TIP3    H174162   3.683   5.254  14.357 -0.8722 -2.5512 -0.6403
17557TIP3    H274163   3.811   5.256  14.439 -0.8464  1.5476 -0.6063
17558TIP3   OH274164   0.219   5.077   1.970  0.1120  0.0313 -0.2155
17558TIP3    H174165   0.228   5.001   1.912 -0.8717 -0.2326 -0.0253
17558TIP3    H274166   0.127   5.079   1.994 -0.0689  1.7920 -0.9039
17559TIP3   OH274167   6.130   0.486  13.440  0.6718  0.1298 -0.5142
17559TIP3    H174168   6.076   0.464  13.515  1.8975  0.1424  0.4068
17559TIP3    H274169   6.210   0.434  13.451  0.3831 -0.8682 -2.5026
17560TIP3   OH274170   1.286   3.822  14.502  0.0927  0.1786 -0.3285
17560TIP3    H174171   1.344   3.861  14.436  1.6852  1.1124  1.5194
17560TIP3    H274172   1.286   3.886  14.573 -1.6563 -0.7540  0.5586
17561TIP3   OH274173   5.335   6.638   2.102  0.2684 -0.1735  0.1102
17561TIP3    H174174   5.360   6.730   2.095 -2.6587  0.7349  0.3548
17561TIP3    H274175   5.331   6.621   2.196  1.2398 -0.7184  0.0661
17562TIP3   OH274176   0.491   3.822   1.903  0.3382  0.3805 -0.2189
17562TIP3    H174177   0.456   3.764   1.835  0.8064 -1.0344  0.7213
17562TIP3    H274178   0.493   3.769   1.982  0.2197  1.8700  0.8278
17563TIP3   OH274179   2.463   3.517   0.251 -0.7044 -0.1611  0.2297
17563TIP3    H174180   2.418   3.557   0.176  1.0624 -0.3971 -1.0200
17563TIP3    H274181   2.404   3.532   0.325 -1.7503  1.5860 -0.8745
17564TIP3   OH274182   0.936   1.626   3.857  0.1876  0.1662  0.2990
17564TIP3    H174183   0.974   1.670   3.781 -0.1342 -0.5901 -0.3244
17564TIP3    H274184   1.011   1.607   3.913  0.6090 -0.3764 -0.4254
17565TIP3   OH274185   6.528   1.092  13.419  0.1845  0.1916  0.0826
17565TIP3    H174186   6.623   1.095  13.405  0.1118  1.1462 -0.2601
17565TIP3    H274187   6.496   1.033  13.351  0.6365 -0.9663  0.8494
17566TIP3   OH274188   2.722   5.333  16.640  0.1235 -0.9926 -0.1090
17566TIP3    H174189   2.766   5.319  16.556 -1.3591 -0.7432 -0.9581
17566TIP3    H274190   2.675   5.251  16.655 -1.3358 -0.2707 -0.6098
17567TIP3   OH274191   2.621   0.846   4.071  0.2719 -0.2164  0.7258
17567TIP3    H174192   2.707   0.851   4.029 -0.4686 -0.6573 -0.9410
17567TIP3    H274193   2.638   0.862   4.164  2.1445 -0.3241  0.4326
17568TIP3   OH274194   6.782   0.744   0.446  0.4751  0.1149  0.1215
17568TIP3    H174195   6.777   0.660   0.401 -1.5988 -0.0137  0.4788
17568TIP3    H274196   6.860   0.786   0.410  0.2995 -1.0257 -1.7335
17569TIP3   OH274197   1.519   5.831   0.725 -0.8439  0.4656 -0.3998
17569TIP3    H174198   1.524   5.740   0.695 -2.1457  0.4138 -0.5107
17569TIP3    H274199   1.526   5.825   0.820 -2.5723  0.0784 -0.2739
17570TIP3   OH274200   3.464   6.408  13.190 -0.1651 -0.3699  0.2311
17570TIP3    H174201   3.490   6.317  13.205 -1.0398 -0.6276  0.2534
17570TIP3    H274202   3.501   6.429  13.103 -0.5033 -0.9573 -0.0601
17571TIP3   OH274203   3.848   1.912   3.010  0.3081 -0.6744  0.0002
17571TIP3    H174204   3.844   2.008   3.002  1.7147 -0.5778  0.1599
17571TIP3    H274205   3.882   1.883   2.925  1.7994 -0.8381  0.6198
17572TIP3   OH274206   0.210   2.534  14.930 -0.3084  0.2343 -0.3719
17572TIP3    H174207   0.155   2.465  14.893 -1.3850  0.8118  0.1127
17572TIP3    H274208   0.251   2.494  15.006 -1.3224  0.2668  0.2015
17573TIP3   OH274209   4.964   6.711   1.984 -0.4128 -0.1400  0.2973
17573TIP3    H174210   4.991   6.699   2.075 -0.5964  3.4983  1.0020
17573TIP3    H274211   5.047   6.712   1.935 -0.1262  0.1033  0.7777
17574TIP3   OH274212   6.369   3.444  10.485  0.6077  0.3783  0.2832
17574TIP3    H174213   6.346   3.353  10.469 -0.7300  0.7378 -0.0098
17574TIP3    H274214   6.352   3.457  10.579 -0.2183  0.5782  0.1170
17575TIP3   OH274215   1.075   5.951   4.523 -0.0921 -0.7653 -0.4347
17575TIP3    H174216   1.014   5.877   4.530 -0.6209 -0.4868 -1.8550
17575TIP3    H274217   1.028   6.017   4.473  0.5270  0.4082  0.4742
17576TIP3   OH274218   5.777   3.007   3.443 -0.0758 -0.1103 -0.6674
17576TIP3    H174219   5.690   3.041   3.460  0.1811  0.1985  0.0737
17576TIP3    H274220   5.834   3.054   3.505  0.4110 -1.2853 -0.1957
17577TIP3   OH274221   5.280   6.367   3.410  0.2171 -1.0437  0.1087
17577TIP3    H174222   5.264   6.276   3.387 -0.2906 -0.5392 -1.7444
17577TIP3    H274223   5.212   6.416   3.362  0.6626  0.3230  0.8226
17578TIP3   OH274224   3.516   3.482  15.905 -0.2492 -0.3227  0.2085
17578TIP3    H174225   3.486   3.455  15.992  0.0364 -1.5493 -0.0560
17578TIP3    H274226   3.611   3.478  15.910 -0.2284 -2.6559 -0.7907
17579TIP3   OH274227   6.697   6.699   4.977  0.3134 -0.3210 -0.4172
17579TIP3    H174228   6.771   6.717   5.036 -0.4734  0.5981  0.3267
17579TIP3    H274229   6.658   6.785   4.961 -0.3620 -0.7509 -1.1145
17580TIP3   OH274230   3.971   3.324  12.171  0.1183  0.3908  0.0235
17580TIP3    H174231   3.899   3.288  12.119 -0.2148  0.3905  0.4839
17580TIP3    H274232   4.045   3.326  12.110 -0.3498  0.6906 -0.5471
17581TIP3   OH274233   2.402   5.975  13.829 -0.1248  0.1952 -0.2133
17581TIP3    H174234   2.336   5.996  13.764  0.8059  0.2836 -1.1610
17581TIP3    H274235   2.424   6.058  13.870 -1.5064 -0.0059  1.0500
17582TIP3   OH274236   3.180   5.063  17.139 -0.0926  0.1853 -0.2352
17582TIP3    H174237   3.134   4.985  17.169 -0.1383  0.4776  0.4681
17582TIP3    H274238   3.165   5.128  17.207  1.3677  0.2942  0.0162
17583TIP3   OH274239   6.176   5.395  15.356 -0.4799 -0.3230 -0.3157
17583TIP3    H174240   6.203   5.385  15.447 -0.7716  1.9410  0.0830
17583TIP3    H274241   6.210   5.481  15.330 -1.2799 -0.4769 -2.0305
17584TIP3   OH274242   4.753   3.443   2.038  0.2898 -0.1136  0.1624
17584TIP3    H174243   4.786   3.417   1.953  1.7764 -2.1049  1.2601
17584TIP3    H274244   4.752   3.539   2.036  0.2067 -0.1194 -2.0788
17585TIP3   OH274245   1.014   0.255   1.676  0.0585  0.1925 -0.8950
17585TIP3    H174246   1.087   0.268   1.615  1.6711  0.9716  1.0740
17585TIP3    H274247   1.029   0.168   1.713 -0.7435 -0.1566 -1.3651
17586TIP3   OH274248   1.098   4.172  16.868 -0.2135 -0.6462  0.0881
17586TIP3    H174249   1.062   4.091  16.903  0.1987 -0.2356  1.5225
17586TIP3    H274250   1.176   4.189  16.922 -0.2533  0.6638 -0.2312
17587TIP3   OH274251   6.024   4.462  11.187  0.2116 -0.6539  0.2175
17587TIP3    H174252   5.951   4.403  11.202 -0.9027  0.1428 -1.6836
17587TIP3    H274253   6.101   4.407  11.190 -0.4591 -1.5654  2.0228
17588TIP3   OH274254   0.214   3.987   4.778  0.3757 -0.2109  0.3661
17588TIP3    H174255   0.191   4.042   4.853  0.9581  1.6258 -0.7647
17588TIP3    H274256   0.227   4.048   4.706 -0.2020 -1.9422 -1.2724
17589TIP3   OH274257   1.950   5.217  11.578  0.2374 -0.3688  0.2499
17589TIP3    H174258   2.008   5.270  11.631  0.2973 -0.0638 -0.1125
17589TIP3    H274259   1.971   5.126  11.601  0.6836 -0.2523  0.2943
17590TIP3   OH274260   2.150   1.244  12.543  0.7469  0.1346 -0.1558
17590TIP3    H174261   2.136   1.304  12.470 -1.1704 -0.6722 -0.5348
17590TIP3    H274262   2.093   1.277  12.612  2.3304  0.7221  0.9170
17591TIP3   OH274263   5.913   6.558  11.543 -0.2855  0.0888  0.1567
17591TIP3    H174264   5.952   6.510  11.470  1.6092 -1.3022  1.9449
17591TIP3    H274265   5.822   6.530  11.545  0.4838 -2.6785  0.4262
17592TIP3   OH274266   2.433   3.704  12.404  0.5133 -0.4007 -0.1229
17592TIP3    H174267   2.351   3.687  12.359 -0.4879 -1.1374  1.8371
17592TIP3    H274268   2.421   3.666  12.491  3.1460 -1.0381  0.0651
17593TIP3   OH274269   3.852   1.423  13.928 -0.1135 -0.5249  0.3104
17593TIP3    H174270   3.854   1.334  13.964  0.1523  0.2582  2.3846
17593TIP3    H274271   3.760   1.447  13.928 -0.2844 -1.0928 -1.1160
17594TIP3   OH274272   3.866   4.272  15.073 -0.2292 -0.0166  0.5731
17594TIP3    H174273   3.927   4.202  15.050  0.4605  0.5685  0.6000
17594TIP3    H274274   3.838   4.307  14.988  0.7877  0.8332  0.5771
17595TIP3   OH274275   3.982   1.800   5.102  0.0687  1.1405 -0.0528
17595TIP3    H174276   4.063   1.759   5.132  0.4794  0.9920 -1.3356
17595TIP3    H274277   3.931   1.729   5.063 -1.3651  0.9260  2.0275
17596TIP3   OH274278   2.906   5.524  14.596  0.0435  0.0491  0.0278
17596TIP3    H174279   2.846   5.452  14.619 -0.6560  0.1598 -1.3560
17596TIP3    H274280   2.942   5.499  14.511  3.0628 -0.6529  1.3689
17597TIP3   OH274281   6.687   5.879   1.190 -0.0448  0.0422  0.6613
17597TIP3    H174282   6.684   5.947   1.257  2.2684 -0.5792  1.4744
17597TIP3    H274283   6.616   5.819   1.212  0.1818  0.2793  2.0824
17598TIP3   OH274284   0.347   6.302   4.706  0.0834  0.3967 -0.1315
17598TIP3    H174285   0.368   6.387   4.745 -0.5542  1.1495 -1.3848
17598TIP3    H274286   0.421   6.283   4.648  0.1079  0.2015 -0.0383
17599TIP3   OH274287   5.693   4.289  14.402  0.3220 -0.2333 -0.0107
17599TIP3    H174288   5.609   4.326  14.430  1.6428  2.0121  1.2358
17599TIP3    H274289   5.705   4.212  14.457 -0.6076 -0.1764  0.2850
17600TIP3   OH274290   5.163   0.033   3.881 -0.4241  0.6110 -0.1700
17600TIP3    H174291   5.149   0.128   3.881  1.0599  0.9034 -2.3149
17600TIP3    H274292   5.256   0.023   3.902 -0.8021 -0.4949  1.1599
17601TIP3   OH274293   3.174   1.753  11.201  0.0668 -0.0633 -0.0847
17601TIP3    H174294   3.111   1.819  11.172  0.8208  0.5719 -0.3008
17601TIP3    H274295   3.133   1.669  11.178 -0.4358  0.3554 -0.7537
17602TIP3   OH274296   3.626   0.442   3.307  0.1390 -0.5065 -0.1826
17602TIP3    H174297   3.633   0.534   3.282 -0.3316 -0.4324 -0.0511
17602TIP3    H274298   3.615   0.444   3.402 -1.8746 -0.5757 -0.3619
17603TIP3   OH274299   2.940   2.926   3.350 -0.0534  0.2492 -0.5546
17603TIP3    H174300   2.923   3.018   3.372  1.8226  0.3609  0.6897
17603TIP3    H274301   2.938   2.881   3.435  0.7765 -0.5412 -0.9455
17604TIP3   OH274302   1.120   1.401  17.084 -0.0991  0.0259  0.4232
17604TIP3    H174303   1.091   1.492  17.071 -0.8146 -0.2886 -0.2230
17604TIP3    H274304   1.184   1.407  17.155  0.2228  1.1033  0.0575
17605TIP3   OH274305   6.030   0.833   1.299 -0.3234  0.2936 -0.3693
17605TIP3    H174306   5.967   0.784   1.247 -0.1278  0.9624 -1.2659
17605TIP3    H274307   6.032   0.920   1.258  0.4962  0.5639  0.2166
17606TIP3   OH274308   1.943   1.612  13.438  0.1584 -0.0909  0.3235
17606TIP3    H174309   1.979   1.571  13.516 -1.2529  0.5177  1.3330
17606TIP3    H274310   1.894   1.687  13.471 -0.2000  0.3706 -1.1837
17607TIP3   OH274311   4.710   2.606   3.479  0.3372 -0.1935 -0.4667
17607TIP3    H174312   4.755   2.645   3.554  0.8030 -0.4119 -0.6299
17607TIP3    H274313   4.625   2.577   3.513 -0.4812  1.9041 -0.5617
17608TIP3   OH274314   3.877   2.407  16.614  0.4987 -0.1241 -0.3242
17608TIP3    H174315   3.844   2.390  16.526 -0.2482 -0.0162 -0.0763
17608TIP3    H274316   3.919   2.325  16.640  0.2419 -0.3395 -0.5810
17609TIP3   OH274317   1.665   6.408   2.811  0.2510  0.0107 -0.3754
17609TIP3    H174318   1.583   6.454   2.826  0.9787  1.5785 -1.0295
17609TIP3    H274319   1.649   6.319   2.844 -1.8882  0.0908 -1.0833
17610TIP3   OH274320   1.934   3.302   6.135 -0.2546  0.0144 -1.0454
17610TIP3    H174321   1.959   3.292   6.043  1.0637  0.2825 -0.7334
17610TIP3    H274322   1.846   3.339   6.132  0.0257  0.6217 -2.1976
17611TIP3   OH274323   4.756   5.038   4.390 -0.1680  0.5150 -0.3484
17611TIP3    H174324   4.819   4.994   4.447  0.6761  1.3338 -0.6102
17611TIP3    H274325   4.705   5.094   4.449  0.0164  0.5886 -0.2563
17612TIP3   OH274326   6.292   4.143  14.451 -0.2555  0.1822  0.0351
17612TIP3    H174327   6.305   4.055  14.485 -0.8580  0.1429  0.1832
17612TIP3    H274328   6.225   4.133  14.383  1.9599  0.0178 -2.2788
17613TIP3   OH274329   2.346   2.599   4.529 -0.1349 -0.0106 -0.0988
17613TIP3    H174330   2.418   2.640   4.578 -1.3467 -1.0113  2.7477
17613TIP3    H274331   2.324   2.521   4.581 -1.2469 -1.4679 -2.5737
17614TIP3   OH274332   3.529   3.759  13.563 -0.0815 -0.1687 -0.0181
17614TIP3    H174333   3.582   3.716  13.631  1.9186 -0.0862 -1.4219
17614TIP3    H274334   3.485   3.688  13.518 -1.2476 -0.2407  1.1767
17615TIP3   OH274335   2.585   1.393   4.611 -0.1334 -0.8210 -0.3295
17615TIP3    H174336   2.642   1.465   4.585  2.1516 -1.8431  1.4843
17615TIP3    H274337   2.507   1.436   4.647  0.8194  0.7338 -0.0368
17616TIP3   OH274338   4.987   4.742   3.352 -0.0024  0.1623  0.0289
17616TIP3    H174339   5.061   4.793   3.320 -1.4759  3.7462  1.7549
17616TIP3    H274340   4.948   4.704   3.274  0.3630  3.0299 -1.6729
17617TIP3   OH274341   1.155   4.319  15.676 -0.3407 -0.4894 -0.2668
17617TIP3    H174342   1.216   4.277  15.616  0.6737  0.9755 -0.3089
17617TIP3    H274343   1.096   4.369  15.620  0.4060  0.6192 -0.0958
17618TIP3   OH274344   5.642   2.496   3.440 -0.6073  0.0531 -0.6991
17618TIP3    H174345   5.713   2.473   3.380  0.6756  2.1419 -0.0751
17618TIP3    H274346   5.685   2.539   3.514 -2.5641  2.3482 -0.7636
17619TIP3   OH274347   1.061   3.584  14.997 -0.7943  0.5831 -0.3478
17619TIP3    H174348   1.071   3.679  14.990  1.0597  0.3984 -0.7442
17619TIP3    H274349   0.986   3.572  15.056 -1.6401  2.2630 -1.0021
17620TIP3   OH274350   6.775   1.102  16.473  0.1180 -0.2375  0.5780
17620TIP3    H174351   6.781   1.032  16.408 -1.5999 -0.7736  0.9466
17620TIP3    H274352   6.712   1.070  16.537  2.0029  0.1416  2.7324
17621TIP3   OH274353   1.593   1.047   3.370 -0.3536  0.3979 -0.7040
17621TIP3    H174354   1.651   1.123   3.367 -1.6249  1.5782  1.5265
17621TIP3    H274355   1.574   1.027   3.279  1.4349  1.6119 -1.3973
17622TIP3   OH274356   3.680   5.948  14.325 -0.2743 -0.0053  0.9475
17622TIP3    H174357   3.764   5.946  14.370 -0.2965  1.5743  1.1224
17622TIP3    H274358   3.658   5.856  14.311 -0.0978 -0.5621  3.8003
17623TIP3   OH274359   1.010   1.598  11.242  0.2069  0.0971  0.0822
17623TIP3    H174360   1.041   1.507  11.241  0.6395  0.2197  1.1767
17623TIP3    H274361   0.972   1.611  11.155  1.7454 -0.5900 -0.7401
17624TIP3   OH274362   3.587   6.691   1.250  0.3693  0.3705  0.3685
17624TIP3    H174363   3.663   6.639   1.276  0.9339  1.5086  1.0603
17624TIP3    H274364   3.613   6.782   1.264 -0.8652  0.8208 -0.0704
17625TIP3   OH274365   3.041   2.145   0.757  0.6605  0.4522  0.1966
17625TIP3    H174366   3.032   2.054   0.728 -1.9958  0.5248  0.5391
17625TIP3    H274367   3.056   2.195   0.676  0.7307 -0.1300 -0.1537
17626TIP3   OH274368   2.039   3.366  15.418 -0.1070  0.7456 -0.4597
17626TIP3    H174369   2.111   3.426  15.403  0.2959 -0.3320 -3.4072
17626TIP3    H274370   1.988   3.367  15.337 -0.7669 -1.9199 -0.1974
17627TIP3   OH274371   2.805   6.364  11.056  0.1766 -0.3429  0.3711
17627TIP3    H174372   2.769   6.281  11.024  0.4123  0.0286 -0.9452
17627TIP3    H274373   2.882   6.380  11.001 -0.3107  1.1117  0.0480
17628TIP3   OH274374   2.058   5.758   3.859  0.2352 -0.6483 -0.4896
17628TIP3    H174375   2.076   5.822   3.789  1.8404 -0.5495 -0.0351
17628TIP3    H274376   1.969   5.729   3.842 -0.4485  1.4931 -0.8895
17629TIP3   OH274377   4.293   1.508   3.616 -0.6337 -0.2872 -0.0174
17629TIP3    H174378   4.354   1.436   3.599  0.3172  0.4949  0.0452
17629TIP3    H274379   4.274   1.545   3.530 -0.9581 -0.4661 -0.0265
17630TIP3   OH274380   5.441   2.093  11.630 -0.0082 -0.0198  0.0813
17630TIP3    H174381   5.358   2.071  11.589  0.0155  1.3128 -0.7566
17630TIP3    H274382   5.506   2.042  11.582 -0.3189 -1.1665  0.8263
17631TIP3   OH274383   4.460   0.414   2.317  0.0289 -0.2578  0.0397
17631TIP3    H174384   4.523   0.479   2.347  0.1402 -1.8687  3.9857
17631TIP3    H274385   4.479   0.402   2.224  1.5836  3.4695 -0.2815
17632TIP3   OH274386   3.453   3.301   5.262  0.2388  0.0009 -0.4003
17632TIP3    H174387   3.362   3.289   5.235 -0.1244 -0.9191  1.0489
17632TIP3    H274388   3.456   3.262   5.350  1.7233  1.2125  0.1199
17633TIP3   OH274389   4.793   3.683   5.967 -0.0030  0.0645 -0.2918
17633TIP3    H174390   4.713   3.689   6.019 -0.0642  0.2670 -0.4079
17633TIP3    H274391   4.762   3.679   5.876  0.0660 -1.0887 -0.2813
17634TIP3   OH274392   4.594   6.722   2.813 -0.0652 -0.3229  0.6476
17634TIP3    H174393   4.559   6.805   2.845  1.9645  0.5912  0.6998
17634TIP3    H274394   4.661   6.698   2.877  1.4734 -0.3904 -0.9074
17635TIP3   OH274395   6.394   1.122  12.543  0.1308 -0.4120 -0.7038
17635TIP3    H174396   6.387   1.169  12.460  1.2189 -0.5107 -0.8642
17635TIP3    H274397   6.308   1.081  12.555 -1.5989  3.0750  0.3725
17636TIP3   OH274398   3.419   5.302   4.309 -0.4094 -0.6537 -0.4770
17636TIP3    H174399   3.469   5.279   4.231  1.6108 -2.2381  1.1452
17636TIP3    H274400   3.378   5.220   4.336 -1.1986 -0.0999  0.0607
17637TIP3   OH274401   3.260   0.357   3.053  0.3015 -0.2641 -0.4526
17637TIP3    H174402   3.298   0.439   3.085  2.9017 -1.7519  0.6431
17637TIP3    H274403   3.332   0.314   3.008 -1.1965 -1.6642 -1.5943
17638TIP3   OH274404   0.769   0.148  13.002 -0.4190  0.3468 -0.3353
17638TIP3    H174405   0.780   0.224  12.945 -0.1722 -0.7060 -1.7392
17638TIP3    H274406   0.778   0.073  12.944  0.1263 -0.7845  1.1417
17639TIP3   OH274407   3.351   3.651  10.424 -0.4733 -0.1132 -0.3934
17639TIP3    H174408   3.296   3.707  10.478  0.9257  0.4237  0.5608
17639TIP3    H274409   3.414   3.711  10.384 -0.0676 -0.7883 -0.7891
17640TIP3   OH274410   4.563   3.493   4.600  0.1921 -0.2738 -0.7215
17640TIP3    H174411   4.602   3.527   4.519 -0.5907  0.5735 -0.7453
17640TIP3    H274412   4.630   3.508   4.667  0.5932 -0.4173 -1.0778
17641TIP3   OH274413   3.491   6.352  15.727  0.3241  0.1366  0.6637
17641TIP3    H174414   3.478   6.346  15.822 -0.8296 -0.7480  0.4718
17641TIP3    H274415   3.541   6.432  15.715  0.0520  0.5319  1.9856
17642TIP3   OH274416   0.013   0.919  16.266 -0.2109  0.7980 -0.2332
17642TIP3    H174417   0.095   0.967  16.261  1.0301 -1.0773  0.9683
17642TIP3    H274418   0.037   0.828  16.249 -1.7754 -0.0159  1.5730
17643TIP3   OH274419   6.212   1.022  15.081  0.2392 -0.2527  0.1125
17643TIP3    H174420   6.145   1.018  15.150  1.8875 -1.8549  1.7440
17643TIP3    H274421   6.194   0.945  15.027 -0.8403  0.8146 -1.1128
17644TIP3   OH274422   6.791   6.488   4.830 -0.3879  0.4396 -0.5062
17644TIP3    H174423   6.725   6.419   4.822 -1.1184  0.8308  1.5066
17644TIP3    H274424   6.741   6.568   4.847  0.5439  0.5019  2.6055
17645TIP3   OH274425   6.656   6.228  15.104  0.0350 -0.2092 -0.3036
17645TIP3    H174426   6.603   6.153  15.133  1.3155 -0.7203  0.7838
17645TIP3    H274427   6.605   6.304  15.131 -0.0299 -0.6897  1.0041
17646TIP3   OH274428   4.068   6.796   0.567  0.5541 -0.2695 -0.3736
17646TIP3    H174429   4.039   6.709   0.539 -3.4121  0.1024  1.8503
17646TIP3    H274430   4.095   6.784   0.658  0.1628  0.7322 -0.1105
17647TIP3   OH274431   2.964   0.039  14.652 -0.3015  0.2786  0.1805
17647TIP3    H174432   3.000   0.097  14.585  0.7376 -2.4998 -1.8065
17647TIP3    H274433   3.035   0.027  14.714 -0.2142  0.3881  0.1018
17648TIP3   OH274434   4.791   4.812  11.133 -0.4884 -0.6514  0.3597
17648TIP3    H174435   4.701   4.788  11.109 -0.5131  0.6330 -1.0034
17648TIP3    H274436   4.781   4.885  11.194 -0.4461  1.0581 -1.5434
17649TIP3   OH274437   4.937   6.177  13.080 -0.3932 -0.0861 -0.1131
17649TIP3    H174438   4.857   6.231  13.080 -0.8573 -0.7504  0.5690
17649TIP3    H274439   4.909   6.093  13.114  0.5696 -0.3949 -0.0552
17650TIP3   OH274440   6.697   4.052  10.956  0.7923  0.1352 -0.1149
17650TIP3    H174441   6.669   3.970  10.914  2.0521 -1.5583  2.1100
17650TIP3    H274442   6.780   4.073  10.912  0.8137 -0.1907 -0.2348
17651TIP3   OH274443   5.885   2.349   6.971 -0.1829  0.4229 -0.1434
17651TIP3    H174444   5.894   2.253   6.969 -1.1839  0.2813  0.8284
17651TIP3    H274445   5.842   2.371   6.889 -0.5811 -0.0595 -0.0729
17652TIP3   OH274446   4.769   2.726   3.016 -0.2030 -0.1867 -0.4015
17652TIP3    H174447   4.696   2.738   2.954 -1.0415  1.7615  0.8459
17652TIP3    H274448   4.733   2.669   3.084  0.3186 -1.3536 -1.0985
17653TIP3   OH274449   2.423   0.695   6.272  0.4604 -0.0854  0.3005
17653TIP3    H174450   2.463   0.610   6.293 -0.2944 -0.5727 -0.1982
17653TIP3    H274451   2.343   0.697   6.325  0.5944  0.4289  0.4888
17654TIP3   OH274452   2.207   2.093   2.646 -0.3840  0.4037  0.2587
17654TIP3    H174453   2.171   2.060   2.728 -0.5094 -2.0684 -0.7243
17654TIP3    H274454   2.301   2.080   2.655 -0.5184 -1.3425 -0.5477
17655TIP3   OH274455   0.888   2.566  16.301 -0.6443  0.5509 -0.1963
17655TIP3    H174456   0.963   2.549  16.244 -1.6481 -2.9526 -0.7182
17655TIP3    H274457   0.922   2.626  16.368  2.0207  0.7284 -1.5634
17656TIP3   OH274458   1.205   2.617  13.997  0.3092  0.0881  0.1433
17656TIP3    H174459   1.246   2.690  14.043 -1.3453  0.5777  0.8955
17656TIP3    H274460   1.134   2.656  13.947  1.2688 -0.6084 -1.9175
17657TIP3   OH274461   4.381   4.683   0.885  0.0695 -0.2683  0.3043
17657TIP3    H174462   4.304   4.670   0.941 -0.9709  2.1356 -0.4209
17657TIP3    H274463   4.397   4.597   0.846 -1.9250 -0.9772  0.9038
17658TIP3   OH274464   2.880   3.988  16.740 -1.0478 -0.2019 -0.5990
17658TIP3    H174465   2.841   4.073  16.722  1.9820  1.4212 -0.2956
17658TIP3    H274466   2.885   3.945  16.655  1.9270  2.1693 -1.8270
17659TIP3   OH274467   2.539   6.536  14.337  0.2833 -0.0087 -0.1411
17659TIP3    H174468   2.532   6.452  14.383 -0.5884 -0.1029 -0.4120
17659TIP3    H274469   2.628   6.565  14.353 -0.0589  0.0998  1.8630
17660TIP3   OH274470   2.494   3.062   4.155 -0.1997  0.0570 -0.6611
17660TIP3    H174471   2.550   2.990   4.127  1.9159  1.2585  0.2373
17660TIP3    H274472   2.450   3.030   4.234  0.5206 -0.3393 -0.4149
17661TIP3   OH274473   4.528   5.881   0.090 -0.0381  0.1505  0.2775
17661TIP3    H174474   4.531   5.813   0.023 -0.3434  0.8191 -0.4171
17661TIP3    H274475   4.521   5.832   0.172 -0.1250 -0.6629 -0.2025
17662TIP3   OH274476   5.252   3.917  14.413 -0.5868  0.1512 -0.5863
17662TIP3    H174477   5.253   4.012  14.412  1.1675  0.1970  0.1497
17662TIP3    H274478   5.260   3.891  14.321 -1.4675  0.6897 -0.8217
17663TIP3   OH274479   0.327   1.556  10.743 -0.4551  0.1021 -0.3106
17663TIP3    H174480   0.383   1.627  10.774 -0.9056 -0.5241  2.1318
17663TIP3    H274481   0.388   1.486  10.717 -0.0629  0.6671 -0.9455
17664TIP3   OH274482   2.081   2.335  13.392 -0.5176  0.0535 -0.8036
17664TIP3    H174483   1.998   2.369  13.359 -0.4750  1.7527  0.6742
17664TIP3    H274484   2.058   2.259  13.445 -1.1661  0.7039 -0.1500
17665TIP3   OH274485   4.860   3.585  11.147  0.4273 -0.4068 -0.4983
17665TIP3    H174486   4.889   3.512  11.091  0.3995 -1.0992  0.3676
17665TIP3    H274487   4.904   3.662  11.110 -0.3939 -0.6609 -2.1060
17666TIP3   OH274488   4.810   5.961  13.197 -0.6795 -0.2584 -0.4960
17666TIP3    H174489   4.748   5.955  13.270 -0.8506 -1.0705 -0.7019
17666TIP3    H274490   4.842   5.871  13.185  2.2204  0.4385  1.0534
17667TIP3   OH274491   3.627   6.089   5.483  0.5719 -0.6567 -0.4636
17667TIP3    H174492   3.589   6.032   5.416  0.5418  1.5430 -2.4473
17667TIP3    H274493   3.683   6.149   5.435  1.8156  0.0492  1.7096
17668TIP3   OH274494   5.744   3.118   2.853  0.9614 -0.4707 -0.2623
17668TIP3    H174495   5.831   3.078   2.850  0.5090 -1.5215  0.1271
17668TIP3    H274496   5.703   3.080   2.930 -0.1354 -0.6075 -0.8947
17669TIP3   OH274497   1.284   2.508   1.492 -0.6127  0.1344  0.4961
17669TIP3    H174498   1.223   2.536   1.424 -1.5121  0.6499  1.4890
17669TIP3    H274499   1.368   2.547   1.467 -0.7142 -0.4114 -0.7708
17670TIP3   OH274500   3.519   1.415  13.403  0.3575 -0.6126 -0.3895
17670TIP3    H174501   3.497   1.508  13.411 -0.8739 -1.0333  2.0054
17670TIP3    H274502   3.588   1.402  13.468  0.6092 -1.3641 -0.8002
17671TIP3   OH274503   6.473   4.013   2.508  0.7376 -0.2795 -0.1122
17671TIP3    H174504   6.433   3.931   2.481 -1.9485  0.5265  0.9621
17671TIP3    H274505   6.486   4.062   2.427 -1.2099 -0.3480 -0.5203
17672TIP3   OH274506   1.051   2.019   3.240  0.1740  0.2674  0.4211
17672TIP3    H174507   1.126   2.063   3.280  0.3859 -0.5933  0.9989
17672TIP3    H274508   1.090   1.962   3.174 -0.0466  0.4597  0.1231
17673TIP3   OH274509   0.821   1.148   0.154  0.0534  0.4594  0.3336
17673TIP3    H174510   0.782   1.222   0.107  0.5182  0.9724  0.7541
17673TIP3    H274511   0.764   1.135   0.230 -0.4929 -0.1420 -0.1669
17674TIP3   OH274512   4.206   2.293  13.868 -0.3576  0.5293 -0.0687
17674TIP3    H174513   4.259   2.328  13.941 -1.2723 -1.3190  1.5752
17674TIP3    H274514   4.119   2.331  13.883 -0.5309  0.1988 -0.2510
17675TIP3   OH274515   6.077   1.214   2.239  0.0303 -0.2912  0.7378
17675TIP3    H174516   6.004   1.170   2.195 -1.1878  1.0886  1.3198
17675TIP3    H274517   6.041   1.243   2.322  0.6745  2.0350  0.2746
17676TIP3   OH274518   4.507   5.351  15.289  0.3699 -0.0317 -0.3658
17676TIP3    H174519   4.547   5.273  15.328 -0.8732 -0.1250  0.7766
17676TIP3    H274520   4.549   5.424  15.336  1.4644  0.0140 -1.3699
17677TIP3   OH274521   0.896   4.399   3.038 -0.5435 -0.0154  0.1967
17677TIP3    H174522   0.836   4.375   3.109 -1.3421 -0.7031 -0.6836
17677TIP3    H274523   0.904   4.494   3.045 -0.2061 -0.1259  1.5082
17678TIP3   OH274524   3.282   0.287  14.087 -0.5056 -0.2108 -0.2809
17678TIP3    H174525   3.267   0.287  14.182 -0.6691  0.4212 -0.2994
17678TIP3    H274526   3.239   0.367  14.056 -0.2117 -0.2678 -0.8506
17679TIP3   OH274527   3.821   5.206  14.133 -1.0032  0.0492 -0.2943
17679TIP3    H174528   3.820   5.158  14.216 -2.6157  1.0172  0.2955
17679TIP3    H274529   3.908   5.190  14.097 -0.3488 -0.5931  1.4691
17680TIP3   OH274530   4.510   0.921  12.750 -0.1473 -0.4300  0.4049
17680TIP3    H174531   4.458   0.841  12.739  0.8081 -1.2679  1.6783
17680TIP3    H274532   4.473   0.962  12.828 -0.4723  0.2526 -0.1028
17681TIP3   OH274533   1.738   3.728  16.604  0.0062  0.2501  0.2580
17681TIP3    H174534   1.725   3.747  16.511  2.0755 -1.3604 -0.4523
17681TIP3    H274535   1.740   3.814  16.646 -1.3295  0.9924 -1.1025
17682TIP3   OH274536   1.293   3.203   5.344  0.3340  0.4562 -0.2724
17682TIP3    H174537   1.300   3.283   5.397 -0.7998  0.6477 -0.3746
17682TIP3    H274538   1.379   3.192   5.305 -0.0906  2.9926 -2.1883
17683TIP3   OH274539   5.057   1.314  16.007 -0.4384  0.0369 -0.0094
17683TIP3    H174540   5.133   1.256  16.001 -0.4685 -0.4276  2.6720
17683TIP3    H274541   4.996   1.281  15.941 -0.8688 -3.7921  1.9935
17684TIP3   OH274542   0.859   1.207  13.627  1.2337  0.4962  0.1809
17684TIP3    H174543   0.870   1.301  13.612  0.2044  0.4793 -0.7526
17684TIP3    H274544   0.900   1.165  13.551  0.9945  0.2123  0.2054
17685TIP3   OH274545   4.887   4.569  15.363  0.2397  0.7035 -0.0666
17685TIP3    H174546   4.937   4.643  15.398  1.5554 -0.1046 -0.1475
17685TIP3    H274547   4.946   4.494  15.374 -0.8478 -0.2294 -0.4871
17686TIP3   OH274548   3.725   2.620   5.667  0.1513  0.4998 -0.0251
17686TIP3    H174549   3.736   2.559   5.593  1.0164  1.9051 -1.0973
17686TIP3    H274550   3.673   2.691   5.631  0.5971  1.2085  0.7187
17687TIP3   OH274551   1.223   1.194  16.139 -0.5685  0.7955 -0.2408
17687TIP3    H174552   1.150   1.195  16.202 -1.2430  1.8295 -0.9945
17687TIP3    H274553   1.190   1.244  16.064  0.7378  0.8327 -0.8181
17688TIP3   OH274554   3.987   4.139  12.342  0.0575 -0.1528 -0.2486
17688TIP3    H174555   3.933   4.197  12.288  0.4520 -0.2446 -0.7548
17688TIP3    H274556   4.031   4.083  12.279  0.6025 -0.1976  0.1664
17689TIP3   OH274557   3.639   0.369  15.879 -0.3030  0.0249 -0.2263
17689TIP3    H174558   3.672   0.330  15.798  0.6514 -0.6287  0.4558
17689TIP3    H274559   3.638   0.463  15.861 -1.3957 -0.1889 -1.4445
17690TIP3   OH274560   4.809   6.108  11.190  0.3756  0.1981  0.1317
17690TIP3    H174561   4.830   6.201  11.203 -0.1862  0.2264  0.9307
17690TIP3    H274562   4.788   6.076  11.278  0.1529 -0.5876 -0.2013
17691TIP3   OH274563   1.386   1.935   3.534 -0.2366  0.0194 -0.4090
17691TIP3    H174564   1.335   1.854   3.538  0.4643 -0.3842  1.1177
17691TIP3    H274565   1.447   1.928   3.607  1.6767  0.7048 -1.8563
17692TIP3   OH274566   0.207   3.682  15.314 -0.0708  0.6108  0.3415
17692TIP3    H174567   0.120   3.662  15.348  0.8075 -1.2169  1.6961
17692TIP3    H274568   0.237   3.757  15.366 -0.9717  1.5192 -0.4225
17693TIP3   OH274569   4.850   6.721  12.995  0.4620 -0.4204 -0.6227
17693TIP3    H174570   4.787   6.662  13.037  0.1360  0.8830  0.8018
17693TIP3    H274571   4.858   6.795  13.056  2.2833  0.1268 -1.4539
17694TIP3   OH274572   1.043   4.445  12.469  0.4273 -0.2913  0.5992
17694TIP3    H174573   0.994   4.433  12.550 -1.8155  2.0232 -0.2686
17694TIP3    H274574   0.981   4.420  12.400  1.5509 -0.2089 -0.4807
17695TIP3   OH274575   4.614   5.368  12.730 -0.0535 -0.0518 -0.0456
17695TIP3    H174576   4.613   5.404  12.641  0.4931 -0.1323 -0.0856
17695TIP3    H274577   4.566   5.285  12.723 -1.5694  0.7598  0.1022
17696TIP3   OH274578   3.289   5.651   4.672  0.2773  0.5696  0.5617
17696TIP3    H174579   3.270   5.739   4.641 -0.2084  0.0378 -0.7829
17696TIP3    H274580   3.255   5.594   4.602 -1.1690 -0.7439  2.2392
17697TIP3   OH274581   3.126   0.804  11.978  0.6019 -0.4033  0.5909
17697TIP3    H174582   3.195   0.842  11.924  1.1411  0.5158  1.8815
17697TIP3    H274583   3.047   0.853  11.955  0.3073 -1.5237 -0.9590
17698TIP3   OH274584   2.116   0.747  12.138  0.2870  0.2022  0.0191
17698TIP3    H174585   2.110   0.842  12.148  0.7867  0.0292  2.5319
17698TIP3    H274586   2.039   0.713  12.184  1.1147 -0.6627  0.8012
17699TIP3   OH274587   5.847   0.970  17.160 -0.4328  0.6670 -0.3632
17699TIP3    H174588   5.939   0.986  17.181  0.4078  1.0913 -3.7079
17699TIP3    H274589   5.802   1.051  17.185  0.6288  1.5314 -1.1606
17700TIP3   OH274590   1.921   0.595   1.525  0.0080  1.3663  0.7852
17700TIP3    H174591   1.968   0.575   1.606  1.4122  0.3368 -0.2147
17700TIP3    H274592   1.981   0.651   1.475 -0.3350  1.0462 -0.0108
17701TIP3   OH274593   4.758   2.985   1.237  0.3130  0.2802 -0.1506
17701TIP3    H174594   4.696   2.958   1.169  1.4167 -0.3344 -0.9462
17701TIP3    H274595   4.844   2.974   1.197  1.1030 -1.8019  1.8953
17702TIP3   OH274596   1.058   6.010  13.851  0.0117 -0.3447  0.0840
17702TIP3    H174597   1.082   6.054  13.769 -1.6436  1.2486  0.3796
17702TIP3    H274598   0.980   5.959  13.829 -0.4645  0.1216  0.6415
17703TIP3   OH274599   4.027   3.188   3.599 -0.0519 -0.5480  0.5477
17703TIP3    H174600   3.996   3.172   3.688 -0.9600 -0.6966  0.2160
17703TIP3    H274601   4.019   3.104   3.555  2.2802 -0.9995  0.8355
17704TIP3   OH274602   4.725   4.526   3.618  0.1813  0.0599 -0.2677
17704TIP3    H174603   4.668   4.595   3.652 -0.0224 -0.3118  0.1536
17704TIP3    H274604   4.690   4.506   3.531 -0.9284 -0.8181  0.3504
17705TIP3   OH274605   6.069   5.028  13.459  0.0070 -0.1492  0.0751
17705TIP3    H174606   5.981   5.010  13.493 -0.3101 -0.6550 -0.9506
17705TIP3    H274607   6.101   4.942  13.429 -0.0458  0.3517 -1.5458
17706TIP3   OH274608   4.266   4.625   3.152  0.3731 -0.2542 -0.9112
17706TIP3    H174609   4.343   4.606   3.098  0.6136  2.1334 -1.5233
17706TIP3    H274610   4.193   4.627   3.091 -0.1546 -2.0537 -0.3968
17707TIP3   OH274611   5.124   5.737   3.105  0.0251  0.4415 -0.4128
17707TIP3    H174612   5.097   5.646   3.093  2.2308 -0.2045 -1.0505
17707TIP3    H274613   5.183   5.754   3.031  1.6798  1.5227  1.0695
17708TIP3   OH274614   0.494   0.467  11.759  0.6230  0.3963  0.2475
17708TIP3    H174615   0.465   0.557  11.744  2.2147  1.1571  1.4055
17708TIP3    H274616   0.518   0.435  11.672 -0.2220  0.9909 -0.2151
17709TIP3   OH274617   1.688   4.637   3.630 -0.3143 -0.7989  0.4941
17709TIP3    H174618   1.673   4.687   3.550  0.1175 -0.9077  0.3403
17709TIP3    H274619   1.603   4.636   3.675 -0.6897 -1.1805 -0.2089
17710TIP3   OH274620   5.484   2.435  15.772 -0.4798  0.3111 -0.3244
17710TIP3    H174621   5.504   2.518  15.729  0.9409 -0.2893 -0.9100
17710TIP3    H274622   5.454   2.378  15.701 -1.9674  0.4574  0.1598
17711TIP3   OH274623   0.990   2.056   1.473  0.1122 -0.5918 -0.5073
17711TIP3    H174624   0.905   2.013   1.479 -0.0473 -0.2973 -0.6277
17711TIP3    H274625   1.016   2.047   1.381 -0.4345  0.5198 -0.7927
17712TIP3   OH274626   2.826   6.569   2.170 -0.3435 -0.0439 -0.3397
17712TIP3    H174627   2.791   6.485   2.140  0.3272 -0.3631 -0.2438
17712TIP3    H274628   2.788   6.633   2.111  0.2920 -0.5713 -1.3404
17713TIP3   OH274629   6.679   4.227  10.735 -0.3302  0.2404  0.3079
17713TIP3    H174630   6.677   4.148  10.680  0.1023  0.1540  0.4161
17713TIP3    H274631   6.639   4.199  10.817 -0.8405  0.3291  0.0928
17714TIP3   OH274632   3.755   2.377  11.700  0.5238  0.3995 -0.1720
17714TIP3    H174633   3.783   2.395  11.610 -1.6201 -0.4103 -1.0766
17714TIP3    H274634   3.816   2.310  11.732 -0.2983 -1.3738 -2.0708
17715TIP3   OH274635   1.780   6.181   2.396 -0.3189 -0.5440 -0.3097
17715TIP3    H174636   1.803   6.230   2.475 -0.1146 -1.3472  0.1348
17715TIP3    H274637   1.848   6.206   2.333 -1.0275  0.8482 -0.5656
17716TIP3   OH274638   3.731   0.355  14.737 -0.2829 -0.0118 -0.2369
17716TIP3    H174639   3.726   0.412  14.813  1.0371 -1.8347  1.2905
17716TIP3    H274640   3.809   0.384  14.689  0.6769 -0.7862  0.8075
17717TIP3   OH274641   4.923   3.642   0.921 -0.0469 -0.2186  0.5083
17717TIP3    H174642   4.930   3.737   0.931 -0.3446 -0.2222  0.7562
17717TIP3    H274643   5.011   3.609   0.939 -0.1886 -0.0793  1.5043
17718TIP3   OH274644   1.984   2.752   1.399  0.4351 -0.1054  0.1700
17718TIP3    H174645   1.891   2.734   1.414  0.4574 -1.6481 -1.2728
17718TIP3    H274646   2.030   2.692   1.458  0.5301  0.1900  0.4010
17719TIP3   OH274647   2.999   3.056  12.297 -0.4366  0.7682  0.2576
17719TIP3    H174648   3.060   3.128  12.313 -0.3462  0.5938  0.7145
17719TIP3    H274649   3.045   2.998  12.237  0.1304  0.2869  1.1387
17720TIP3   OH274650   3.091   5.748  15.867 -0.2872 -0.0748  0.4978
17720TIP3    H174651   3.139   5.747  15.950  1.6033 -2.6397 -0.5259
17720TIP3    H274652   3.155   5.773  15.801 -1.1298 -0.5015 -0.5202
17721TIP3   OH274653   4.069   5.410  16.463 -0.1465 -0.3128  0.3783
17721TIP3    H174654   4.134   5.448  16.404 -0.1652 -0.2749  0.3822
17721TIP3    H274655   4.013   5.483  16.489 -0.4384 -0.4164  0.0544
17722TIP3   OH274656   4.215   5.935  14.524 -0.3209  0.0308  0.0037
17722TIP3    H174657   4.248   6.018  14.559  0.6134 -0.5134  0.4436
17722TIP3    H274658   4.209   5.950  14.430 -2.0227  1.2274  0.2523
17723TIP3   OH274659   1.890   1.371  16.356 -0.1603  0.6475  0.8644
17723TIP3    H174660   1.977   1.400  16.328  0.2866  0.0364  1.6006
17723TIP3    H274661   1.882   1.282  16.321 -0.2266  0.4624  1.3413
17724TIP3   OH274662   1.548   4.599  16.728 -0.2035 -0.2962  0.0842
17724TIP3    H174663   1.595   4.605  16.812 -1.5052  0.2524  0.8104
17724TIP3    H274664   1.601   4.650  16.667  1.5547 -1.9124  0.1567
17725TIP3   OH274665   5.037   5.932  16.510  0.0545  0.6320 -0.9362
17725TIP3    H174666   4.971   5.912  16.444 -0.0123  2.6878 -1.5354
17725TIP3    H274667   5.114   5.880  16.484 -1.6923 -3.2107  0.7537
17726TIP3   OH274668   3.732   2.222   3.819  0.3223 -0.2263  0.2655
17726TIP3    H174669   3.803   2.172   3.861  0.3937  0.1769  0.6270
17726TIP3    H274670   3.719   2.297   3.876 -1.7895 -1.3146  1.3138
17727TIP3   OH274671   4.075   3.767  15.520 -0.0667  0.5242  0.1908
17727TIP3    H174672   4.084   3.738  15.429  3.4445 -1.1372  0.8899
17727TIP3    H274673   4.116   3.854  15.521 -0.2919  0.6307  0.1464
17728TIP3   OH274674   4.838   4.226   2.014  0.2464  0.7852 -0.0905
17728TIP3    H174675   4.808   4.144   2.053  1.4444 -0.6500 -2.0023
17728TIP3    H274676   4.835   4.210   1.920  2.4300  2.2216 -0.4752
17729TIP3   OH274677   4.435   4.737   2.752 -0.0007  0.6943 -0.3227
17729TIP3    H174678   4.468   4.827   2.746  1.5961  0.2308  0.9799
17729TIP3    H274679   4.501   4.690   2.802 -2.0034 -0.6180  1.2808
17730TIP3   OH274680   0.113   3.210  15.703  0.6322  0.0156 -0.2059
17730TIP3    H174681   0.154   3.297  15.709  1.4714 -0.3481 -0.5271
17730TIP3    H274682   0.159   3.167  15.632  0.2485 -0.7145 -0.0178
17731TIP3   OH274683   0.669   6.042  15.449 -0.0816 -0.0282  0.0354
17731TIP3    H174684   0.605   6.023  15.518 -0.8179  0.7272 -0.4252
17731TIP3    H274685   0.710   5.957  15.431 -0.7033 -0.4566  0.5871
17732TIP3   OH274686   6.741   6.020   0.280  0.0252 -0.5389 -0.5380
17732TIP3    H174687   6.821   5.997   0.327 -0.9009 -1.7123  0.5555
17732TIP3    H274688   6.681   5.947   0.297  0.0473 -1.8187 -4.7590
17733TIP3   OH274689   5.304   2.842  13.156  0.0131 -0.2855  0.3736
17733TIP3    H174690   5.398   2.846  13.137  0.3344  0.5448  1.9569
17733TIP3    H274691   5.278   2.754  13.129  1.1404 -0.3680 -0.5340
17734TIP3   OH274692   0.021   1.219  14.749  0.3054 -0.4871 -0.2257
17734TIP3    H174693  -0.013   1.152  14.807  0.5776  1.1519  1.9573
17734TIP3    H274694  -0.018   1.301  14.781  0.2719  0.4984 -2.5408
17735TIP3   OH274695   5.642   2.988   6.042  0.4035  0.0159 -0.6017
17735TIP3    H174696   5.686   2.914   6.084 -0.1745 -0.8643 -1.5149
17735TIP3    H274697   5.666   3.064   6.096 -0.1586 -1.0350  1.1991
17736TIP3   OH274698   0.601   3.317  12.574  0.1291 -0.1787  0.2596
17736TIP3    H174699   0.689   3.295  12.605 -0.0553  0.6698  1.4895
17736TIP3    H274700   0.614   3.353  12.487  0.9017 -0.9005  0.0695
17737TIP3   OH274701   2.157   1.052   0.940  0.0967 -0.5697  0.2646
17737TIP3    H174702   2.210   1.114   0.890  0.4970 -0.6692  0.5579
17737TIP3    H274703   2.073   1.050   0.894  0.5742 -0.9385 -0.6309
17738TIP3   OH274704   2.148   5.884   0.896  0.3471  0.1385  0.3962
17738TIP3    H174705   2.229   5.928   0.921  1.1331 -0.6978 -0.5658
17738TIP3    H274706   2.173   5.828   0.822 -0.9297 -0.7580  0.6050
17739TIP3   OH274707   1.382   3.721  16.517  0.4210  0.1533 -0.0486
17739TIP3    H174708   1.432   3.684  16.444  2.8328  2.4561  0.2791
17739TIP3    H274709   1.294   3.733  16.482  1.3680  0.6965 -2.4346
17740TIP3   OH274710   1.994   4.065  13.255  0.3567  0.2112 -0.1239
17740TIP3    H174711   2.067   4.114  13.292 -0.0504  0.5013  0.3094
17740TIP3    H274712   1.955   4.125  13.191  0.4654  0.0809 -0.3109
17741TIP3   OH274713   2.566   2.759  11.828  0.1936  0.3019  0.1128
17741TIP3    H174714   2.472   2.758  11.846  0.4422 -0.1416  1.5386
17741TIP3    H274715   2.575   2.724  11.739 -0.8893 -1.1595  0.5482
17742TIP3   OH274716   0.713   5.846   3.590 -0.5774  0.1899 -0.2008
17742TIP3    H174717   0.636   5.902   3.587  0.1107  1.1602 -2.6362
17742TIP3    H274718   0.690   5.772   3.533 -0.6477 -0.8928  1.1904
17743TIP3   OH274719   4.535   2.471  15.354  0.0723  0.1229 -0.3539
17743TIP3    H174720   4.609   2.440  15.302  0.2920 -1.1880  0.6949
17743TIP3    H274721   4.462   2.474  15.291 -0.0189 -2.8182 -0.5268
17744TIP3   OH274722   0.194   2.676  15.346 -0.1195  0.3590 -0.3534
17744TIP3    H174723   0.259   2.677  15.275 -1.4814 -0.1155 -1.6620
17744TIP3    H274724   0.201   2.589  15.384 -0.2184  0.1873 -0.7221
17745TIP3   OH274725   5.658   4.656  16.765 -0.2380 -0.9043 -0.1483
17745TIP3    H174726   5.655   4.685  16.856  3.6773 -1.3785  0.3212
17745TIP3    H274727   5.738   4.695  16.730 -2.3497  0.4838 -3.9524
17746TIP3   OH274728   5.264   5.080   4.870 -0.0867 -0.5373  0.3159
17746TIP3    H174729   5.257   5.174   4.887  0.0474 -0.1877 -1.3728
17746TIP3    H274730   5.331   5.049   4.931  0.1637  0.5439  0.6080
17747TIP3   OH274731   6.458   6.447  16.590  0.0175  0.8527 -0.6836
17747TIP3    H174732   6.537   6.500  16.583  0.9008 -0.3783 -0.4354
17747TIP3    H274733   6.488   6.365  16.629 -1.3911  0.3556 -0.5822
17748TIP3   OH274734   0.995   5.411  11.440  0.0474  0.2183 -0.2581
17748TIP3    H174735   0.923   5.349  11.427  0.1216  0.1199 -0.2077
17748TIP3    H274736   0.966   5.492  11.398 -0.8648  0.7520  1.2826
17749TIP3   OH274737   4.972   0.088  12.301  0.1426 -0.4156  0.0018
17749TIP3    H174738   4.898   0.149  12.301 -0.2247 -0.8139  1.4260
17749TIP3    H274739   5.033   0.125  12.365  2.7193  1.6064 -3.3192
17750TIP3   OH274740   0.495   1.121  13.966 -0.1399 -0.5041 -0.3956
17750TIP3    H174741   0.568   1.114  13.904 -1.1110  0.1537 -1.6652
17750TIP3    H274742   0.476   1.030  13.991  0.7864 -0.7138 -0.4291
17751TIP3   OH274743   6.588   4.677   5.142 -0.3805  0.2130  0.3738
17751TIP3    H174744   6.670   4.689   5.095 -0.2723 -1.9089 -0.0738
17751TIP3    H274745   6.614   4.646   5.229 -0.6976 -1.3125 -0.0565
17752TIP3   OH274746   0.164   5.463   2.102 -0.0780 -0.1095 -0.0138
17752TIP3    H174747   0.207   5.548   2.111  0.8327 -0.5560 -0.0395
17752TIP3    H274748   0.230   5.407   2.063 -0.2444 -1.1622  1.1723
17753TIP3   OH274749   6.578   0.400   4.393  0.0887 -0.0953  0.1349
17753TIP3    H174750   6.494   0.441   4.373  0.3611  0.4554  0.0856
17753TIP3    H274751   6.621   0.391   4.308  0.5340  0.6507  0.2734
17754TIP3   OH274752   1.911   1.376   0.763  0.2919 -0.0594 -0.0043
17754TIP3    H174753   1.986   1.387   0.704 -0.8278 -0.7668 -1.6177
17754TIP3    H274754   1.894   1.282   0.762  0.0144 -0.0339  1.1870
17755TIP3   OH274755   1.066   3.707   6.366 -0.0610  0.2109  0.6676
17755TIP3    H174756   1.086   3.669   6.452  1.5318 -0.9995 -0.1762
17755TIP3    H274757   1.131   3.776   6.355 -1.0281  1.1896  0.9030
17756TIP3   OH274758   5.668   4.626   4.677 -0.0587  0.4962  0.4760
17756TIP3    H174759   5.594   4.577   4.713  1.4693 -1.7416  0.7195
17756TIP3    H274760   5.647   4.634   4.583  0.0809 -1.5390  0.2239
17757TIP3   OH274761   3.997   4.462  16.647  0.0192 -0.3389  0.1675
17757TIP3    H174762   3.969   4.451  16.556 -0.8419 -1.1682  0.5116
17757TIP3    H274763   3.923   4.505  16.690  0.4828  0.1886  0.4572
17758TIP3   OH274764   1.948   6.381  13.675 -0.1052 -0.1308 -0.3998
17758TIP3    H174765   1.966   6.453  13.613 -0.9823 -1.3124 -2.1179
17758TIP3    H274766   1.854   6.386  13.691  0.0187 -0.2161  0.3978
17759TIP3   OH274767   2.577   5.081  11.908  0.5225  1.0339 -0.2748
17759TIP3    H174768   2.634   5.132  11.965  1.1191 -0.8342  0.8876
17759TIP3    H274769   2.633   5.054  11.835  0.2749  1.7997 -0.7564
17760TIP3   OH274770   2.059   2.552   1.577  0.2507  0.4295  0.3055
17760TIP3    H174771   2.102   2.468   1.596 -2.5448 -0.8717  1.4614
17760TIP3    H274772   2.067   2.602   1.658  0.9649  0.8811 -0.0297
17761TIP3   OH274773   5.084   2.121   3.936  0.3913  0.5399  0.0677
17761TIP3    H174774   5.161   2.095   3.986  1.1052  1.2273 -0.6526
17761TIP3    H274775   5.112   2.118   3.844 -0.8284 -0.4999 -0.3130
17762TIP3   OH274776   4.913   0.622  14.241 -0.6572  0.1182  0.4473
17762TIP3    H174777   4.843   0.617  14.306 -0.0128  0.3010  1.1802
17762TIP3    H274778   4.993   0.629  14.293 -0.1055  0.0845 -0.3733
17763TIP3   OH274779   4.322   2.784  12.727  0.7766  0.1960 -0.2006
17763TIP3    H174780   4.326   2.729  12.649  1.6892 -2.2887  1.4426
17763TIP3    H274781   4.387   2.852  12.712  1.9478 -1.0607 -1.0775
17764TIP3   OH274782   6.279   3.704   1.851  0.1837 -0.3361  0.2263
17764TIP3    H174783   6.233   3.775   1.895 -0.5985  0.3645 -1.6481
17764TIP3    H274784   6.248   3.625   1.894 -2.2000  0.1735 -0.4388
17765TIP3   OH274785   0.743   3.387  16.068  0.1962 -0.1080 -0.0585
17765TIP3    H174786   0.782   3.457  16.016 -1.5262 -0.8988 -2.6312
17765TIP3    H274787   0.750   3.417  16.158  0.1780  3.0360 -0.9884
17766TIP3   OH274788   2.436   3.790  16.197 -0.0955  0.4190  0.1745
17766TIP3    H174789   2.364   3.852  16.194 -0.6275 -0.1615  0.6669
17766TIP3    H274790   2.397   3.706  16.172  1.0679  0.6294 -2.7984
17767TIP3   OH274791   4.672   4.292   5.446 -0.0219 -0.2036 -0.1235
17767TIP3    H174792   4.629   4.262   5.526 -1.1070  1.4668 -0.0374
17767TIP3    H274793   4.761   4.315   5.474 -0.1898 -0.2541  0.4561
17768TIP3   OH274794   5.223   2.383  14.285  0.0788 -0.2353 -0.0441
17768TIP3    H174795   5.269   2.336  14.354  0.2142 -0.4086 -0.2505
17768TIP3    H274796   5.217   2.473  14.318 -1.3076 -0.6419  0.9171
17769TIP3   OH274797   2.295   5.487   0.670 -0.6358  0.1378  0.1261
17769TIP3    H174798   2.238   5.454   0.600  0.4130  1.0071 -1.1834
17769TIP3    H274799   2.274   5.580   0.676  0.7517  0.5157 -0.5190
17770TIP3   OH274800   2.535   0.102  15.534  0.0416  0.2560 -0.1221
17770TIP3    H174801   2.512   0.163  15.465  0.3797  0.8508  0.2873
17770TIP3    H274802   2.478   0.026  15.519 -1.3786  1.2360  0.2128
17771TIP3   OH274803   0.302   6.291  15.395 -0.1828 -0.1342  0.4611
17771TIP3    H174804   0.311   6.353  15.324  0.1063 -0.5903  0.0922
17771TIP3    H274805   0.327   6.207  15.357 -1.1036 -0.5748  0.7986
17772TIP3   OH274806   4.029   5.653   0.408 -0.0729  0.0611 -0.5226
17772TIP3    H174807   4.114   5.615   0.387 -0.0649  1.1462 -2.7031
17772TIP3    H274808   4.047   5.708   0.485  0.1200 -3.2288  2.0265
17773TIP3   OH274809   5.196   6.438  10.574  0.0455  0.4049 -0.6506
17773TIP3    H174810   5.238   6.475  10.651 -0.1872 -0.3811 -0.1318
17773TIP3    H274811   5.128   6.501  10.551 -0.2164  0.4080  0.0978
17774TIP3   OH274812   2.713   0.632   4.252  0.3506  0.1487  0.3404
17774TIP3    H174813   2.643   0.579   4.289 -0.7299  1.4135  0.1897
17774TIP3    H274814   2.741   0.584   4.174  1.0517 -1.3626  1.4681
17775TIP3   OH274815   6.807   6.024   2.830 -0.2300 -1.3062 -0.6580
17775TIP3    H174816   6.780   6.081   2.902  0.2749 -1.1212 -0.6159
17775TIP3    H274817   6.730   6.021   2.773  0.0352  0.1713 -1.1342
17776TIP3   OH274818   4.378   1.078   0.967  0.1350 -0.5112 -0.4107
17776TIP3    H174819   4.398   1.061   0.875 -0.3053 -1.4189 -0.3466
17776TIP3    H274820   4.286   1.054   0.977 -0.1017  0.5049  0.0547
17777TIP3   OH274821   3.276   4.795  11.027 -0.0165  0.1856  0.3581
17777TIP3    H174822   3.229   4.758  10.952 -0.9434  2.1170 -0.0673
17777TIP3    H274823   3.304   4.718  11.077  1.4844 -1.2245 -2.3935
17778TIP3   OH274824   2.136   5.670  16.724 -0.0965  0.2526 -0.6260
17778TIP3    H174825   2.127   5.743  16.662  1.3368  0.2523 -0.8740
17778TIP3    H274826   2.048   5.634  16.733 -0.5289  0.9991 -1.7588
17779TIP3   OH274827   1.905   5.576  12.681  0.2950  0.9702  0.0726
17779TIP3    H174828   1.844   5.571  12.755 -0.9679 -0.3346 -0.9992
17779TIP3    H274829   1.851   5.610  12.609  1.1258  0.8118 -0.6325
17780TIP3   OH274830   3.162   4.172  14.421 -0.0066  0.0523  0.1198
17780TIP3    H174831   3.187   4.149  14.511  0.7132 -0.6713 -0.2412
17780TIP3    H274832   3.189   4.263  14.411  1.5977 -0.3926  0.0879
17781TIP3   OH274833   4.503   2.784   0.379 -0.3876  0.1672 -0.1917
17781TIP3    H174834   4.522   2.697   0.414  1.0146  0.6606  0.3199
17781TIP3    H274835   4.571   2.800   0.314  0.5720  1.6365  1.0821
17782TIP3   OH274836   0.518   2.110  14.593 -0.4082 -0.3928  0.1784
17782TIP3    H174837   0.441   2.112  14.536  0.1000 -0.2098 -0.5168
17782TIP3    H274838   0.584   2.062  14.543 -1.0525 -3.5743  2.0826
17783TIP3   OH274839   5.763   3.051   3.151 -0.3083  0.5986 -0.1850
17783TIP3    H174840   5.749   3.053   3.246 -0.8657  0.3074 -0.2546
17783TIP3    H274841   5.843   3.101   3.137 -0.1954  0.5999  0.4463
17784TIP3   OH274842   0.455   1.453   0.847  0.1102  0.2703 -0.6779
17784TIP3    H174843   0.519   1.462   0.917  1.1839  0.0967 -1.6189
17784TIP3    H274844   0.371   1.470   0.890  0.9066  2.2541  0.2328
17785TIP3   OH274845   5.267   5.463   5.877  0.3061  0.0936 -0.4097
17785TIP3    H174846   5.186   5.499   5.912  0.4843 -0.2828  0.4218
17785TIP3    H274847   5.319   5.539   5.853  0.6986  0.4497  1.3674
17786TIP3   OH274848   4.483   0.078  10.422 -0.6905 -0.6608  0.0945
17786TIP3    H174849   4.486   0.171  10.444 -2.2192 -0.3815 -0.7477
17786TIP3    H274850   4.517   0.033  10.499  1.2072  0.6331  0.0805
17787TIP3   OH274851   0.286   6.145  14.924  0.1046 -0.4890 -0.0503
17787TIP3    H174852   0.221   6.201  14.883  1.1775  0.3397 -0.6670
17787TIP3    H274853   0.245   6.115  15.005 -1.0621 -0.0629 -0.4731
17788TIP3   OH274854   3.658   2.136   4.866 -0.2778  0.4454  0.5719
17788TIP3    H174855   3.731   2.103   4.919 -0.3064  0.6658  0.7483
17788TIP3    H274856   3.699   2.195   4.803 -0.0155 -1.1374 -0.7975
17789TIP3   OH274857   3.907   1.686   4.748  0.0789 -0.3074  0.2090
17789TIP3    H174858   3.913   1.633   4.668 -1.1655  0.4390 -0.4127
17789TIP3    H274859   3.895   1.622   4.818 -0.5381 -0.9050 -0.4194
17790TIP3   OH274860   6.352   1.051  16.612 -0.5249 -0.2505 -0.2136
17790TIP3    H174861   6.444   1.064  16.592 -0.6132  0.6449 -0.0749
17790TIP3    H274862   6.319   0.995  16.541 -0.4832  1.5832 -1.7560
17791TIP3   OH274863   1.578   6.010  12.012  0.9680 -0.0946 -0.2194
17791TIP3    H174864   1.591   6.005  11.917  1.8306 -0.0035 -0.1148
17791TIP3    H274865   1.531   5.929  12.034 -2.5277  1.4481 -1.1918
17792TIP3   OH274866   2.112   6.177  13.419 -0.0333  0.0036 -0.4635
17792TIP3    H174867   2.038   6.234  13.399 -0.6684 -0.6528 -0.0244
17792TIP3    H274868   2.133   6.134  13.336  1.4883  2.0077 -1.2147
17793TIP3   OH274869   6.648   0.773   4.672 -0.5350 -0.5312 -0.3265
17793TIP3    H174870   6.629   0.687   4.634  0.2452  0.5462 -3.4076
17793TIP3    H274871   6.736   0.794   4.641 -0.7848  1.4718  0.1874
17794TIP3   OH274872   2.363   4.332  11.564  0.2371 -0.1347  0.8677
17794TIP3    H174873   2.424   4.279  11.512  1.6860  2.7065 -0.5442
17794TIP3    H274874   2.308   4.376  11.499 -0.9821  0.0592  1.9914
17795TIP3   OH274875   2.102   6.201  16.138  0.4926 -0.2377  0.4491
17795TIP3    H174876   2.055   6.282  16.117  1.5033  0.9923  2.5193
17795TIP3    H274877   2.048   6.131  16.101 -1.6120  1.2501  0.5109
17796TIP3   OH274878   1.439   0.059  14.576  0.0429  0.4708  0.0953
17796TIP3    H174879   1.489   0.113  14.515  1.9117 -2.1544 -0.8690
17796TIP3    H274880   1.348   0.074  14.552  0.6616 -0.8627 -3.9003
17797TIP3   OH274881   1.845   2.384   1.868 -1.0362 -0.1537  0.4106
17797TIP3    H174882   1.870   2.390   1.960 -1.4844 -2.8465  0.7783
17797TIP3    H274883   1.822   2.474   1.843 -1.1258  0.5904  2.9615
17798TIP3   OH274884   2.992   4.152   4.780  0.1106  0.2723  0.3572
17798TIP3    H174885   2.999   4.232   4.832 -0.6814  0.4673  0.1834
17798TIP3    H274886   3.039   4.171   4.699  0.1564  0.4637  0.4287
17799TIP3   OH274887   0.263   6.506   3.188  0.5272 -0.2306  0.4042
17799TIP3    H174888   0.202   6.445   3.230  0.1143 -0.9019 -1.1005
17799TIP3    H274889   0.335   6.450   3.159 -0.1294 -0.1499 -1.5172
17800TIP3   OH274890   6.407   1.953  14.382  0.1503  0.7110 -0.5074
17800TIP3    H174891   6.416   1.943  14.476  0.5944  0.5211 -0.5696
17800TIP3    H274892   6.465   2.026  14.360  1.0386 -0.0755 -0.8131
17801TIP3   OH274893   4.324   1.589   1.596 -0.3738 -0.1597  0.2332
17801TIP3    H174894   4.267   1.520   1.628 -0.1683 -0.3487  0.1930
17801TIP3    H274895   4.369   1.622   1.674  2.9505 -3.1240 -0.1760
17802TIP3   OH274896   4.554   3.878  16.757 -0.0463  0.5497 -0.9140
17802TIP3    H174897   4.487   3.833  16.706  0.0893  0.7872 -1.3123
17802TIP3    H274898   4.507   3.952  16.797 -0.5704 -0.6849  0.8315
17803TIP3   OH274899   1.769   6.201   5.771  0.0992 -0.5692  0.0832
17803TIP3    H174900   1.687   6.216   5.724  0.0159 -0.6711  0.1969
17803TIP3    H274901   1.836   6.243   5.716 -0.0501 -0.3382  0.0752
17804TIP3   OH274902   3.951   0.069  11.667  0.2011  0.5110 -0.7039
17804TIP3    H174903   3.871   0.098  11.710  0.6375 -0.2120  0.6283
17804TIP3    H274904   3.936   0.089  11.574 -2.0314 -0.7563 -0.6860
17805TIP3   OH274905   6.490   2.678  15.265  0.0133 -0.0592 -0.4733
17805TIP3    H174906   6.518   2.587  15.259  0.5004  0.1018 -0.6908
17805TIP3    H274907   6.449   2.696  15.180  1.8797  0.5616 -1.2863
17806TIP3   OH274908   2.568   2.358   4.634  0.0363 -0.1310 -0.0567
17806TIP3    H174909   2.529   2.384   4.718  0.0120  2.4546 -0.7896
17806TIP3    H274910   2.497   2.313   4.588 -0.0304 -1.3463  1.1440
17807TIP3   OH274911   5.699   0.278   5.149  0.3603  0.2313  0.1228
17807TIP3    H174912   5.640   0.265   5.224  1.6768  0.7066  1.2723
17807TIP3    H274913   5.784   0.296   5.188  1.0819  0.4994 -1.5042
17808TIP3   OH274914   2.587   5.915  15.942 -0.3214 -0.2200  0.1678
17808TIP3    H174915   2.569   5.995  15.990  1.1599  0.1699  0.1358
17808TIP3    H274916   2.682   5.902  15.952 -0.4022 -1.5152 -0.5126
17809TIP3   OH274917   0.573   3.578  13.679 -0.1361  0.0493  0.0200
17809TIP3    H174918   0.532   3.662  13.698  0.0737 -0.1411  1.4826
17809TIP3    H274919   0.502   3.514  13.687  0.1810 -0.1652  1.5122
17810TIP3   OH274920   0.668   2.135   4.288  0.2694 -0.1928  0.0614
17810TIP3    H174921   0.701   2.046   4.304  1.3416 -0.1365 -1.6348
17810TIP3    H274922   0.709   2.188   4.355  0.6562 -0.7669  0.2903
17811TIP3   OH274923   2.398   1.260   3.503 -0.5854 -0.5668  0.0801
17811TIP3    H174924   2.406   1.341   3.553  1.7657 -0.0299 -1.0690
17811TIP3    H274925   2.412   1.285   3.412 -0.6006 -2.1521 -0.4029
17812TIP3   OH274926   0.674   3.560   2.502 -0.3819  0.5373 -0.3311
17812TIP3    H174927   0.678   3.573   2.597  0.0710  1.3339 -0.4481
17812TIP3    H274928   0.749   3.608   2.468  0.0583 -0.6069 -1.0152
17813TIP3   OH274929   4.868   5.074  15.087  0.0119  0.3474  0.2889
17813TIP3    H174930   4.828   5.151  15.047  0.9435  0.5116 -0.3599
17813TIP3    H274931   4.842   5.079  15.179  1.5745  2.4800  0.6901
17814TIP3   OH274932   1.384   6.499   4.580 -0.9463  0.2224 -0.6911
17814TIP3    H174933   1.312   6.440   4.561 -1.2252 -0.6347  2.4867
17814TIP3    H274934   1.358   6.544   4.660  1.3970  0.9945 -0.2745
17815TIP3   OH274935   2.161   4.724  12.256  0.5368  0.1627 -0.0712
17815TIP3    H174936   2.157   4.656  12.189  0.2585  0.9997 -0.9342
17815TIP3    H274937   2.237   4.777  12.231 -0.2368  1.1439 -0.4032
17816TIP3   OH274938   1.036   0.604   5.836  0.4164  0.2884 -0.3040
17816TIP3    H174939   1.030   0.517   5.797  0.9820  0.3992 -0.6504
17816TIP3    H274940   0.967   0.654   5.793 -1.4539 -0.5756  1.5302
17817TIP3   OH274941   0.253   0.042  10.582 -0.0513  0.0451  0.5183
17817TIP3    H174942   0.241  -0.027  10.647  0.3981  0.4206  1.0173
17817TIP3    H274943   0.347   0.043  10.565 -0.0755  0.4144  0.3879
17818TIP3   OH274944   0.255   1.074   4.031  0.4267 -0.1880 -0.3349
17818TIP3    H174945   0.256   0.978   4.020 -0.2221 -0.6027  2.3923
17818TIP3    H274946   0.247   1.108   3.943 -1.4646 -2.7309 -1.2794
17819TIP3   OH274947   5.419   0.077  16.175  0.1368 -0.2168  0.1254
17819TIP3    H174948   5.408   0.130  16.254  0.2419  1.4181 -0.9111
17819TIP3    H274949   5.484   0.124  16.123 -1.2574 -0.2643 -1.7474
17820TIP3   OH274950   6.262   6.754  16.079  0.0602 -0.0151 -0.4301
17820TIP3    H174951   6.296   6.769  16.167  0.7606  1.1819 -0.8806
17820TIP3    H274952   6.309   6.818  16.024 -1.8775  0.7260 -1.3159
17821TIP3   OH274953   0.121   3.610   1.022  0.0891 -0.2999 -0.3474
17821TIP3    H174954   0.133   3.656   0.939 -2.2403  1.3929  0.1643
17821TIP3    H274955   0.057   3.541   1.002  1.5603 -1.6869 -0.5008
17822TIP3   OH274956   4.406   6.251   1.294  0.0403 -0.1208  0.0435
17822TIP3    H174957   4.459   6.290   1.364  2.3830 -0.3817 -1.4652
17822TIP3    H274958   4.464   6.185   1.255 -1.9864 -1.5090 -0.7431
17823TIP3   OH274959   2.617   2.328  17.204  0.7352  0.5186 -0.4022
17823TIP3    H174960   2.653   2.239  17.216  1.2746  0.4708 -2.0991
17823TIP3    H274961   2.549   2.335  17.271 -0.1503 -1.6336 -0.9585
17824TIP3   OH274962   3.913   4.312   4.076  0.4524  0.1322 -0.7832
17824TIP3    H174963   3.905   4.332   3.982  0.7582  1.3627 -0.5594
17824TIP3    H274964   3.876   4.388   4.120  0.2081 -0.4915  0.1085
17825TIP3   OH274965   1.734   4.549  15.315  0.5193  0.0186 -0.4637
17825TIP3    H174966   1.653   4.500  15.302  1.4503 -1.2284 -1.8426
17825TIP3    H274967   1.764   4.571  15.227  1.9813 -0.0544 -0.0165
17826TIP3   OH274968   5.095   4.009   1.537 -0.3205 -0.2584  0.0839
17826TIP3    H174969   5.165   3.949   1.565  0.0489  0.0019 -0.2630
17826TIP3    H274970   5.050   3.961   1.467 -0.9912 -0.7450  0.8342
17827TIP3   OH274971   3.957   2.798  14.843  0.1842 -0.2195 -0.0343
17827TIP3    H174972   3.977   2.885  14.878 -1.0440  0.2393 -0.4194
17827TIP3    H274973   4.041   2.765  14.812  1.0255  0.0361  1.8145
17828TIP3   OH274974   4.022   5.130  13.370  0.4370  0.1095  0.7520
17828TIP3    H174975   3.998   5.198  13.306 -0.7383 -0.9240  0.0563
17828TIP3    H274976   3.971   5.152  13.448  0.8981  0.6430  0.9084
17829TIP3   OH274977   6.546   3.895  16.211 -0.3955 -0.1089  0.1818
17829TIP3    H174978   6.593   3.834  16.268  1.3972  0.8980 -0.1550
17829TIP3    H274979   6.526   3.969  16.268  0.5317  0.4748 -0.2377
17830TIP3   OH274980   3.624   3.734  17.054  0.5961  0.2140  0.1907
17830TIP3    H174981   3.605   3.748  17.147 -0.7193 -0.6836  0.0992
17830TIP3    H274982   3.585   3.648  17.035 -1.0279  1.2747 -1.6593
17831TIP3   OH274983   4.138   1.674   5.473  0.5003  1.1690  0.1338
17831TIP3    H174984   4.190   1.605   5.514  0.0834  0.5402 -0.3577
17831TIP3    H274985   4.152   1.660   5.379 -0.5441  0.9880 -0.0016
17832TIP3   OH274986   3.832   5.669  13.630 -0.2560  0.1455 -0.0481
17832TIP3    H174987   3.890   5.685  13.556 -0.8796  1.7574 -0.2291
17832TIP3    H274988   3.747   5.706  13.603 -0.6956  0.0768  1.1653
17833TIP3   OH274989   1.302   0.976  11.399  0.6003  0.1813  0.1462
17833TIP3    H174990   1.323   0.951  11.309 -0.0774  1.0718 -0.2724
17833TIP3    H274991   1.265   1.064  11.392  0.1926  0.1181  1.2573
17834TIP3   OH274992   0.804   3.776  13.852 -0.5174  0.1318  0.4202
17834TIP3    H174993   0.805   3.681  13.856 -1.4963  0.0920  0.0855
17834TIP3    H274994   0.731   3.797  13.793 -1.0556  1.0994  1.3862
17835TIP3   OH274995   4.309   3.790   4.497 -0.5118  0.3661 -0.5137
17835TIP3    H174996   4.289   3.883   4.497 -0.5685  0.3657  0.3743
17835TIP3    H274997   4.392   3.783   4.544  0.6486  0.1791 -2.5109
17836TIP3   OH274998   3.243   6.075  14.761 -0.0016  0.0488  0.4137
17836TIP3    H174999   3.198   6.130  14.825 -1.7712 -1.3876  0.4869
17836TIP3    H275000   3.271   5.998  14.810 -0.4702 -0.5967 -0.2960
17837TIP3   OH275001   5.459   4.483   6.174  0.1600  0.1435  0.1377
17837TIP3    H175002   5.431   4.423   6.243  0.8920  0.2544  0.5460
17837TIP3    H275003   5.555   4.483   6.180  0.1676  2.2034  0.9109
17838TIP3   OH275004   5.986   2.396  16.385 -0.5753  0.2862  0.2757
17838TIP3    H175005   6.050   2.325  16.380 -0.0977  0.7765 -0.9033
17838TIP3    H275006   5.979   2.428  16.295  1.7143  3.9314  1.2229
17839TIP3   OH275007   2.918   6.445   4.515 -0.1179  0.2226  0.5500
17839TIP3    H175008   3.007   6.416   4.494  0.1205 -0.0993  1.9079
17839TIP3    H275009   2.878   6.370   4.559 -1.5164 -0.0991 -1.1265
17840TIP3   OH275010   6.299   5.692   4.417  0.0008  0.0124 -0.6800
17840TIP3    H175011   6.275   5.689   4.510  0.3481  1.6424 -0.5094
17840TIP3    H275012   6.251   5.767   4.382  0.5593 -0.0497 -1.6192
17841TIP3   OH275013   1.130   1.905  16.983  0.4537 -0.1918  0.0559
17841TIP3    H175014   1.187   1.931  17.055  0.5090  0.4958 -0.2313
17841TIP3    H275015   1.148   1.968  16.913 -0.5225 -0.0701 -0.1036
17842TIP3   OH275016   3.190   3.355   1.489 -0.1935 -0.4319  0.1503
17842TIP3    H175017   3.162   3.438   1.528  1.5640  0.0595  0.4868
17842TIP3    H275018   3.264   3.328   1.543  0.2362 -1.4273 -0.9054
17843TIP3   OH275019   3.331   5.929   3.545 -0.1198 -0.1007  0.5218
17843TIP3    H175020   3.314   6.022   3.530 -1.5457 -0.2004  1.3062
17843TIP3    H275021   3.244   5.890   3.554  0.3088 -1.9661 -2.1711
17844TIP3   OH275022   0.141   0.055  15.131  0.0488  0.2735 -0.1650
17844TIP3    H175023   0.048   0.074  15.140 -0.1284  0.5413 -2.0129
17844TIP3    H275024   0.163   0.089  15.044  1.7830 -0.1434  0.0783
17845TIP3   OH275025   3.543   2.967  16.383 -0.5702 -0.5292 -0.2065
17845TIP3    H175026   3.457   2.998  16.412  0.0376  0.6827  0.3747
17845TIP3    H275027   3.531   2.951  16.289 -0.9503  1.5583 -0.5737
17846TIP3   OH275028   3.261   5.551  14.015 -0.4537 -0.3877  0.1872
17846TIP3    H175029   3.176   5.569  13.973 -1.1457  0.9685  1.9995
17846TIP3    H275030   3.320   5.616  13.977 -0.3189 -1.0570 -0.7700
17847TIP3   OH275031   0.888   0.865  11.566  0.5263 -0.0377  0.0636
17847TIP3    H175032   0.921   0.842  11.479 -0.9874 -3.0866  0.1699
17847TIP3    H275033   0.796   0.885  11.552  0.0115 -1.5534  1.0314
17848TIP3   OH275034   1.999   2.972   1.980  0.6794 -0.0572 -0.3707
17848TIP3    H175035   2.030   3.033   2.046  3.4092  0.2966 -1.8450
17848TIP3    H275036   1.906   2.993   1.969  0.0179 -0.2939  3.3956
17849TIP3   OH275037   3.378   0.587   2.822 -0.0694 -0.3643  0.0020
17849TIP3    H175038   3.407   0.572   2.912 -1.7883 -0.3687  0.6001
17849TIP3    H275039   3.284   0.568   2.824 -0.6889  2.1486 -1.1850
17850TIP3   OH275040   1.962   2.068   2.444 -0.0836  0.2822  0.1367
17850TIP3    H175041   1.988   2.084   2.353  3.0764  2.1094  1.1853
17850TIP3    H275042   2.044   2.070   2.493 -1.8010  1.2434  3.2883
17851TIP3   OH275043   4.197   3.352   1.122  0.2594 -0.3814  0.2257
17851TIP3    H175044   4.160   3.315   1.202 -2.7204  0.1791 -0.7671
17851TIP3    H275045   4.125   3.348   1.058  2.0893  0.4489 -2.0348
17852TIP3   OH275046   0.111   1.825  13.951 -0.6885  0.2704 -0.1832
17852TIP3    H175047   0.155   1.832  13.866 -1.1747  0.6016 -0.4179
17852TIP3    H275048   0.168   1.770  14.004 -0.1872  0.3801 -0.6016
17853TIP3   OH275049   3.276   0.405  11.389 -0.0294  0.2409  0.1448
17853TIP3    H175050   3.309   0.335  11.332  0.8627  1.0514 -0.3781
17853TIP3    H275051   3.354   0.453  11.415 -0.6503  1.2623  0.1910
17854TIP3   OH275052   5.974   5.972  11.894 -0.1371 -0.0909  0.1299
17854TIP3    H175053   5.913   5.959  11.967 -0.7211  0.9576 -0.1392
17854TIP3    H275054   5.932   6.040  11.841  0.7785 -0.1033 -0.6260
17855TIP3   OH275055   1.628   1.468  16.355 -1.1231  0.1998 -0.1904
17855TIP3    H175056   1.600   1.431  16.272  1.4173 -1.5580 -0.3966
17855TIP3    H275057   1.718   1.436  16.366 -0.9417  1.3914  2.6466
17856TIP3   OH275058   6.398   1.204  17.180 -0.2973  0.4296 -0.5545
17856TIP3    H175059   6.434   1.282  17.138 -0.1552  0.8851  0.3877
17856TIP3    H275060   6.361   1.236  17.263  0.8770 -0.6735  0.4369
17857TIP3   OH275061   3.357   6.168   3.250 -0.6274 -0.2095  0.3641
17857TIP3    H175062   3.307   6.212   3.180 -0.0957 -0.2556 -0.0512
17857TIP3    H275063   3.373   6.080   3.216  0.8126  0.1865 -0.0566
17858TIP3   OH275064   5.680   4.973   4.285  0.1153 -0.3462 -0.0677
17858TIP3    H175065   5.744   4.915   4.243 -0.6497 -0.8596 -0.5495
17858TIP3    H275066   5.601   4.919   4.293 -0.0696  0.0707  1.1063
17859TIP3   OH275067   5.557   4.183  17.092  0.3077  0.3701  0.2148
17859TIP3    H175068   5.605   4.111  17.052  0.0396  0.7228 -0.7960
17859TIP3    H275069   5.544   4.245  17.020 -0.4096  0.9270  0.8083
17860TIP3   OH275070   5.681   5.191   3.119 -0.2944  0.1894  0.1686
17860TIP3    H175071   5.640   5.105   3.122  2.4887 -1.2395  0.5096
17860TIP3    H275072   5.663   5.223   3.031 -1.4887 -0.6692  0.0836
17861TIP3   OH275073   4.730   1.522   6.525  0.0802 -0.8295  0.4587
17861TIP3    H175074   4.786   1.445   6.536 -0.1773 -1.6789 -2.9396
17861TIP3    H275075   4.649   1.486   6.488  0.1518  1.0531 -1.7193
17862TIP3   OH275076   3.483   0.986   0.471 -0.0845 -0.4528  0.6131
17862TIP3    H175077   3.494   0.960   0.562 -0.7148 -1.0278  0.5329
17862TIP3    H275078   3.470   1.081   0.474  0.8568 -0.3312  1.0302
17863TIP3   OH275079   2.913   2.494  16.765 -0.3557 -0.3750  0.7777
17863TIP3    H175080   2.864   2.542  16.832 -1.4141 -2.2783  1.4486
17863TIP3    H275081   2.977   2.557  16.732 -0.6526  1.0032  2.6735
17864TIP3   OH275082   3.198   1.333   3.569 -0.0525 -1.0511 -0.4795
17864TIP3    H175083   3.167   1.419   3.596  2.4356  0.6376 -2.5724
17864TIP3    H275084   3.176   1.327   3.476  0.4284 -2.3990 -0.5279
17865TIP3   OH275085   4.794   1.013   1.351  0.0847  0.0361 -0.3524
17865TIP3    H175086   4.756   1.054   1.430  0.2292 -2.4682  1.1205
17865TIP3    H275087   4.727   0.951   1.323  0.8721 -0.5205 -1.0106
17866TIP3   OH275088   6.222   2.134   5.584  0.3867 -0.2723  0.1541
17866TIP3    H175089   6.187   2.074   5.518  1.5981  0.0366 -0.8032
17866TIP3    H275090   6.295   2.087   5.623 -0.5044 -0.5707  1.5328
17867TIP3   OH275091   6.241   5.132   3.310  0.0021  0.0381 -0.5717
17867TIP3    H175092   6.274   5.200   3.252  1.5928  0.1807  0.4358
17867TIP3    H275093   6.319   5.089   3.344 -0.8558 -0.0322  1.4750
17868TIP3   OH275094   4.348   1.074   6.471  0.5682 -1.1620 -0.8483
17868TIP3    H175095   4.383   1.112   6.552 -1.7814  0.9891 -0.7166
17868TIP3    H275096   4.349   0.980   6.487  0.6117 -0.8407  1.5223
17869TIP3   OH275097   6.635   6.554  16.352  0.3861  0.7104  0.7121
17869TIP3    H175098   6.628   6.648  16.365  0.6675  0.8695 -0.2406
17869TIP3    H275099   6.712   6.543  16.296 -0.1393 -0.0240  0.1183
17870TIP3   OH275100   5.058   0.466   1.740 -0.4999  0.0734 -0.1285
17870TIP3    H175101   5.069   0.559   1.723  0.4397 -0.2551 -1.4581
17870TIP3    H275102   5.147   0.430   1.735 -0.9239 -0.9846 -0.2475
17871TIP3   OH275103   6.179   6.628   2.366  0.2316  0.0726 -0.6806
17871TIP3    H175104   6.115   6.629   2.437  0.0626  0.3520 -0.8349
17871TIP3    H275105   6.240   6.558   2.390  0.8723  0.9378  0.3540
17872TIP3   OH275106   1.078   1.106   2.317  0.7448 -0.0336  0.1486
17872TIP3    H175107   1.096   1.026   2.368  0.5772  0.9209  1.7908
17872TIP3    H275108   1.163   1.130   2.280  0.6665 -1.3145 -0.9221
17873TIP3   OH275109   0.156   3.387  11.180 -0.2463 -0.6056  0.1362
17873TIP3    H175110   0.182   3.425  11.264 -0.0874  3.1315 -1.3864
17873TIP3    H275111   0.237   3.348  11.146  0.1169 -0.6002  0.9593
17874TIP3   OH275112   6.803   6.534   1.594  0.1777  0.1331 -0.1456
17874TIP3    H175113   6.714   6.565   1.580 -0.0447 -0.9883 -1.3328
17874TIP3    H275114   6.848   6.552   1.512  1.2983  1.3903  0.6889
17875TIP3   OH275115   3.085   0.633   3.496 -0.0215 -0.6308  0.5182
17875TIP3    H175116   2.995   0.601   3.487 -0.2159 -0.5768  1.9717
17875TIP3    H275117   3.100   0.634   3.591  0.0598  3.2780  0.6415
17876TIP3   OH275118   5.630   2.119   5.201  0.0283  0.1578 -0.4866
17876TIP3    H175119   5.548   2.121   5.153  0.0728 -0.3432 -0.5920
17876TIP3    H275120   5.678   2.045   5.164 -0.4216 -0.9954  1.0809
17877TIP3   OH275121   2.080   1.324  10.375  0.7918  0.1217 -0.2063
17877TIP3    H175122   2.149   1.258  10.379  1.6452  0.8725 -1.9497
17877TIP3    H275123   2.115   1.398  10.424  0.9075  0.2289 -0.4522
17878TIP3   OH275124   4.430   2.041  16.720  0.3069 -0.1010 -0.5912
17878TIP3    H175125   4.447   2.128  16.756 -1.9302  1.0817 -2.1257
17878TIP3    H275126   4.508   2.020  16.669  0.4818  1.4796 -1.0274
17879TIP3   OH275127   4.930   6.612   2.671 -0.1726 -0.0507 -0.2564
17879TIP3    H175128   4.981   6.682   2.711  0.8248 -0.9453  0.0921
17879TIP3    H275129   4.961   6.532   2.714 -1.3078 -0.7112 -0.6107
17880TIP3   OH275130   0.044   5.853   3.123 -0.2603  0.2964  0.1582
17880TIP3    H175131   0.060   5.809   3.039  0.8931  0.4890  0.2616
17880TIP3    H275132   0.042   5.783   3.187  0.5069  0.2866  0.1795
17881TIP3   OH275133   2.467   3.213  11.736  0.8382  0.7034 -0.2422
17881TIP3    H175134   2.488   3.273  11.808 -0.6263  1.6318 -0.5316
17881TIP3    H275135   2.429   3.136  11.779 -0.7650  1.5789  0.0036
17882TIP3   OH275136   4.723   6.816   1.417  0.2998 -0.3427 -0.4461
17882TIP3    H175137   4.689   6.903   1.392  2.1306  0.7726  0.7108
17882TIP3    H275138   4.697   6.805   1.508  1.3309 -0.2982 -0.1261
17883TIP3   OH275139   4.973   0.882   0.292 -0.1137  0.6829 -0.2944
17883TIP3    H175140   4.928   0.916   0.369  2.2059 -0.6953  1.8381
17883TIP3    H275141   4.989   0.790   0.312  3.0149  0.9203 -1.0821
17884TIP3   OH275142   2.592   5.001   5.081  0.9480  0.1326 -0.1596
17884TIP3    H175143   2.555   5.013   4.993  1.3385  0.1929 -0.3176
17884TIP3    H275144   2.599   5.089   5.117  0.0076  0.0515  0.2649
17885TIP3   OH275145   2.805   0.192  10.419  0.4429  0.0124 -0.4128
17885TIP3    H175146   2.822   0.221  10.509  1.1557 -1.4762 -0.0386
17885TIP3    H275147   2.892   0.190  10.378  0.1655  0.3237 -1.0393
17886TIP3   OH275148   3.011   3.636   5.139  0.2905  0.1745 -0.8598
17886TIP3    H175149   3.093   3.684   5.135  0.5226 -0.2435 -1.2890
17886TIP3    H275150   2.949   3.690   5.090  0.5513  0.0430 -1.3411
17887TIP3   OH275151   2.942   5.800  13.779 -0.8695  0.3024  0.1973
17887TIP3    H175152   2.992   5.867  13.826 -1.0416  0.5941 -0.0345
17887TIP3    H275153   2.852   5.833  13.778 -1.7648 -1.5949  3.2570
17888TIP3   OH275154   1.866   2.460  13.591 -0.2303 -0.0483 -0.0640
17888TIP3    H175155   1.772   2.455  13.570 -0.3340 -0.0399  0.3759
17888TIP3    H275156   1.882   2.381  13.642 -0.2951  0.5843  0.9735
17889TIP3   OH275157   5.134   2.226   4.968  0.2923  0.1667  0.9924
17889TIP3    H175158   5.163   2.231   4.877 -1.4042 -1.6943  0.2618
17889TIP3    H275159   5.132   2.132   4.987 -4.4295  0.0275  1.0940
17890TIP3   OH275160   1.595   1.732  13.708 -0.7608 -0.3410 -0.9158
17890TIP3    H175161   1.659   1.745  13.638 -0.8597 -0.4875 -1.0351
17890TIP3    H275162   1.572   1.820  13.737 -0.7091 -0.2816 -1.0565
17891TIP3   OH275163   4.889   1.717  14.543 -0.2486 -0.5528 -0.1037
17891TIP3    H175164   4.954   1.678  14.485 -0.0819 -1.4199  0.6415
17891TIP3    H275165   4.940   1.749  14.618 -0.8574 -3.7907  1.8767
17892TIP3   OH275166   3.274   1.403   4.569 -0.3053 -0.3097 -0.0405
17892TIP3    H175167   3.200   1.348   4.546  0.1831 -1.5178  1.1547
17892TIP3    H275168   3.348   1.343   4.577 -0.0264  0.2253  2.6565
17893TIP3   OH275169   2.402   2.918   1.379 -0.7759  0.5086 -1.0867
17893TIP3    H175170   2.319   2.941   1.423 -0.7262  0.0805 -0.7591
17893TIP3    H275171   2.457   2.995   1.391 -0.4690  0.0974  0.3456
17894TIP3   OH275172   6.094   5.486  15.036 -0.5081 -0.3505  0.4004
17894TIP3    H175173   6.129   5.501  15.124 -1.1495  1.9841  0.3180
17894TIP3    H275174   6.166   5.507  14.977 -0.8600  0.6719  0.3224
17895TIP3   OH275175   1.986   1.209   3.986  0.1200  0.0818  0.1567
17895TIP3    H175176   2.064   1.247   3.945 -0.0311 -0.7453 -0.9179
17895TIP3    H275177   2.008   1.117   4.000 -0.3015  0.0662  0.7696
17896TIP3   OH275178   2.456   2.563   1.965  0.2832 -0.5502 -0.7003
17896TIP3    H175179   2.422   2.543   1.877  2.1409  0.3930 -1.6971
17896TIP3    H275180   2.460   2.658   1.968 -1.4502 -0.4652  1.1554
17897TIP3   OH275181   3.584   3.908   1.814  0.1873  0.4235  0.2284
17897TIP3    H175182   3.553   3.933   1.901 -0.0693 -0.6635  0.4573
17897TIP3    H275183   3.567   3.814   1.808  1.6618  0.1598 -0.3735
17898TIP3   OH275184   4.183   5.227  11.287 -0.0715  0.5766  0.4302
17898TIP3    H175185   4.199   5.192  11.199 -1.4707  0.6683  0.1119
17898TIP3    H275186   4.136   5.157  11.332  3.0171 -0.6109  2.1049
17899TIP3   OH275187   2.691   0.317   0.771  0.2099  0.0440 -0.7687
17899TIP3    H175188   2.767   0.267   0.801  1.4979  0.8877 -2.4638
17899TIP3    H275189   2.727   0.403   0.747 -1.3798  0.6597 -1.0653
17900TIP3   OH275190   0.119   5.352   5.028  0.0295  0.5004  0.0085
17900TIP3    H175191   0.213   5.354   5.013 -0.2754 -0.2853 -2.4078
17900TIP3    H275192   0.092   5.444   5.021  0.3194  0.4821 -1.9439
17901TIP3   OH275193   5.754   3.097  12.949  0.3934  0.3260 -0.3609
17901TIP3    H175194   5.798   3.040  13.013 -1.0398  0.2720  0.6118
17901TIP3    H275195   5.789   3.069  12.865  0.7269 -1.0777  0.2145
17902TIP3   OH275196   1.221   2.226  13.834 -0.1546 -0.2330  0.2670
17902TIP3    H175197   1.144   2.220  13.891 -0.1894  1.0325  0.3837
17902TIP3    H275198   1.186   2.263  13.752  0.4053  0.8794  0.5111
17903TIP3   OH275199   0.415   3.394   2.610  0.1647 -0.4158 -0.2287
17903TIP3    H175200   0.475   3.455   2.568  0.6312 -0.3741  0.4724
17903TIP3    H275201   0.396   3.434   2.695 -0.8607 -0.4323 -0.4337
17904TIP3   OH275202   3.809   2.238  12.393  0.1758  0.2538  0.7563
17904TIP3    H175203   3.838   2.294  12.321 -1.5797  1.4426  0.9125
17904TIP3    H275204   3.855   2.271  12.470  3.4090 -2.1017  0.0566
17905TIP3   OH275205   2.945   1.368   0.210  0.1489  1.0264  0.3023
17905TIP3    H175206   3.024   1.316   0.225 -0.2138  0.3681 -0.0003
17905TIP3    H275207   2.933   1.364   0.115  0.0062  1.5118  0.2983
17906TIP3   OH275208   4.402   1.234   1.869  0.4305  0.7048 -0.4270
17906TIP3    H175209   4.436   1.279   1.792  0.1492  1.3079 -0.2086
17906TIP3    H275210   4.426   1.142   1.857  0.6920  0.8556 -1.0595
17907TIP3   OH275211   0.586   5.308  14.117  0.2982  0.1417  0.2257
17907TIP3    H175212   0.660   5.348  14.071 -0.2906  0.8520 -0.1246
17907TIP3    H275213   0.597   5.214  14.101  1.7179  0.1270  1.0829
17908TIP3   OH275214   2.363   4.840  16.718 -0.1487 -0.2011 -0.0798
17908TIP3    H175215   2.290   4.882  16.672 -0.4451 -0.8543 -0.2296
17908TIP3    H275216   2.339   4.843  16.810  1.1536  2.4870  0.2579
17909TIP3   OH275217   3.059   5.898   0.012  0.8526  0.4529 -0.0299
17909TIP3    H175218   3.077   5.844  -0.065  1.7776  1.8734 -0.8483
17909TIP3    H275219   2.988   5.852   0.058 -1.7887  0.9880 -3.2323
17910TIP3   OH275220   3.084   0.198   0.362  0.3944 -0.5998  0.0212
17910TIP3    H175221   3.133   0.120   0.337  0.4225 -0.3119 -0.8817
17910TIP3    H275222   3.108   0.263   0.296  0.3405  0.1611  0.7312
17911TIP3   OH275223   3.213   2.651  13.661 -0.7253  0.1751  0.1640
17911TIP3    H175224   3.122   2.680  13.668 -0.5109  0.8948 -0.0035
17911TIP3    H275225   3.213   2.590  13.587 -0.7579  1.4379 -0.9049
17912TIP3   OH275226   4.262   5.620   6.640 -0.0493 -0.1796 -0.2358
17912TIP3    H175227   4.332   5.643   6.578 -0.1199 -0.3598 -0.3814
17912TIP3    H275228   4.190   5.679   6.618  0.3329  0.5809  0.4436
17913TIP3   OH275229   5.986   1.166   0.386  0.7268 -0.5073  0.2606
17913TIP3    H175230   6.032   1.178   0.469  0.1245  1.2348  0.3764
17913TIP3    H275231   5.982   1.253   0.348  1.0706 -1.2963 -1.6737
17914TIP3   OH275232   0.961   0.844   5.392  0.5212 -0.7365  0.4526
17914TIP3    H175233   0.906   0.914   5.428 -0.2206 -1.4185  0.6739
17914TIP3    H275234   1.046   0.886   5.378 -0.0192  0.3254  0.1789
17915TIP3   OH275235   0.798   0.972   0.971  0.3686  0.0849 -0.1223
17915TIP3    H175236   0.823   0.919   0.896  1.5805  1.4547 -0.7445
17915TIP3    H275237   0.881   1.002   1.008 -0.2145  2.7820 -0.7516
17916TIP3   OH275238   3.188   4.760  13.906 -0.4534 -0.2987  0.0456
17916TIP3    H175239   3.267   4.814  13.903 -0.0539 -0.8455  0.4964
17916TIP3    H275240   3.159   4.765  13.997 -0.6599 -0.5027 -0.0081
17917TIP3   OH275241   4.148   0.765   3.929  0.1918  1.2812 -0.1686
17917TIP3    H175242   4.102   0.743   3.848  0.0456 -1.9126  0.6293
17917TIP3    H275243   4.201   0.687   3.948  1.5428  2.6010  1.9343
17918TIP3   OH275244   3.189   2.181   0.061  0.1696 -0.0766 -0.2056
17918TIP3    H175245   3.281   2.188   0.084  0.3209 -0.1795 -0.7804
17918TIP3    H275246   3.143   2.228   0.131  0.6223 -0.4156  0.3241
17919TIP3   OH275247   1.902   5.235   4.752 -0.4537  0.9399 -0.2896
17919TIP3    H175248   1.945   5.314   4.784 -1.8180  1.8041 -0.5123
17919TIP3    H275249   1.817   5.234   4.795 -1.2880  0.7274 -1.8592
17920TIP3   OH275250   0.625   2.238   0.394 -0.1079  0.2989  0.6007
17920TIP3    H175251   0.715   2.209   0.379 -0.4717 -1.8034  2.0803
17920TIP3    H275252   0.632   2.304   0.462  0.5326  2.3721 -1.3478
17921TIP3   OH275253   4.048   0.409  12.324  0.2112  0.5318 -0.0829
17921TIP3    H175254   4.015   0.370  12.243 -0.4697  0.9609 -0.0152
17921TIP3    H275255   4.043   0.503  12.310  0.9862  0.6070  0.1052
17922TIP3   OH275256   3.923   4.075   4.436  0.1748  0.2232 -0.5100
17922TIP3    H175257   3.896   4.084   4.344  1.7003  0.3486 -0.9773
17922TIP3    H275258   3.970   3.992   4.439 -0.3020 -0.0279  0.2974
17923TIP3   OH275259   5.976   4.789  11.506 -0.5210  0.2743 -0.0988
17923TIP3    H175260   6.025   4.721  11.552 -1.0544 -0.0591 -0.0209
17923TIP3    H275261   5.996   4.775  11.413  1.0418  1.3237  0.0355
17924TIP3   OH275262   6.530   0.647   5.834 -0.8197 -0.1606  0.2049
17924TIP3    H175263   6.462   0.682   5.892 -0.0745  1.5842  0.0763
17924TIP3    H275264   6.550   0.719   5.774  1.1929 -0.5990  0.3019
17925TIP3   OH275265   1.623   6.354   4.557 -0.3655  0.5271  0.1905
17925TIP3    H175266   1.600   6.262   4.573  0.0396  0.2341 -0.8164
17925TIP3    H275267   1.544   6.403   4.581 -1.7901 -0.3701 -2.2916
17926TIP3   OH275268   3.093   3.621  13.417  0.1917 -0.0407 -0.0630
17926TIP3    H175269   3.088   3.715  13.406  1.2092  0.2088  1.3398
17926TIP3    H275270   3.063   3.585  13.333  0.7576  1.5249 -0.9730
17927TIP3   OH275271   6.188   2.491  15.103  0.1288  0.0984 -0.0389
17927TIP3    H175272   6.199   2.400  15.074 -0.7875 -0.1834  0.4443
17927TIP3    H275273   6.139   2.484  15.185  1.0465  0.9772  0.6066
17928TIP3   OH275274   5.535   0.091  16.977  0.3506 -0.8294 -0.1855
17928TIP3    H175275   5.614   0.098  17.031 -0.1839 -1.1677  0.6654
17928TIP3    H275276   5.557   0.137  16.896  1.8623 -2.0232 -0.4900
17929TIP3   OH275277   6.595   2.083   3.504  0.6246 -0.0236  0.3989
17929TIP3    H175278   6.535   2.025   3.552 -0.4346  1.9026  1.5539
17929TIP3    H275279   6.571   2.171   3.534  1.0615  1.1678 -2.4645
17930TIP3   OH275280   2.475   0.646   0.245  0.7143  0.5724  0.0569
17930TIP3    H175281   2.554   0.701   0.245 -0.3077  2.1896 -2.3696
17930TIP3    H275282   2.406   0.702   0.280 -0.2205  0.7074 -1.8891
17931TIP3   OH275283   3.648   0.178  17.037 -0.0533 -0.2406 -0.2464
17931TIP3    H175284   3.708   0.235  17.084  0.3955 -0.9632  0.0778
17931TIP3    H275285   3.657   0.093  17.080 -1.6047 -0.2858  0.0743
17932TIP3   OH275286   0.574   0.926   1.751  1.1690  0.1678  0.3675
17932TIP3    H175287   0.567   0.942   1.657  2.1500 -0.2492  0.2156
17932TIP3    H275288   0.662   0.956   1.774  1.7929 -1.8280  0.7076
17933TIP3   OH275289   3.315   1.226  16.860 -0.0596 -0.3283 -0.4248
17933TIP3    H175290   3.239   1.277  16.832 -0.6145 -1.6428 -1.4390
17933TIP3    H275291   3.389   1.287  16.851 -0.4721 -0.0984 -3.0793
17934TIP3   OH275292   4.682   5.999  10.954 -0.0734 -0.0681  0.0896
17934TIP3    H175293   4.722   6.052  11.022 -2.2820  1.3934  0.3594
17934TIP3    H275294   4.694   6.049  10.873  0.5130 -0.6749 -0.2074
17935TIP3   OH275295   5.844   1.291   4.540  0.1186 -0.3912  0.5083
17935TIP3    H175296   5.926   1.248   4.563  0.4334  0.6976  1.5402
17935TIP3    H275297   5.858   1.323   4.450  1.4356  1.1016  1.1973
17936TIP3   OH275298   1.201   3.571  11.461  0.3134  0.2735  0.6597
17936TIP3    H175299   1.166   3.550  11.548  0.1481 -1.0534  0.2966
17936TIP3    H275300   1.126   3.563  11.402  1.1943 -3.0228 -0.1910
17937TIP3   OH275301   6.146   4.075   5.096 -0.3017 -0.2469  0.3910
17937TIP3    H175302   6.194   4.098   5.175 -0.4818 -1.1012  0.7619
17937TIP3    H275303   6.112   4.159   5.063  0.5677  0.2303  0.6835
17938TIP3   OH275304   3.509   6.417  16.936  0.1860 -0.1928  0.3186
17938TIP3    H175305   3.577   6.481  16.912  0.2133  0.0096  0.9317
17938TIP3    H275306   3.429   6.469  16.945 -0.0165 -0.4007 -0.1873
17939TIP3   OH275307   4.099   4.572  15.004 -0.2008  0.2158 -0.3508
17939TIP3    H175308   4.126   4.569  15.095  0.1958 -0.6534 -0.4820
17939TIP3    H275309   4.042   4.649  14.998 -0.5899  0.0299  0.7226
17940TIP3   OH275310   1.520   1.505   5.250  0.1487 -0.2273  0.3567
17940TIP3    H175311   1.448   1.448   5.274 -0.8774  1.0889  0.5555
17940TIP3    H275312   1.574   1.511   5.329 -1.1690  1.1117  1.2041
17941TIP3   OH275313   2.725   0.824  17.103 -0.0896 -0.2300  0.3941
17941TIP3    H175314   2.796   0.768  17.137  0.5480 -1.2486 -2.3854
17941TIP3    H275315   2.649   0.766  17.098 -0.9635  0.6268  2.4890
17942TIP3   OH275316   5.145   4.194   5.881  0.3390  0.8364 -1.0132
17942TIP3    H175317   5.175   4.107   5.908 -0.2869  0.1802 -2.2835
17942TIP3    H275318   5.186   4.255   5.942  0.3716 -0.3987  0.2344
17943TIP3   OH275319   3.556   0.188   3.692  0.1100 -0.2933  0.0320
17943TIP3    H175320   3.576   0.121   3.758  0.0852 -2.4516 -2.0134
17943TIP3    H275321   3.641   0.222   3.666  0.2126 -0.4614  0.1438
17944TIP3   OH275322   4.064   4.294  13.148  0.0873  0.4926 -0.2647
17944TIP3    H175323   4.111   4.211  13.159  0.2072  0.7460  1.3408
17944TIP3    H275324   4.090   4.325  13.061  0.5582 -0.8188 -0.6188
17945TIP3   OH275325   5.507   3.190  12.957 -0.1175 -0.0408  0.1345
17945TIP3    H175326   5.487   3.199  12.863 -0.1912 -2.0709 -0.0847
17945TIP3    H275327   5.598   3.161  12.958  0.1157  0.7107  0.7344
17946TIP3   OH275328   1.171   4.060   6.622 -0.1602 -0.2294  0.2970
17946TIP3    H175329   1.174   3.989   6.557 -3.4938 -0.0146 -0.3044
17946TIP3    H275330   1.195   4.018   6.705  2.6163 -0.8758 -0.7327
17947TIP3   OH275331   3.698   6.594  16.898 -0.1181  0.5300 -0.0429
17947TIP3    H175332   3.727   6.667  16.953 -0.2029  0.0624  0.6393
17947TIP3    H275333   3.744   6.606  16.815  0.9102  0.6231  0.5220
17948TIP3   OH275334   5.785   3.859  11.455 -0.2106  0.0835 -0.1002
17948TIP3    H175335   5.690   3.847  11.464  0.1880 -3.0271  1.4087
17948TIP3    H275336   5.802   3.845  11.362 -1.2038  0.5975 -0.3756
17949TIP3   OH275337   3.910   0.958   2.142  0.5527  0.7776 -0.1014
17949TIP3    H175338   3.833   0.913   2.177 -1.9423  4.8825  0.3081
17949TIP3    H275339   3.965   0.974   2.218  0.3262  0.4726  0.1294
17950TIP3   OH275340   1.048   3.710   5.624 -0.2310 -0.0834  0.1508
17950TIP3    H175341   1.084   3.794   5.596 -0.6268  0.2481  0.6273
17950TIP3    H275342   1.030   3.663   5.542 -1.6117  0.9679 -0.1813
17951TIP3   OH275343   1.825   3.140  12.074 -0.0358 -0.1482  0.4432
17951TIP3    H175344   1.804   3.230  12.046 -0.4186 -1.0176 -2.4210
17951TIP3    H275345   1.793   3.135  12.164 -0.6445  2.3737  0.4504
17952TIP3   OH275346   3.250   3.336   1.929  0.0343 -0.7281 -0.5314
17952TIP3    H175347   3.167   3.383   1.916  0.3091  0.0946  0.5115
17952TIP3    H275348   3.223   3.252   1.966 -0.3354 -0.2266  0.4011
17953TIP3   OH275349   1.099   6.123   4.087  0.1129  0.1019 -0.1263
17953TIP3    H175350   1.099   6.095   4.179 -1.1171  1.1729  0.2300
17953TIP3    H275351   1.012   6.160   4.073 -0.5631 -2.0392 -2.3817
17954TIP3   OH275352   2.106   5.789   5.370  0.3987 -0.0896  0.5904
17954TIP3    H175353   2.075   5.700   5.351  2.2551 -0.8506  0.8486
17954TIP3    H275354   2.117   5.829   5.283 -4.1382  1.4156  0.4329
17955TIP3   OH275355   0.739   0.151   5.706  0.6901 -0.9753  0.7550
17955TIP3    H175356   0.651   0.129   5.734 -0.6192  1.0447 -1.3947
17955TIP3    H275357   0.736   0.148   5.610  2.6235  0.2447  0.5946
17956TIP3   OH275358   0.969   1.032  17.192  0.0867 -0.4205 -0.0223
17956TIP3    H175359   0.922   1.091  17.251  0.4777  0.5112 -0.6013
17956TIP3    H275360   1.004   0.963  17.248 -0.5844 -0.2235  0.6457
17957TIP3   OH275361   6.572   3.005  11.224  0.7326 -0.9748 -0.3486
17957TIP3    H175362   6.593   3.077  11.284  1.2326  0.2181 -1.9096
17957TIP3    H275363   6.480   2.986  11.242  0.8844 -0.7143  0.8474
17958TIP3   OH275364   4.570   4.513  16.235 -0.0990 -0.1386  0.1356
17958TIP3    H175365   4.496   4.573  16.229  0.5800  0.6301 -1.1452
17958TIP3    H275366   4.628   4.551  16.300  1.0168  1.4784 -1.6804
17959TIP3   OH275367   4.881   0.210  10.810 -0.1085  0.4668  0.5130
17959TIP3    H175368   4.848   0.272  10.744  1.9259  1.2048  0.1164
17959TIP3    H275369   4.970   0.240  10.828  1.5412 -3.1532 -0.7540
17960TIP3   OH275370   1.384   4.067  13.361 -0.1835 -0.0539 -0.8058
17960TIP3    H175371   1.312   4.019  13.321 -0.9196 -0.4498  0.8999
17960TIP3    H275372   1.354   4.086  13.450  1.5262  0.4221 -0.2861
17961TIP3   OH275373   5.960   1.487   6.207 -0.1149  0.2923  0.3475
17961TIP3    H175374   5.941   1.404   6.249  0.1419  1.2621  2.4991
17961TIP3    H275375   6.052   1.481   6.181 -0.0896 -0.0702  0.5249
17962TIP3   OH275376   6.724   5.308   1.995 -0.2118  0.0687  0.3321
17962TIP3    H175377   6.793   5.374   2.007 -0.2807  0.2878 -0.4429
17962TIP3    H275378   6.643   5.355   2.011 -0.2336  0.0512  0.2724
17963TIP3   OH275379   3.556   2.093  12.728 -0.5311  0.1567  0.5068
17963TIP3    H175380   3.621   2.162  12.741  0.3049 -0.8461  1.9681
17963TIP3    H275381   3.472   2.136  12.746 -0.2680  1.3437 -0.8942
17964TIP3   OH275382   3.813   2.216  14.586 -0.2091 -0.0769  0.3974
17964TIP3    H175383   3.908   2.227  14.580  0.0993 -1.9482  1.0353
17964TIP3    H275384   3.791   2.155  14.515 -0.9259  0.2709  0.3109
17965TIP3   OH275385   0.136   6.445   5.725 -0.3199  0.1534  0.5563
17965TIP3    H175386   0.061   6.476   5.776 -0.7313 -0.2533  0.2109
17965TIP3    H275387   0.098   6.413   5.643  0.1993 -0.3015  0.4841
17966TIP3   OH275388   4.501   4.523   0.312 -0.3543  0.5840 -0.1993
17966TIP3    H175389   4.551   4.604   0.306 -0.5166  0.6353 -0.9357
17966TIP3    H275390   4.465   4.510   0.224  0.7374 -0.9567 -0.4543
17967TIP3   OH275391   6.817   2.682   0.394 -0.1849  0.5070  0.0393
17967TIP3    H175392   6.818   2.620   0.322  1.0653 -0.0058  0.4602
17967TIP3    H275393   6.728   2.679   0.428 -0.8465  0.9151 -1.5944
17968TIP3   OH275394   0.779   6.601   2.479 -0.1937 -0.1259  0.8338
17968TIP3    H175395   0.800   6.640   2.564  1.1604 -1.4922  1.1618
17968TIP3    H275396   0.726   6.524   2.499 -3.0007  1.4870  0.1743
17969TIP3   OH275397   3.118   4.047  12.715 -0.0476  0.0241 -0.1804
17969TIP3    H175398   3.119   4.120  12.777  0.4406 -0.6537  0.6299
17969TIP3    H275399   3.209   4.039  12.687 -0.0498 -0.4311 -0.0651
17970TIP3   OH275400   5.861   4.045  13.591 -0.0457 -0.0168  0.1033
17970TIP3    H175401   5.818   4.122  13.628 -2.3598  0.3326 -2.9324
17970TIP3    H275402   5.819   3.971  13.634 -0.9644  0.3827 -0.0855
17971TIP3   OH275403   1.666   3.209   1.836 -0.2011 -0.7194  0.7295
17971TIP3    H175404   1.649   3.130   1.888  0.2883 -1.1004  0.3117
17971TIP3    H275405   1.579   3.247   1.821 -0.3695 -0.6792  1.6947
17972TIP3   OH275406   2.227   5.465  12.794 -0.0338  0.3454  0.3191
17972TIP3    H175407   2.215   5.484  12.887 -0.8948 -0.0472  0.2882
17972TIP3    H275408   2.314   5.500  12.774  1.5048 -2.2249  1.9810
17973TIP3   OH275409   1.312   3.660  16.083 -0.2727 -0.2662 -0.3311
17973TIP3    H175410   1.374   3.620  16.021  0.9305 -0.6054  1.0265
17973TIP3    H275411   1.346   3.748  16.098  1.0301 -1.0483  1.8088
17974TIP3   OH275412   2.869   3.648   1.431 -0.2412 -0.4270 -0.1672
17974TIP3    H175413   2.867   3.558   1.465  0.4455 -0.5360 -0.4046
17974TIP3    H275414   2.803   3.648   1.362  0.0205 -0.8555 -0.4223
17975TIP3   OH275415   3.965   4.205   1.880 -0.9680 -0.4675 -0.0666
17975TIP3    H175416   3.960   4.152   1.959  3.0962  1.4367  1.7498
17975TIP3    H275417   4.029   4.161   1.825 -0.2986  0.6226 -0.1893
17976TIP3   OH275418   1.635   1.504   3.988  0.1928  0.1345 -0.0744
17976TIP3    H175419   1.713   1.507   3.932  0.7980  0.1968  0.7597
17976TIP3    H275420   1.566   1.471   3.930  0.4943  1.3700 -1.1963
17977TIP3   OH275421   0.675   0.066  16.100 -0.0757  0.4874 -0.2126
17977TIP3    H175422   0.727   0.087  16.178  0.4613 -1.5471  0.0215
17977TIP3    H275423   0.597   0.121  16.108 -0.3219 -0.1047  2.1050
17978TIP3   OH275424   2.775   2.498   4.185 -0.1706 -0.7099  0.2055
17978TIP3    H175425   2.717   2.431   4.147 -3.1978  1.4985  0.5968
17978TIP3    H275426   2.751   2.499   4.278 -0.5439  1.2132  0.1112
17979TIP3   OH275427   2.972   1.688   5.721  0.4278 -0.4711  0.1424
17979TIP3    H175428   2.882   1.720   5.728  1.4129  2.5076  0.4906
17979TIP3    H275429   2.971   1.627   5.647 -2.1847 -1.9149  1.2456
17980TIP3   OH275430   1.457   4.286   1.486  0.0061  0.4403  0.1188
17980TIP3    H175431   1.415   4.359   1.442 -1.2287  0.3953  1.1823
17980TIP3    H275432   1.387   4.223   1.502  1.2164 -1.5390 -1.7803
17981TIP3   OH275433   3.217   6.269   5.049  0.7343  0.4305 -0.4924
17981TIP3    H175434   3.188   6.338   5.108  1.6288  2.3203 -2.1658
17981TIP3    H275435   3.285   6.223   5.098 -2.6140 -2.1458  2.2982
17982TIP3   OH275436   3.890   0.975  14.297  0.4482 -0.1555  0.4368
17982TIP3    H175437   3.879   1.068  14.279  0.4334  0.0503  1.4269
17982TIP3    H275438   3.870   0.932  14.215  0.7119  0.7349 -0.1078
17983TIP3   OH275439   1.555   6.646   2.158 -0.0823 -0.3738 -0.4604
17983TIP3    H175440   1.607   6.693   2.222 -1.2590 -1.3746  1.3176
17983TIP3    H275441   1.560   6.554   2.185 -1.5855 -0.6752 -1.0837
17984TIP3   OH275442   5.698   3.095  17.171 -0.4011  0.4967 -0.1825
17984TIP3    H175443   5.692   3.021  17.111  0.1564  1.1498 -1.0657
17984TIP3    H275444   5.659   3.169  17.123 -0.7834  0.8229  0.6121
17985TIP3   OH275445   6.444   1.721  12.771  0.0071 -0.0423 -0.5489
17985TIP3    H175446   6.537   1.700  12.770  0.0469 -0.0322  1.1567
17985TIP3    H275447   6.407   1.665  12.839 -0.7046  1.9831  0.8293
17986TIP3   OH275448   4.408   1.362  12.425 -0.6441  0.1112  0.0507
17986TIP3    H175449   4.496   1.336  12.395 -0.7210 -1.5776  1.1754
17986TIP3    H275450   4.400   1.453  12.396  0.3397 -0.5372 -2.6161
17987TIP3   OH275451   1.489   3.544  15.893  0.3689  0.7542  0.2533
17987TIP3    H175452   1.511   3.569  15.803  0.9653  1.8341  0.6890
17987TIP3    H275453   1.530   3.458  15.904 -0.0844  0.4073 -0.6438
17988TIP3   OH275454   0.593   1.668  10.597  0.2266 -0.2474 -0.6434
17988TIP3    H175455   0.517   1.708  10.556 -0.4079 -1.4778 -0.7250
17988TIP3    H275456   0.615   1.594  10.539  0.3574 -0.9910  0.3396
17989TIP3   OH275457   4.055   2.887  13.857 -0.9560 -0.4338  0.1124
17989TIP3    H175458   4.043   2.837  13.777 -2.4526 -4.1235  2.3565
17989TIP3    H275459   3.979   2.946  13.861 -2.3672 -2.1538 -0.0033
17990TIP3   OH275460   6.708   1.925  12.068  0.4627 -0.0061 -0.5486
17990TIP3    H175461   6.632   1.887  12.025  0.5656 -0.2034 -0.5568
17990TIP3    H275462   6.706   2.018  12.043  1.3622 -0.3990 -2.2292
17991TIP3   OH275463   1.231   0.821   0.085 -0.4277  0.2957 -0.3821
17991TIP3    H175464   1.151   0.776   0.060  0.7478 -2.1608  0.0574
17991TIP3    H275465   1.292   0.805   0.013  0.0858  1.0408 -0.1292
17992TIP3   OH275466   3.712   6.672  14.959 -0.3292  0.3101 -0.0743
17992TIP3    H175467   3.690   6.646  15.049 -0.3067  0.6472  0.0273
17992TIP3    H275468   3.731   6.765  14.965 -0.7730  0.4299 -0.5095
17993TIP3   OH275469   3.858   2.465  15.639  0.8860 -0.2397 -0.5078
17993TIP3    H175470   3.865   2.525  15.565  1.9050  1.4861  0.8979
17993TIP3    H275471   3.939   2.414  15.636  0.0334 -1.6046 -1.6856
17994TIP3   OH275472   6.130   4.823   1.176 -0.0947  0.2111  0.2422
17994TIP3    H175473   6.046   4.820   1.128  0.8197  0.4417 -1.4651
17994TIP3    H275474   6.116   4.769   1.253 -1.2923 -1.1836 -0.8918
17995TIP3   OH275475   3.036   6.255  13.096  0.1353  0.0558  0.5365
17995TIP3    H175476   2.944   6.278  13.093  0.1738  0.3961  1.4001
17995TIP3    H275477   3.081   6.330  13.058 -0.0677 -1.3598 -2.7885
17996TIP3   OH275478   5.533   2.387  16.699 -0.1544 -0.1416  0.3057
17996TIP3    H175479   5.536   2.365  16.792 -1.7335  2.9881  1.2272
17996TIP3    H275480   5.485   2.315  16.659  1.9537 -2.3701  1.5345
17997TIP3   OH275481   2.303   1.335  15.017  0.4511 -0.1688  0.4132
17997TIP3    H175482   2.378   1.322  14.958  0.6713 -1.2392  0.9066
17997TIP3    H275483   2.317   1.271  15.087 -0.3921  0.3315  1.0477
17998TIP3   OH275484   1.434   4.245  10.929 -0.3530  0.5725  0.6471
17998TIP3    H175485   1.344   4.211  10.922  0.4823 -1.7855  0.3366
17998TIP3    H275486   1.487   4.180  10.884  1.2819  3.4214 -1.8881
17999TIP3   OH275487   2.523   3.213   0.988 -0.4007 -0.0543 -0.3436
17999TIP3    H175488   2.557   3.299   1.014 -1.9367 -0.0668  2.1415
17999TIP3    H275489   2.428   3.227   0.981 -0.5890 -1.3642 -0.6640
18000TIP3   OH275490   3.596   5.390  14.601  0.1755 -0.2905 -0.4550
18000TIP3    H175491   3.579   5.327  14.671  2.0636  0.7061  1.0028
18000TIP3    H275492   3.688   5.377  14.579  0.4270  1.4498 -0.6089
18001TIP3   OH275493   0.204   2.027   0.175  0.2163 -0.0089  0.1513
18001TIP3    H175494   0.136   1.983   0.124  0.2373 -0.1308  0.2268
18001TIP3    H275495   0.199   2.119   0.148  0.9506 -0.2604 -0.8797
18002TIP3   OH275496   5.260   2.506   3.917  0.3631  0.0176 -0.6954
18002TIP3    H175497   5.284   2.445   3.987 -1.4393 -1.0324 -0.9156
18002TIP3    H275498   5.305   2.473   3.840  0.4681 -0.2389 -0.5259
18003TIP3   OH275499   3.313   6.357   0.501  0.0403 -0.3665  0.5504
18003TIP3    H175500   3.258   6.415   0.554 -0.0699 -0.6736  0.7761
18003TIP3    H275501   3.315   6.398   0.414  2.3161  1.5162  1.4140
18004TIP3   OH275502   4.692   4.286   2.947  0.6026 -0.7235  0.1187
18004TIP3    H175503   4.773   4.332   2.970  0.7081 -0.9219  0.1441
18004TIP3    H275504   4.708   4.253   2.859 -1.1391  3.2364 -1.9437
18005TIP3   OH275505   0.454   3.124   0.701 -0.8790 -0.6104  0.5206
18005TIP3    H175506   0.385   3.190   0.694 -0.2921  0.4593  3.1907
18005TIP3    H275507   0.408   3.042   0.714 -1.6291 -0.4130 -0.7479
18006TIP3   OH275508   1.056   4.182  11.171  0.2185  0.0065 -0.0908
18006TIP3    H175509   1.005   4.262  11.166  1.7581  1.1426  1.3699
18006TIP3    H275510   1.073   4.158  11.080  0.0437  1.5542 -0.5559
18007TIP3   OH275511   5.122   4.582  11.206 -0.0354 -0.3335 -0.2904
18007TIP3    H175512   5.171   4.535  11.273 -0.3888  1.2825  1.1717
18007TIP3    H275513   5.040   4.608  11.249 -0.2850  0.7202 -1.3330
18008TIP3   OH275514   3.166   3.328   3.649 -0.0993 -0.0119 -0.1226
18008TIP3    H175515   3.206   3.242   3.639 -0.1386  0.0468 -0.8125
18008TIP3    H275516   3.136   3.330   3.740 -1.8589 -1.4922 -0.6166
18009TIP3   OH275517   0.530   3.346  11.668  0.4300  0.0587 -0.7452
18009TIP3    H175518   0.611   3.393  11.651  0.1815  0.4558 -0.8408
18009TIP3    H275519   0.463   3.414  11.677  0.0082 -0.2811 -1.2044
18010TIP3   OH275520   1.631   3.026  13.352  0.1581  0.5720  0.2526
18010TIP3    H175521   1.697   2.982  13.404 -0.3877 -1.7385 -0.8802
18010TIP3    H275522   1.580   3.076  13.416  1.0723 -0.0936  1.5550
18011TIP3   OH275523   2.974   4.777   0.572 -0.4450  0.1129  0.0003
18011TIP3    H175524   2.940   4.862   0.602 -2.8352 -0.4748 -0.8316
18011TIP3    H275525   2.998   4.791   0.481 -1.2409 -0.2059 -0.2600
18012TIP3   OH275526   3.655   1.812   2.144  0.0064  0.5860  0.4020
18012TIP3    H175527   3.744   1.784   2.123  0.7224  1.7206  1.7208
18012TIP3    H275528   3.611   1.817   2.060  1.4575  0.8771 -0.3776
18013TIP3   OH275529   3.005   5.437   5.216  0.2207 -0.2332  0.1352
18013TIP3    H175530   2.986   5.347   5.245 -1.0494 -0.5585 -1.5885
18013TIP3    H275531   3.079   5.427   5.156  0.2396 -0.1013  0.1378
18014TIP3   OH275532   3.326   4.103   4.272  0.3042  0.1791 -0.2666
18014TIP3    H175533   3.309   4.196   4.286  0.4456 -0.0272  1.4841
18014TIP3    H275534   3.241   4.061   4.283  0.3567  0.0311 -0.4140
18015TIP3   OH275535   4.821   1.916  13.542  0.3616 -0.3956  0.3246
18015TIP3    H175536   4.778   1.999  13.560 -0.1473 -0.4786 -0.4801
18015TIP3    H275537   4.909   1.926  13.579 -0.2039 -0.0854  1.6483
18016TIP3   OH275538   3.364   6.256   3.950 -0.0957  0.2982  0.2042
18016TIP3    H175539   3.432   6.320   3.929 -1.3158  1.4931 -0.2422
18016TIP3    H275540   3.311   6.300   4.017 -0.4777 -0.5895  0.4931
18017TIP3   OH275541   4.088   6.308   4.723 -0.2554  0.2164 -0.1746
18017TIP3    H175542   4.026   6.239   4.699  1.4702 -0.4936 -3.1281
18017TIP3    H275543   4.163   6.295   4.664  1.8900  2.2082  1.8622
18018TIP3   OH275544   2.805   5.594  14.141 -0.1149  0.0353 -0.3850
18018TIP3    H175545   2.842   5.659  14.081  1.6906  1.3186  1.9764
18018TIP3    H275546   2.720   5.630  14.166 -0.0767  0.3782 -0.7365
18019TIP3   OH275547   4.938   2.092   2.171 -0.4087 -0.5758  0.1863
18019TIP3    H175548   4.877   2.055   2.235 -0.9391 -1.6745 -0.9077
18019TIP3    H275549   5.021   2.046   2.186 -0.0389  0.3865  1.1838
18020TIP3   OH275550   3.795   1.002   3.922  0.2185 -0.3269  0.5914
18020TIP3    H175551   3.889   0.987   3.933  0.1984 -0.5821  0.4380
18020TIP3    H275552   3.763   1.024   4.010  0.5808  0.6943  0.4728
18021TIP3   OH275553   5.679   5.927  15.576 -0.1500  0.6714  0.4034
18021TIP3    H175554   5.651   6.018  15.569  0.6383  1.0092  1.4102
18021TIP3    H275555   5.749   5.918  15.510 -1.8017  0.1126 -1.3665
18022TIP3   OH275556   1.512   2.599  13.471 -0.1870 -0.5110 -0.5990
18022TIP3    H175557   1.438   2.539  13.483  0.2619 -1.2995 -1.6147
18022TIP3    H275558   1.576   2.572  13.538  0.1539 -1.4088 -1.2724
18023TIP3   OH275559   3.718   3.630  12.158  0.1249 -0.3834  0.4488
18023TIP3    H175560   3.793   3.592  12.112  0.3460  0.4273  0.1275
18023TIP3    H275561   3.750   3.713  12.193 -1.2610  1.1730 -1.7741
18024TIP3   OH275562   2.610   1.104  14.209  0.7440  0.0407 -0.1811
18024TIP3    H175563   2.686   1.156  14.236 -0.2436  0.1409  2.7651
18024TIP3    H275564   2.534   1.157  14.234 -0.2816 -1.6174  0.4082
18025TIP3   OH275565   3.796   1.795  10.617  0.2716  0.2312 -0.0629
18025TIP3    H175566   3.814   1.745  10.697  0.0246  0.3157  0.0445
18025TIP3    H275567   3.740   1.867  10.646 -1.7486 -1.0113 -0.6760
18026TIP3   OH275568   5.838   3.515  15.662 -0.3880  0.1417 -0.1264
18026TIP3    H175569   5.892   3.587  15.630 -0.1184  0.3924  0.8550
18026TIP3    H275570   5.754   3.555  15.682  0.5558  0.8139  2.9822
18027TIP3   OH275571   4.511   0.668  16.608 -0.4704 -0.8529 -0.2610
18027TIP3    H175572   4.582   0.604  16.600  0.7940  0.5111 -0.4156
18027TIP3    H275573   4.512   0.716  16.525 -1.5222 -0.7504 -0.2265
18028TIP3   OH275574   6.024   1.649  14.252 -0.3397 -0.7281 -0.0662
18028TIP3    H175575   6.118   1.668  14.258  0.1917 -2.9044 -0.5905
18028TIP3    H275576   5.999   1.622  14.340 -0.6059  0.2794  0.1804
18029TIP3   OH275577   0.387   0.033  14.246 -0.2610  0.0828 -0.5043
18029TIP3    H175578   0.425   0.082  14.320  0.1802  0.1859 -0.7965
18029TIP3    H275579   0.449   0.046  14.174 -1.2057  0.8888 -1.2209
18030TIP3   OH275580   1.897   6.253  12.439 -0.4365 -0.1881 -0.6627
18030TIP3    H175581   1.982   6.268  12.398 -0.1554 -0.2508 -0.1191
18030TIP3    H275582   1.842   6.217  12.370  0.0937 -0.5175 -0.9151
18031TIP3   OH275583   5.057   0.984  13.180 -0.1785 -0.9933  0.2620
18031TIP3    H175584   5.081   0.895  13.209  1.5509  0.4370  3.8309
18031TIP3    H275585   5.141   1.026  13.163 -0.9007  0.3725 -0.0004
18032TIP3   OH275586   3.971   3.965   0.472 -0.1870 -0.2914 -0.6690
18032TIP3    H175587   3.998   3.942   0.561  0.0005  1.9539 -0.0974
18032TIP3    H275588   3.876   3.955   0.473 -0.1891 -0.2421 -0.1988
18033TIP3   OH275589   2.606   6.044   6.535  0.4961 -0.5217  0.1180
18033TIP3    H175590   2.669   5.979   6.565  1.3735  0.1084 -0.3136
18033TIP3    H275591   2.592   6.101   6.610  1.3224 -0.0017 -0.1033
18034TIP3   OH275592   0.804   6.233  13.740 -0.0640  0.2088 -0.1366
18034TIP3    H175593   0.856   6.257  13.817  0.5474  1.1134 -0.8148
18034TIP3    H275594   0.852   6.160  13.701 -0.3620 -0.2363  0.3110
18035TIP3   OH275595   3.364   3.604  11.973  0.7210  0.7395 -0.1982
18035TIP3    H175596   3.403   3.534  12.025  0.6731  0.6363 -0.3032
18035TIP3    H275597   3.426   3.677  11.980  1.6102  0.1370 -1.4709
18036TIP3   OH275598   0.837   2.185  17.091  0.1301 -0.0312 -0.3194
18036TIP3    H175599   0.883   2.219  17.014 -0.8815  0.7692 -0.5893
18036TIP3    H275600   0.877   2.230  17.165  2.8817 -2.6364 -0.0266
18037TIP3   OH275601   1.102   6.541   3.964 -0.2758  0.1572  0.0158
18037TIP3    H175602   1.053   6.487   3.901 -0.7858  1.1446 -0.4501
18037TIP3    H275603   1.059   6.626   3.961  0.5220  0.5959  0.7456
18038TIP3   OH275604   4.625   0.104  13.041 -0.1452  0.2461 -0.2709
18038TIP3    H175605   4.595   0.106  12.950 -3.2732  1.0338  0.6634
18038TIP3    H275606   4.550   0.071  13.090  1.0999  0.8176  2.1675
18039TIP3   OH275607   5.272   6.592   1.220 -0.4729  0.0419  0.4235
18039TIP3    H175608   5.316   6.510   1.239 -1.3749 -0.4904  0.2695
18039TIP3    H275609   5.181   6.567   1.201 -1.0918  1.1988  1.7192
18040TIP3   OH275610   6.588   6.748  15.586 -0.4351  0.0020  0.0020
18040TIP3    H175611   6.517   6.684  15.580 -1.6903  1.2188  1.3089
18040TIP3    H275612   6.547   6.832  15.568 -0.0807  1.1595  3.7896
18041TIP3   OH275613   5.229   3.965   5.984 -0.1738  0.3828  0.3044
18041TIP3    H175614   5.281   3.885   5.976 -0.8540 -0.0995  0.5356
18041TIP3    H275615   5.161   3.943   6.049 -1.2408  0.6586 -0.6829
18042TIP3   OH275616   1.152   2.102   3.879 -0.1254  0.3976 -0.1322
18042TIP3    H175617   1.224   2.047   3.848 -1.5279 -0.1097 -2.7900
18042TIP3    H275618   1.085   2.040   3.909 -0.0940  0.8084  0.8176
18043TIP3   OH275619   0.506   2.188  11.746 -0.4544 -0.5034  0.1377
18043TIP3    H175620   0.441   2.257  11.758  0.4323  0.4575 -0.3744
18043TIP3    H275621   0.463   2.124  11.690 -0.3531  1.0657 -1.8806
18044TIP3   OH275622   5.900   5.684   1.250 -0.3918  0.3086 -0.3350
18044TIP3    H175623   5.917   5.763   1.198 -0.4130  0.1397 -0.6045
18044TIP3    H275624   5.881   5.716   1.338  0.8306  0.5349 -0.1394
18045TIP3   OH275625   2.221   3.409   0.045 -0.3586  0.1682  0.3243
18045TIP3    H175626   2.277   3.369  -0.022  1.3221  1.0457  1.1375
18045TIP3    H275627   2.269   3.488   0.071 -1.7271  0.6495  1.4686
18046TIP3   OH275628   1.214   3.483   2.052  0.4862  0.2022 -0.0902
18046TIP3    H175629   1.241   3.521   1.969 -0.9874  1.3727 -0.0821
18046TIP3    H275630   1.285   3.424   2.077  1.2136  0.2919 -1.8744
18047TIP3   OH275631   5.703   3.137   6.260  0.2326 -0.2009 -0.7170
18047TIP3    H175632   5.674   3.228   6.258  1.0301  0.0616 -0.4210
18047TIP3    H275633   5.649   3.096   6.328  0.5032  0.2748 -0.2064
18048TIP3   OH275634   0.423   0.397   0.227 -0.6733 -0.0752 -0.4470
18048TIP3    H175635   0.352   0.385   0.163  0.0643 -0.1267 -1.2757
18048TIP3    H275636   0.492   0.338   0.198 -0.6215 -0.7029  0.8832
18049TIP3   OH275637   0.013   5.556  16.755  0.0100  0.1237 -0.5522
18049TIP3    H175638   0.081   5.533  16.691  2.1891  1.2141  1.2279
18049TIP3    H275639   0.059   5.608  16.821 -2.0168 -1.2235  2.1103
18050TIP3   OH275640   1.771   0.509  16.015 -0.6612 -0.0174 -0.2549
18050TIP3    H175641   1.679   0.500  16.040 -0.7275  0.3272 -0.3702
18050TIP3    H275642   1.768   0.540  15.924 -0.4276 -0.5147 -0.4365
18051TIP3   OH275643   1.518   4.146  17.250  0.1558 -0.2046 -0.2152
18051TIP3    H175644   1.599   4.197  17.250 -0.5895  1.0450 -0.6355
18051TIP3    H275645   1.535   4.072  17.307  2.2847 -1.1102 -1.8997
18052TIP3   OH275646   2.170   2.409   2.569 -0.4172  0.0941  0.3877
18052TIP3    H175647   2.089   2.371   2.604 -0.7029 -0.0179 -0.3916
18052TIP3    H275648   2.216   2.335   2.530 -0.2897  0.2884  0.1686
18053TIP3   OH275649   2.726   6.177   4.155  0.1571 -0.0874 -0.5631
18053TIP3    H175650   2.720   6.247   4.091 -0.8426  0.5694  0.2325
18053TIP3    H275651   2.637   6.166   4.189  0.7642  0.0392  1.1774
18054TIP3   OH275652   1.577   5.444   5.310  0.3754  0.4656  0.0019
18054TIP3    H175653   1.483   5.464   5.308  0.6510  1.8343 -0.7415
18054TIP3    H275654   1.594   5.420   5.401 -0.5338  1.0721  0.3504
18055TIP3   OH275655   1.495   0.180  11.400 -0.0206  0.4117 -0.3305
18055TIP3    H175656   1.555   0.105  11.403  0.9977  1.0232 -3.0832
18055TIP3    H275657   1.552   0.256  11.401 -0.7628  1.0292 -1.9567
18056TIP3   OH275658   2.002   6.720  16.512 -0.3917  0.4791 -0.2164
18056TIP3    H175659   2.054   6.640  16.505 -0.0425  0.6540  0.3183
18056TIP3    H275660   1.982   6.728  16.605 -1.1901  0.5393 -0.3766
18057TIP3   OH275661   1.235   5.254  11.384  0.4492  0.3150  0.0797
18057TIP3    H175662   1.158   5.292  11.426  1.0564 -0.2762  1.8177
18057TIP3    H275663   1.251   5.309  11.307 -1.6571  0.4632 -0.3008
18058TIP3   OH275664   0.048   4.715   2.927 -0.0112 -0.0553  0.7139
18058TIP3    H175665   0.103   4.733   2.851 -0.9077  1.1466  0.3343
18058TIP3    H275666  -0.035   4.758   2.908 -0.2113  0.3915  2.4250
18059TIP3   OH275667   3.249   4.212   5.804 -0.5218  0.1619  0.4008
18059TIP3    H175668   3.157   4.216   5.831 -1.2199 -3.0520 -1.0426
18059TIP3    H275669   3.283   4.132   5.845  1.4511  0.9371  0.3750
18060TIP3   OH275670   4.398   6.364  13.003  0.2604  0.0616 -0.0855
18060TIP3    H175671   4.436   6.303  13.067 -0.3930 -1.0197 -0.7017
18060TIP3    H275672   4.349   6.427  13.056  2.0459  0.8846  0.6535
18061TIP3   OH275673   4.654   5.165  15.512 -0.0341 -0.2209 -0.5786
18061TIP3    H175674   4.658   5.260  15.524 -0.8566 -0.2995  0.4696
18061TIP3    H275675   4.740   5.133  15.539  0.2941  0.2251 -1.0665
18062TIP3   OH275676   3.180   6.724   3.959  0.4010 -0.5852  0.0744
18062TIP3    H175677   3.200   6.801   3.905  1.2316 -0.4264  0.5857
18062TIP3    H275678   3.090   6.738   3.988 -0.1875 -0.8377 -1.5192
18063TIP3   OH275679   1.625   5.288  17.277  0.8967  0.5605 -0.3975
18063TIP3    H175680   1.696   5.274  17.338  0.7316 -0.0310 -0.3372
18063TIP3    H275681   1.601   5.380  17.289  2.0030  0.9193 -0.8122
18064TIP3   OH275682   4.401   4.773  15.932  0.2558  0.4026  0.6175
18064TIP3    H175683   4.387   4.679  15.925  0.3399  0.3279  1.3688
18064TIP3    H275684   4.312   4.810  15.937 -0.0627  0.7916 -3.8948
18065TIP3   OH275685   1.585   2.216   0.627  0.1206  0.2835  0.6043
18065TIP3    H175686   1.616   2.134   0.665 -1.8192 -0.4182  0.7953
18065TIP3    H275687   1.610   2.283   0.691  0.5504 -0.3393  1.0974
18066TIP3   OH275688   4.003   4.527   0.347 -0.5485  0.3317  0.0248
18066TIP3    H175689   4.021   4.612   0.388 -2.3868  1.7234 -1.8208
18066TIP3    H275690   4.064   4.523   0.273  0.9174 -0.9393  1.2403
18067TIP3   OH275691   2.775   1.368   3.673  0.0112 -0.4943  0.1698
18067TIP3    H175692   2.780   1.370   3.577 -0.0134  0.0684  0.1732
18067TIP3    H275693   2.735   1.284   3.693 -2.3325  0.3955 -0.4366
18068TIP3   OH275694   2.443   0.963   1.883  0.0591 -0.0741  0.4662
18068TIP3    H175695   2.367   0.988   1.830  0.7186  0.0799 -0.4346
18068TIP3    H275696   2.483   0.891   1.834 -0.3601 -1.1847  1.7217
18069TIP3   OH275697   0.250   3.945  16.726 -0.3272 -0.1105  0.2350
18069TIP3    H175698   0.288   3.876  16.780  0.0170  0.0315  0.1755
18069TIP3    H275699   0.192   3.899  16.665  0.6235 -0.4529 -0.4346
18070TIP3   OH275700   3.675   4.662  16.158 -0.1729  0.3347  0.4943
18070TIP3    H175701   3.593   4.641  16.202 -1.1769 -0.2120 -1.5005
18070TIP3    H275702   3.716   4.578  16.140  0.6665  0.5891  1.1269
18071TIP3   OH275703   1.953   1.710  12.428 -0.2395 -0.0741 -0.4073
18071TIP3    H175704   1.955   1.687  12.335 -0.4603  1.6703 -0.8704
18071TIP3    H275705   2.041   1.688  12.459 -0.1150 -0.5393 -1.0524
18072TIP3   OH275706   1.448   0.396   0.781  0.2521  0.4025  0.7858
18072TIP3    H175707   1.353   0.387   0.773  0.4599 -0.3579 -1.7745
18072TIP3    H275708   1.463   0.491   0.782 -0.4651  0.5632 -0.7796
18073TIP3   OH275709   1.826   6.244   0.770  0.0617  0.1232 -0.3060
18073TIP3    H175710   1.800   6.278   0.684  0.2357  0.8511 -0.0753
18073TIP3    H275711   1.828   6.321   0.827  2.0333  0.0250 -0.1500
18074TIP3   OH275712   6.124   0.906  10.650  0.2564  0.5824 -0.1068
18074TIP3    H175713   6.043   0.952  10.627  0.7318  0.3826 -2.3513
18074TIP3    H275714   6.110   0.878  10.741 -3.1408 -1.3167 -1.0118
18075TIP3   OH275715   1.801   4.396   1.210  0.9325  0.2555  0.5940
18075TIP3    H175716   1.786   4.336   1.283  1.4555  1.1591  1.4778
18075TIP3    H275717   1.839   4.474   1.251  0.0756  1.2751 -0.4930
18076TIP3   OH275718   0.234   1.700   1.338 -0.1950 -0.7523  0.1424
18076TIP3    H175719   0.273   1.613   1.346  0.0095 -0.5803  1.1572
18076TIP3    H275720   0.245   1.739   1.425  1.2887  0.9501 -0.7338
18077TIP3   OH275721   6.245   1.798   2.972  0.0885 -0.1058  0.1835
18077TIP3    H175722   6.291   1.793   3.056  0.4751  0.5238  0.0180
18077TIP3    H275723   6.248   1.891   2.949 -0.7764 -0.1429 -0.1111
18078TIP3   OH275724   2.047   6.423  11.771 -0.0731 -0.3602 -0.6375
18078TIP3    H175725   1.960   6.393  11.799 -1.3759  2.2944 -1.4544
18078TIP3    H275726   2.058   6.385  11.684 -2.0214  1.8089 -1.9700
18079TIP3   OH275727   1.147   5.130   2.811  0.1012 -0.6858  0.0499
18079TIP3    H175728   1.203   5.195   2.771 -0.1957  0.0715  0.8466
18079TIP3    H275729   1.142   5.059   2.746  0.8144 -0.1394 -0.6106
18080TIP3   OH275730   5.200   4.064  13.515 -0.2764  0.0464 -0.1560
18080TIP3    H175731   5.150   4.091  13.437  1.2467  0.1244 -1.1492
18080TIP3    H275732   5.268   4.130  13.523 -0.3108 -0.0547  1.1870
18081TIP3   OH275733   5.545   5.178  14.611 -0.1252 -0.2121 -0.1015
18081TIP3    H175734   5.486   5.160  14.685 -1.4285 -0.3592 -1.1429
18081TIP3    H275735   5.577   5.092  14.584  0.5853 -0.1339  0.4502
18082TIP3   OH275736   3.201   3.288  11.952  0.4238 -0.4824  0.2056
18082TIP3    H175737   3.201   3.367  11.899  0.3225  0.0265  0.9559
18082TIP3    H275738   3.148   3.310  12.029  0.4586 -1.2517  0.4612
18083TIP3   OH275739   3.512   0.492   4.329  0.4630 -0.2468 -0.4944
18083TIP3    H175740   3.584   0.457   4.277  1.1823 -1.2429  1.0841
18083TIP3    H275741   3.441   0.505   4.267  1.1746 -1.6687 -1.6726
18084TIP3   OH275742   1.469   5.856   6.450  0.1316  0.0000 -0.6144
18084TIP3    H175743   1.525   5.933   6.444  0.4617 -0.1573  0.2425
18084TIP3    H275744   1.394   5.885   6.502  0.6156 -0.4340  0.3628
18085TIP3   OH275745   3.680   0.050   0.189 -0.0430  0.2307 -0.1897
18085TIP3    H175746   3.773   0.056   0.208 -0.0387 -0.5355  0.0564
18085TIP3    H275747   3.647  -0.015   0.251 -0.1601 -1.8604 -2.3410
18086TIP3   OH275748   4.720   6.584  16.425 -0.7472 -0.2381 -0.0127
18086TIP3    H175749   4.755   6.500  16.455 -1.2198 -0.9030 -1.2446
18086TIP3    H275750   4.783   6.615  16.359 -0.4772  0.4771  0.5678
18087TIP3   OH275751   2.487   6.225  15.039  0.1063 -0.1490 -0.1273
18087TIP3    H175752   2.477   6.200  14.947 -0.4202 -1.9419  0.3949
18087TIP3    H275753   2.580   6.213  15.057  0.3516  0.8895 -0.5816
18088TIP3   OH275754   6.347   6.713  15.063 -0.7125 -0.3244  0.2201
18088TIP3    H175755   6.280   6.752  15.006 -1.4363 -2.3668 -0.4515
18088TIP3    H275756   6.423   6.702  15.006  0.4172  2.3527  1.0865
18089TIP3   OH275757   2.579   1.158  12.029 -0.4848 -0.6561 -0.2565
18089TIP3    H175758   2.531   1.197  11.955 -0.6533 -1.7797 -0.7693
18089TIP3    H275759   2.577   1.064  12.011  1.2029 -0.7887  0.1562
18090TIP3   OH275760   6.110   4.002   0.368  0.4471  0.2448  0.6098
18090TIP3    H175761   6.188   3.959   0.404  0.7436 -2.9762 -3.1019
18090TIP3    H275762   6.042   3.988   0.434  2.5203  1.7333  3.2590
18091TIP3   OH275763   1.583   1.630  13.318 -0.0292 -0.3250  0.3029
18091TIP3    H175764   1.567   1.677  13.236  2.3489 -1.6014 -1.0354
18091TIP3    H275765   1.517   1.663  13.379 -1.7187  0.8893 -2.0340
18092TIP3   OH275766   2.866   5.160  11.023 -0.2004  0.5056 -0.0085
18092TIP3    H175767   2.883   5.245  10.981 -1.1299  2.2853  2.9690
18092TIP3    H275768   2.947   5.140  11.070 -0.2755  0.1394 -0.0298
18093TIP3   OH275769   4.894   4.925   5.484  0.3141 -0.4151  0.5829
18093TIP3    H175770   4.870   4.833   5.488 -0.6809 -0.1213  3.4424
18093TIP3    H275771   4.943   4.934   5.402 -0.3881 -3.2484 -0.2339
18094TIP3   OH275772   3.444   0.559   3.093 -0.2119  0.3144  0.0944
18094TIP3    H175773   3.390   0.624   3.138 -0.4544 -0.0701  0.3683
18094TIP3    H275774   3.533   0.595   3.097 -0.0635 -0.1564  1.7466
18095TIP3   OH275775   4.782   4.250  13.130  0.0010  0.7042  0.7690
18095TIP3    H175776   4.703   4.283  13.173 -0.1107  0.4099  0.7915
18095TIP3    H275777   4.774   4.154  13.133 -0.2379  0.6712 -0.3183
18096TIP3   OH275778   5.141   1.843  12.102 -0.5477  0.1835  0.1104
18096TIP3    H175779   5.111   1.902  12.171 -1.5499 -0.6058  0.3797
18096TIP3    H275780   5.195   1.898  12.044 -1.3620  1.3211  0.4074
18097TIP3   OH275781   1.233   1.173  13.624 -0.3269 -0.1855 -0.3500
18097TIP3    H175782   1.254   1.080  13.623  0.7301  0.0419 -1.0327
18097TIP3    H275783   1.186   1.187  13.706  1.3866 -0.9289  0.8001
18098TIP3   OH275784   6.706   2.327  14.487  0.0105  0.3776 -0.1158
18098TIP3    H175785   6.743   2.415  14.500  0.1446  0.4119 -0.7023
18098TIP3    H275786   6.741   2.299  14.402  2.5922 -1.5502  1.4233
18099TIP3   OH275787   6.454   6.390   1.716  0.1886 -0.1444 -0.1322
18099TIP3    H175788   6.397   6.331   1.666 -0.4366  0.2272  0.1295
18099TIP3    H275789   6.457   6.351   1.803 -0.3804  0.3017  0.0944
18100TIP3   OH275790   5.360   4.854  12.825 -0.6516 -0.6906  0.3913
18100TIP3    H175791   5.433   4.796  12.803  1.4177  0.9877  2.3259
18100TIP3    H275792   5.360   4.919  12.754 -2.1447 -2.1988 -1.0826
18101TIP3   OH275793   2.482   2.115  13.947 -0.7891 -0.1171 -0.2308
18101TIP3    H175794   2.475   2.088  14.038 -0.2942 -1.0722 -0.4540
18101TIP3    H275795   2.392   2.115  13.914 -0.8386 -1.3344 -0.1532
18102TIP3   OH275796   6.052   0.495   1.243 -0.0963  0.4764 -0.2005
18102TIP3    H175797   6.017   0.584   1.240  0.4445  0.6688 -1.2778
18102TIP3    H275798   6.134   0.504   1.291 -0.3892  0.4333  0.3099
18103TIP3   OH275799   0.528   2.773  16.603  0.2463  0.4698 -0.0217
18103TIP3    H175800   0.520   2.683  16.634  0.3493  0.7107  0.7156
18103TIP3    H275801   0.580   2.817  16.670  0.7630  0.9185 -0.7036
18104TIP3   OH275802   1.628   4.014   2.113 -0.5764 -0.3924  0.0420
18104TIP3    H175803   1.577   4.042   2.189  1.2843  0.5524  1.0213
18104TIP3    H275804   1.640   4.094   2.062 -2.0490 -1.0738 -1.4591
18105TIP3   OH275805   3.724   2.364   4.698  0.2282 -0.3092 -0.2095
18105TIP3    H175806   3.797   2.425   4.707  0.2844 -0.3645 -0.2863
18105TIP3    H275807   3.724   2.339   4.606  0.1874 -0.4014 -0.1856
18106TIP3   OH275808   1.109   4.425  16.355 -0.3204 -0.0485 -0.0733
18106TIP3    H175809   1.132   4.334  16.335 -0.8831 -0.1629 -0.1963
18106TIP3    H275810   1.029   4.419  16.407 -1.2303  0.4487 -1.3934
18107TIP3   OH275811   6.264   6.770  11.643  0.0640  0.2508  0.3556
18107TIP3    H175812   6.218   6.694  11.679 -2.2933  1.6975  0.6408
18107TIP3    H275813   6.194   6.834  11.626  1.8096  1.8885 -1.0532
18108TIP3   OH275814   0.497   4.327   5.946 -0.2077 -0.5411  0.1170
18108TIP3    H175815   0.562   4.374   5.999 -0.0952 -0.4728 -0.0823
18108TIP3    H275816   0.421   4.319   6.003 -0.5782  0.7231 -0.1789
18109TIP3   OH275817   6.719   2.388   1.933  0.6193  0.2079 -0.0376
18109TIP3    H175818   6.657   2.315   1.940  0.4713  0.3088 -0.2902
18109TIP3    H275819   6.675   2.460   1.979 -0.6310  1.0582 -2.3825
18110TIP3   OH275820   0.093   4.655  13.979 -0.0206  0.3093 -0.3707
18110TIP3    H175821   0.140   4.597  13.920 -0.2331  0.2751 -0.5095
18110TIP3    H275822   0.035   4.706  13.922 -0.1148  0.3860 -0.2102
18111TIP3   OH275823   2.839   5.822  15.976  0.2557  0.2779  0.6445
18111TIP3    H175824   2.915   5.829  15.919 -1.5121 -0.2964 -1.9561
18111TIP3    H275825   2.863   5.753  16.038  2.2418  0.9063  0.6656
18112TIP3   OH275826   0.126   4.262   0.680 -0.2797 -0.5198  0.3078
18112TIP3    H175827   0.208   4.213   0.687  1.1448  1.8058  1.3020
18112TIP3    H275828   0.093   4.267   0.769  1.2687  2.7519  0.8613
18113TIP3   OH275829   5.383   1.320   4.231 -0.1182  0.3637 -0.1868
18113TIP3    H175830   5.406   1.327   4.138  0.2521  2.2972  0.0080
18113TIP3    H275831   5.287   1.321   4.232 -0.1541  2.8821 -0.4677
18114TIP3   OH275832   6.642   0.805   2.938  0.1099 -0.4177 -0.5436
18114TIP3    H175833   6.711   0.789   2.873  0.3107 -0.8070 -0.2398
18114TIP3    H275834   6.630   0.720   2.981  1.3344  0.2524  1.2413
18115TIP3   OH275835   4.779   0.066   1.938  0.7051 -0.0338  0.3302
18115TIP3    H175836   4.833  -0.008   1.967  2.4041  2.2408  3.5296
18115TIP3    H275837   4.841   0.136   1.922 -1.0509  1.6337  0.4733
18116TIP3   OH275838   4.623   0.358  14.338  0.6669  0.5619  0.1553
18116TIP3    H175839   4.533   0.328  14.347  0.1793  1.3998 -1.5874
18116TIP3    H275840   4.675   0.289  14.380 -0.7231 -0.3232  0.4878
18117TIP3   OH275841   0.604   1.969  15.152  0.6187  0.2263  0.2431
18117TIP3    H175842   0.586   1.973  15.246  0.9811  0.1006  0.3207
18117TIP3    H275843   0.527   2.008  15.111  0.4281  0.2197  0.5886
18118TIP3   OH275844   2.187   2.428   5.466  0.0862 -0.2540  0.0701
18118TIP3    H175845   2.228   2.509   5.497 -1.3142  0.6280 -0.3007
18118TIP3    H275846   2.249   2.360   5.490  0.5572  0.7386  1.8732
18119TIP3   OH275847   4.712   5.730  15.593 -0.0901 -0.4592  0.5832
18119TIP3    H175848   4.636   5.776  15.557  1.0878  1.0372 -0.1261
18119TIP3    H275849   4.751   5.793  15.655  1.3302 -0.6206 -0.1019
18120TIP3   OH275850   0.358   1.381  14.995  0.2516 -0.3028  0.2639
18120TIP3    H175851   0.393   1.305  14.950 -0.0594 -0.2987  0.0096
18120TIP3    H275852   0.276   1.400  14.950  0.7416  0.7107 -0.2256
18121TIP3   OH275853   2.485   4.669   1.337  0.4296 -0.1252 -0.0966
18121TIP3    H175854   2.480   4.721   1.416  0.1960 -1.2495  0.6571
18121TIP3    H275855   2.578   4.670   1.314  0.2672  1.6312 -0.8299
18122TIP3   OH275856   5.419   0.611  14.198 -0.1803 -0.1339  0.6763
18122TIP3    H175857   5.396   0.520  14.179 -1.0592  0.5758 -2.0655
18122TIP3    H275858   5.515   0.612  14.197 -0.1699 -0.9457  0.2340
18123TIP3   OH275859   5.495   5.725  13.227 -0.5225  0.0435 -0.3269
18123TIP3    H175860   5.568   5.665  13.239 -0.6802 -0.0388  0.2937
18123TIP3    H275861   5.530   5.796  13.173 -0.0831 -0.1612 -0.3137
18124TIP3   OH275862   4.402   3.725   2.133  0.0128 -0.2557  0.4102
18124TIP3    H175863   4.378   3.636   2.159 -4.2017  1.2263  2.3879
18124TIP3    H275864   4.464   3.753   2.201  1.5333 -1.5984 -0.3356
18125TIP3   OH275865   1.980   1.430  16.620  0.3890 -0.1394 -0.3296
18125TIP3    H175866   2.043   1.396  16.684 -1.2467  1.1258  2.0939
18125TIP3    H275867   1.956   1.353  16.568  1.1295 -1.4433  1.1627
18126TIP3   OH275868   1.546   2.966  14.821  0.0497 -0.8194 -0.3100
18126TIP3    H175869   1.636   2.953  14.850  0.3929 -2.2855 -1.8625
18126TIP3    H275870   1.495   2.904  14.873  0.3160 -1.7703 -1.1689
18127TIP3   OH275871   2.216   4.314  14.843  0.6842  0.0601 -0.0362
18127TIP3    H175872   2.249   4.226  14.859  2.5985  0.8538  0.7066
18127TIP3    H275873   2.206   4.318  14.748 -0.2613 -1.2084 -0.0158
18128TIP3   OH275874   1.406   0.294   2.833  0.1522 -0.5851  0.2031
18128TIP3    H175875   1.481   0.354   2.842  0.1107 -0.6647  1.1834
18128TIP3    H275876   1.419   0.253   2.748  0.1843  0.8139 -0.4973
18129TIP3   OH275877   1.232   2.166  14.958 -0.0398 -0.0215 -0.5140
18129TIP3    H175878   1.188   2.085  14.932 -3.6258  1.8149 -0.8755
18129TIP3    H275879   1.177   2.235  14.921  0.5825  2.6218  2.9801
18130TIP3   OH275880   1.042   1.580   0.994 -0.3602 -0.0796 -0.3253
18130TIP3    H175881   0.998   1.512   1.045 -1.2774 -0.0179 -1.0071
18130TIP3    H275882   0.979   1.603   0.926 -0.4055  2.0398  0.3737
18131TIP3   OH275883   3.589   5.894  10.145  0.1243  0.0054  0.7362
18131TIP3    H175884   3.577   5.849  10.228  0.1391 -0.7550  0.3435
18131TIP3    H275885   3.680   5.924  10.147  1.4249 -3.3026 -0.4891
18132TIP3   OH275886   1.087   2.764   1.767 -0.5481 -0.3106  0.1440
18132TIP3    H175887   1.069   2.672   1.751 -0.4144 -0.2296 -0.4655
18132TIP3    H275888   1.026   2.811   1.710 -1.5683  0.0057  1.4205
18133TIP3   OH275889   3.938   0.384   1.432 -0.2414 -0.4100 -0.0114
18133TIP3    H175890   3.957   0.337   1.351 -0.6753 -0.7586  0.0814
18133TIP3    H275891   3.930   0.315   1.498  1.1673 -0.0612  0.5579
18134TIP3   OH275892   4.121   6.143  10.941 -0.6228  0.0925  0.2510
18134TIP3    H175893   4.161   6.056  10.933 -1.9282 -0.5085 -0.1417
18134TIP3    H275894   4.153   6.176  11.025 -0.2723 -0.8807  0.5180
18135TIP3   OH275895   0.748   6.583  15.071  0.0505  0.4098 -0.2693
18135TIP3    H175896   0.831   6.631  15.058 -0.9267  2.3273  0.1518
18135TIP3    H275897   0.709   6.625  15.148 -0.6642 -1.4517  0.4403
18136TIP3   OH275898   1.213   0.043  16.485 -0.1348  0.3332 -0.6205
18136TIP3    H175899   1.295   0.084  16.511  0.0308 -0.9386  1.0706
18136TIP3    H275900   1.237  -0.022  16.420  0.1617  0.1849 -0.3626
18137TIP3   OH275901   0.055   1.405   4.947 -0.0557 -0.1747  0.5862
18137TIP3    H175902   0.007   1.455   4.881  1.0932  0.2373  0.0324
18137TIP3    H275903  -0.002   1.331   4.967 -1.6952  1.1918  1.2334
18138TIP3   OH275904   3.457   4.400   0.354 -0.3212 -0.2500  0.3060
18138TIP3    H175905   3.382   4.460   0.348  0.3191  0.6892  1.2404
18138TIP3    H275906   3.507   4.433   0.429  0.2820 -1.7142  0.5727
18139TIP3   OH275907   3.979   5.393  11.712 -0.3118  0.0732  0.0258
18139TIP3    H175908   3.897   5.442  11.724  0.9396  2.4639 -0.5761
18139TIP3    H275909   3.983   5.376  11.617 -2.3935 -4.4970  0.5002
18140TIP3   OH275910   3.331   6.634  12.864  0.3386 -0.3363  0.0244
18140TIP3    H175911   3.287   6.625  12.779  0.4652  0.6254 -0.1549
18140TIP3    H275912   3.378   6.552  12.876  0.4436 -0.4196 -0.9141
18141TIP3   OH275913   0.994   4.492  14.976 -0.1556  0.0140  0.2006
18141TIP3    H175914   1.065   4.455  14.924 -0.0416  1.7672 -0.9762
18141TIP3    H275915   1.011   4.586  14.977 -2.5117  0.5288 -0.2708
18142TIP3   OH275916   3.924   6.709  16.282 -0.2232 -0.9952  0.1071
18142TIP3    H175917   3.999   6.744  16.329 -0.4277 -1.5881  0.9114
18142TIP3    H275918   3.961   6.644  16.222  0.3377  1.5241 -2.5064
18143TIP3   OH275919   4.239   4.461   2.836  0.0153  0.3636 -0.1615
18143TIP3    H175920   4.195   4.542   2.809  0.2394  0.4189 -0.3620
18143TIP3    H275921   4.168   4.405   2.867 -0.3448 -0.0004 -1.5982
18144TIP3   OH275922   5.813   6.198  12.248 -0.3264  0.0198 -0.5478
18144TIP3    H175923   5.807   6.277  12.194  0.8065 -1.3276 -2.8339
18144TIP3    H275924   5.907   6.188  12.265 -0.5871 -0.1070  0.9354
18145TIP3   OH275925   1.766   6.592  12.650  0.2478  0.2100 -0.6577
18145TIP3    H175926   1.679   6.554  12.644  0.0548  0.4330  0.4544
18145TIP3    H275927   1.768   6.632  12.737  1.0160  1.3116 -1.1694
18146TIP3   OH275928   2.890   6.609   2.457  0.3715  0.5397  0.0955
18146TIP3    H175929   2.857   6.589   2.369 -2.0060 -1.4248  1.3049
18146TIP3    H275930   2.840   6.685   2.485 -1.2716 -0.7650  0.8774
18147TIP3   OH275931   6.115   1.443  14.573  0.1569 -0.0818 -0.0095
18147TIP3    H175932   6.035   1.486  14.604  0.5290  0.4485  0.2263
18147TIP3    H275933   6.181   1.512  14.574  0.4280 -0.3103 -1.0000
18148TIP3   OH275934   4.772   0.855  14.085  0.5734 -0.8570  0.1923
18148TIP3    H175935   4.679   0.853  14.107  0.9324 -1.2629  1.8282
18148TIP3    H275936   4.808   0.776  14.126  1.3692 -1.5968 -1.8082
18149TIP3   OH275937   0.122   4.407  15.092 -0.4909  0.1509 -0.2822
18149TIP3    H175938   0.185   4.371  15.155  1.1533  1.3611 -1.1466
18149TIP3    H275939   0.039   4.409  15.139  0.4383 -0.0518  1.4448
18150TIP3   OH275940   2.183   3.233   2.793  0.2956 -0.6499  0.5264
18150TIP3    H175941   2.094   3.259   2.816 -0.0998 -1.0388 -0.5386
18150TIP3    H275942   2.221   3.310   2.751  0.9909  0.0323  2.3036
18151TIP3   OH275943   3.021   4.086   3.674  0.0045  0.2415  0.5200
18151TIP3    H175944   2.944   4.143   3.676 -0.8687 -0.8903  0.1130
18151TIP3    H275945   3.041   4.077   3.581 -0.0877 -0.4102  0.5634
18152TIP3   OH275946   0.718   6.506   4.694 -0.0546 -0.2168 -0.1153
18152TIP3    H175947   0.751   6.416   4.687 -1.1896 -0.5765 -1.1244
18152TIP3    H275948   0.706   6.520   4.788 -4.7477 -3.0417  0.0250
18153TIP3   OH275949   1.798   5.717  15.893 -0.1822  0.3413  0.0988
18153TIP3    H175950   1.747   5.796  15.912  1.0302  1.1342  0.1172
18153TIP3    H275951   1.885   5.735  15.927  0.0821 -1.0754  0.2367
18154TIP3   OH275952   2.227   4.877   2.163  0.6413  0.1522  0.0343
18154TIP3    H175953   2.132   4.870   2.161  0.6596 -0.0137 -0.2564
18154TIP3    H275954   2.250   4.919   2.080  0.3554  5.8887  2.3739
18155TIP3   OH275955   3.215   1.071   5.743  0.6025  0.0153  0.4230
18155TIP3    H175956   3.272   1.022   5.685 -0.7359  0.2303 -1.1329
18155TIP3    H275957   3.250   1.160   5.741 -0.2688  0.3551 -1.2512
18156TIP3   OH275958   2.059   3.806   5.061  0.0845  0.7782 -0.0579
18156TIP3    H175959   2.131   3.869   5.070 -0.8144  1.8596 -0.0996
18156TIP3    H275960   1.992   3.838   5.122  1.0320 -2.3995  3.0237
18157TIP3   OH275961   1.064   4.719   0.950 -0.4459  0.4218  0.7131
18157TIP3    H175962   1.001   4.775   0.905 -1.9924 -2.5611 -1.1094
18157TIP3    H275963   1.018   4.688   1.027 -1.3568 -1.7677 -0.6247
18158TIP3   OH275964   5.006   5.206  15.711 -0.3857 -0.0852  0.3012
18158TIP3    H175965   4.983   5.122  15.670 -0.3760  0.3008 -0.5168
18158TIP3    H275966   4.946   5.269  15.672 -1.3449  0.0731  1.9427
18159TIP3   OH275967   1.007   0.231  16.469 -0.5464 -0.1419 -0.5434
18159TIP3    H175968   1.027   0.325  16.471 -1.7203  0.1411  1.8633
18159TIP3    H275969   1.092   0.189  16.466  0.3487  1.0564  2.7646
18160TIP3   OH275970   5.764   5.137  16.079 -0.1124 -0.4058  0.3934
18160TIP3    H175971   5.745   5.064  16.137  0.0020  0.7556  1.9512
18160TIP3    H275972   5.679   5.172  16.054 -0.1579  0.2539  1.4200
18161TIP3   OH275973   5.403   3.883  16.922  0.0018  0.0263  0.7434
18161TIP3    H175974   5.452   3.801  16.911  2.9503  1.4445  2.2714
18161TIP3    H275975   5.363   3.875  17.009  0.3484  0.2140  0.9229
18162TIP3   OH275976   1.525   1.042  14.102  0.1249  0.1619 -0.1396
18162TIP3    H175977   1.499   1.058  14.192  0.6822 -1.7736  0.3941
18162TIP3    H275978   1.620   1.045  14.103  0.1621  2.6534 -1.2143
18163TIP3   OH275979   4.864   3.138   4.932 -0.2107 -0.3059  0.6395
18163TIP3    H175980   4.921   3.183   4.869  1.2438 -0.5084  1.7725
18163TIP3    H275981   4.776   3.162   4.905  0.3217 -0.6881 -1.7277
18164TIP3   OH275982   2.143   0.652   4.112 -0.2831  0.1951  0.8867
18164TIP3    H175983   2.113   0.561   4.107 -0.4236  0.3191 -0.8911
18164TIP3    H275984   2.234   0.646   4.139 -0.5321 -0.4185  1.6375
18165TIP3   OH275985   5.467   2.366  12.039  0.3149 -0.8624 -0.2097
18165TIP3    H175986   5.479   2.350  11.946  0.6023  3.5669 -1.1731
18165TIP3    H275987   5.373   2.355  12.054  0.0569 -0.3608 -1.3695
18166TIP3   OH275988   3.004   1.109   0.525  0.5086 -0.1339  0.3648
18166TIP3    H175989   2.970   1.093   0.437  1.0302  2.8476 -0.4877
18166TIP3    H275990   2.930   1.146   0.573  0.5184 -0.7550  0.8716
18167TIP3   OH275991   1.374   4.872   2.828  0.2009 -0.3306  0.1638
18167TIP3    H175992   1.334   4.954   2.797  0.0528  1.2403  3.8876
18167TIP3    H275993   1.299   4.818   2.853  0.3157 -0.3693  0.4260
18168TIP3   OH275994   0.980   4.147   2.100 -0.2642  0.3140  0.0916
18168TIP3    H175995   0.893   4.172   2.132  0.2872  1.4071  0.7821
18168TIP3    H275996   0.962   4.096   2.021 -1.5548 -0.0158  0.5708
18169TIP3   OH275997   1.505   1.345  13.928 -0.3743 -0.3112 -1.0689
18169TIP3    H175998   1.536   1.265  13.885  0.7019  0.9511 -2.7832
18169TIP3    H275999   1.577   1.370  13.986 -1.9057 -2.1242  1.8764
18170TIP3   OH276000   1.503   6.623  11.421  0.1509  0.6464 -0.3730
18170TIP3    H176001   1.588   6.656  11.449  0.2281 -0.1241  0.3665
18170TIP3    H276002   1.516   6.528  11.413 -0.4882  0.5913 -0.8017
18171TIP3   OH276003   6.220   5.631   0.356 -0.2660  0.5349 -0.2917
18171TIP3    H176004   6.275   5.570   0.308 -0.4528  0.5615 -0.5406
18171TIP3    H276005   6.219   5.597   0.445  0.7047  0.9139 -0.1240
18172TIP3   OH276006   3.577   3.089  12.117  0.3094  0.2912 -0.3033
18172TIP3    H176007   3.668   3.065  12.097 -0.2054 -0.9254 -1.3779
18172TIP3    H276008   3.555   3.038  12.195  1.0964  2.0202  1.1070
18173TIP3   OH276009   0.315   5.142   6.501 -0.3299  0.1622  0.4663
18173TIP3    H176010   0.355   5.078   6.443 -0.9291  1.4702 -1.4975
18173TIP3    H276011   0.379   5.154   6.571  0.2462 -1.7588  0.3373
18174TIP3   OH276012   5.820   2.765   3.362  0.0160  0.7001 -0.3729
18174TIP3    H176013   5.807   2.835   3.426  1.3562 -0.1966  0.9491
18174TIP3    H276014   5.891   2.798   3.307  0.7782  0.3335  0.3673
18175TIP3   OH276015   4.153   0.964   4.667  0.3500 -0.0948  0.0007
18175TIP3    H176016   4.101   0.920   4.601  0.1373 -0.5960  0.4922
18175TIP3    H276017   4.183   0.894   4.725  0.6086  0.3216  0.3829
18176TIP3   OH276018   4.933   5.596  13.546 -0.3294  0.1502  0.0491
18176TIP3    H176019   5.014   5.545  13.534 -0.3420  0.4086 -1.3917
18176TIP3    H276020   4.939   5.665  13.479 -0.4437  1.8966  1.7439
18177TIP3   OH276021   2.505   2.138  16.872  0.3115  0.3717 -0.5626
18177TIP3    H176022   2.556   2.219  16.878 -1.5095  1.6550 -1.4462
18177TIP3    H276023   2.570   2.068  16.880  1.8673  1.8928  0.9518
18178TIP3   OH276024   5.601   5.230  13.336  0.5455 -0.1885 -0.0113
18178TIP3    H176025   5.517   5.274  13.321  1.1503  0.8299 -0.5161
18178TIP3    H276026   5.643   5.227  13.250  1.0827 -0.5714  0.2588
18179TIP3   OH276027   5.565   5.000  15.022 -0.6112  0.5854  0.1215
18179TIP3    H176028   5.628   5.072  15.029  0.0319  0.0218  0.2771
18179TIP3    H276029   5.565   4.977  14.929 -0.0703  0.1444  0.2243
18180TIP3   OH276030   6.372   6.324   3.624  0.3970  0.0400 -0.0119
18180TIP3    H176031   6.439   6.390   3.604 -0.2048  0.8634  0.6177
18180TIP3    H276032   6.417   6.261   3.680  0.4615  0.9807  1.0125
18181TIP3   OH276033   2.506   2.824  15.735 -0.6082  0.2583 -0.4620
18181TIP3    H176034   2.562   2.756  15.773 -3.9755 -1.4218  2.1061
18181TIP3    H276035   2.466   2.782  15.659 -1.4350 -0.0623  0.1410
18182TIP3   OH276036   3.205   0.260   5.223 -0.4089 -0.0967 -0.0527
18182TIP3    H176037   3.157   0.342   5.233 -0.3312 -0.1749  1.2107
18182TIP3    H276038   3.137   0.193   5.218 -0.5188 -0.2974  2.5872
18183TIP3   OH276039   1.422   3.302   3.767 -0.1914 -0.1641 -0.2921
18183TIP3    H176040   1.468   3.344   3.693  0.6052 -0.6932 -0.1118
18183TIP3    H276041   1.407   3.212   3.737 -1.7599  0.1838 -0.6183
18184TIP3   OH276042   5.340   5.166  12.933  0.1046  0.2082 -0.6488
18184TIP3    H176043   5.340   5.116  12.851  1.2575  0.1547 -0.6266
18184TIP3    H276044   5.254   5.208  12.935  0.0894  0.2765 -1.9226
18185TIP3   OH276045   2.178   5.585   6.723 -0.1059  0.2348 -0.0523
18185TIP3    H176046   2.093   5.592   6.679 -0.4709 -0.0316  0.6056
18185TIP3    H276047   2.184   5.494   6.750 -0.5232  0.6900  1.6930
18186TIP3   OH276048   3.100   5.923   3.329  0.1564  0.2152 -0.1669
18186TIP3    H176049   3.066   5.863   3.396  0.0287  0.6355  0.1466
18186TIP3    H276050   3.178   5.879   3.296 -0.1800 -0.3317 -0.2500
18187TIP3   OH276051   2.339   2.454   3.784 -0.2022 -0.2618 -0.0437
18187TIP3    H176052   2.413   2.464   3.724  0.0042  0.9905  0.3813
18187TIP3    H276053   2.269   2.505   3.743 -0.3795 -0.2535  0.2719
18188TIP3   OH276054   3.486   2.619  11.994  0.9912 -1.0615  0.3883
18188TIP3    H176055   3.511   2.696  11.944  2.1991 -0.8445  1.2616
18188TIP3    H276056   3.433   2.654  12.066  0.0916 -1.2599 -0.1617
18189TIP3   OH276057   0.573   0.769  11.192  0.0861 -0.0540 -0.6614
18189TIP3    H176058   0.603   0.810  11.273 -1.4565  0.7161 -0.4320
18189TIP3    H276059   0.478   0.759  11.205  0.2304 -2.9470 -1.0486
18190TIP3   OH276060   0.269   2.250   5.543  0.0274 -0.2994  0.3664
18190TIP3    H176061   0.228   2.240   5.457 -0.5205 -0.0102  0.5887
18190TIP3    H276062   0.294   2.343   5.546 -1.4054  0.0918  1.1415
18191TIP3   OH276063   3.918   0.961   0.385  0.0708  0.4558  0.2527
18191TIP3    H176064   3.967   0.879   0.392 -0.0949  0.3775  0.4930
18191TIP3    H276065   3.984   1.026   0.362  0.4133  0.4794  1.2434
18192TIP3   OH276066   6.146   4.035   2.208 -0.1603 -0.5022 -0.7432
18192TIP3    H176067   6.221   4.085   2.240 -0.5770  0.1701 -0.8098
18192TIP3    H276068   6.070   4.088   2.230 -0.5637 -0.7985 -1.3933
18193TIP3   OH276069   1.427   4.111  12.274  0.3142 -0.0440  0.1090
18193TIP3    H176070   1.507   4.128  12.223  2.0064 -1.4778  2.0974
18193TIP3    H276071   1.450   4.134  12.364 -1.6597 -0.1527  0.6915
18194TIP3   OH276072   4.155   4.058  14.728 -0.3177  0.1294 -0.0803
18194TIP3    H176073   4.150   3.967  14.699 -0.2154  0.3666 -0.8602
18194TIP3    H276074   4.066   4.079  14.755 -0.4220 -0.0868 -0.2508
18195TIP3   OH276075   0.915   3.146  15.031  0.2104  0.4418 -0.1908
18195TIP3    H176076   0.873   3.060  15.032  1.5812 -0.2701 -0.8318
18195TIP3    H276077   0.996   3.133  15.082  0.0720  1.5548  0.3377
18196TIP3   OH276078   4.168   1.689   6.084  0.1165 -0.2387  0.5262
18196TIP3    H176079   4.252   1.648   6.064 -0.7076 -2.6683  1.6345
18196TIP3    H276080   4.151   1.666   6.175 -3.3459 -2.9665 -0.5832
18197TIP3   OH276081   1.195   2.615  13.391  0.6036  0.4582  0.0865
18197TIP3    H176082   1.109   2.651  13.413  0.5138  0.7846 -0.7397
18197TIP3    H276083   1.187   2.589  13.299  1.2991  0.2158  0.0870
18198TIP3   OH276084   3.704   3.996   2.138  0.0256  0.4288  0.5925
18198TIP3    H176085   3.620   4.033   2.109 -0.4636 -0.5987  0.6343
18198TIP3    H276086   3.680   3.919   2.189  1.0090 -0.4794 -0.2465
18199TIP3   OH276087   6.332   3.234  16.148 -0.5508 -0.5706  0.0294
18199TIP3    H176088   6.258   3.285  16.114 -0.1108 -0.6116 -1.0265
18199TIP3    H276089   6.315   3.227  16.242 -2.0509 -0.8362 -0.2309
18200TIP3   OH276090   3.066   2.703  14.635  0.2998 -0.4293  0.0205
18200TIP3    H176091   2.988   2.746  14.669 -0.0903  0.1234 -1.4772
18200TIP3    H276092   3.094   2.644  14.705 -0.0372  1.1437  1.5440
18201TIP3   OH276093   1.237   2.642   4.776 -0.4815  0.2951 -0.4395
18201TIP3    H176094   1.233   2.547   4.764  0.0588  0.4616 -2.2871
18201TIP3    H276095   1.279   2.654   4.861 -0.9286 -1.1152 -0.0017
18202TIP3   OH276096   3.393   3.063   5.755 -0.4289 -0.2855  0.2370
18202TIP3    H176097   3.379   3.018   5.838  0.0503 -0.9337 -0.0183
18202TIP3    H276098   3.488   3.080   5.752 -0.5041  0.1052  0.0104
18203TIP3   OH276099   4.097   6.379   4.306  0.2043 -0.3204 -0.0343
18203TIP3    H176100   4.097   6.411   4.216 -0.1910  0.3419  0.1889
18203TIP3    H276101   4.119   6.456   4.359  1.5002 -0.9375  0.3676
18204TIP3   OH276102   5.222   1.548  14.188  0.1466 -0.0633 -0.1951
18204TIP3    H176103   5.228   1.638  14.156  0.0805 -0.7918 -2.3650
18204TIP3    H276104   5.302   1.536  14.239  0.1722  1.1982  0.1076
18205TIP3   OH276105   5.729   4.017   3.469  0.0899  0.3532  0.0966
18205TIP3    H176106   5.754   3.977   3.385 -0.3717  1.1696 -0.4405
18205TIP3    H276107   5.662   4.081   3.446 -1.0848 -0.4092  1.2728
18206TIP3   OH276108   6.740   0.576   5.475  0.0356  0.7105  0.7033
18206TIP3    H176109   6.760   0.617   5.559  1.0128  0.5687  0.5496
18206TIP3    H276110   6.786   0.492   5.477 -1.3479 -0.0810  0.7168
18207TIP3   OH276111   6.016   5.702  11.188  0.3326  0.1981 -0.0363
18207TIP3    H176112   5.959   5.629  11.163 -1.7951  1.9735 -0.7458
18207TIP3    H276113   6.064   5.670  11.264 -0.8233 -1.7815 -0.0657
18208TIP3   OH276114   2.923   4.583  15.314  0.0682  0.3200  0.3274
18208TIP3    H176115   3.013   4.585  15.348  0.0266  2.7538  0.4374
18208TIP3    H276116   2.872   4.635  15.377 -0.5971  2.3572 -1.7549
18209TIP3   OH276117   6.614   3.042  12.279 -0.4613 -0.0451  0.0312
18209TIP3    H176118   6.519   3.030  12.287 -0.7825  0.2508 -2.6145
18209TIP3    H276119   6.650   2.957  12.304 -1.6215 -0.9964 -1.3384
18210TIP3   OH276120   4.532   3.754  14.187 -0.3839 -0.4396  0.3436
18210TIP3    H176121   4.453   3.719  14.227  0.4754 -2.3710  0.4637
18210TIP3    H276122   4.590   3.775  14.261  0.2138 -1.5790  0.2258
18211TIP3   OH276123   6.295   1.773   2.531 -0.4242 -0.8493 -0.2452
18211TIP3    H176124   6.349   1.759   2.453  0.3861 -0.9919  0.3321
18211TIP3    H276125   6.272   1.685   2.561 -1.4587 -0.7865 -0.7993
18212TIP3   OH276126   2.271   3.148  10.794  0.0502  0.4170 -0.1363
18212TIP3    H176127   2.236   3.229  10.832 -0.6545  0.4434 -0.8424
18212TIP3    H276128   2.204   3.082  10.810  0.4598  0.0515  0.1003
18213TIP3   OH276129   6.372   3.836  16.562 -0.6237  0.4132  0.3573
18213TIP3    H176130   6.447   3.779  16.546 -1.2552 -1.1725  2.6459
18213TIP3    H276131   6.408   3.925  16.559  0.6192 -0.0809 -2.0107
18214TIP3   OH276132   3.203   6.635  14.391  0.3727  0.2617 -0.4857
18214TIP3    H176133   3.128   6.605  14.442 -0.4153 -1.2351 -2.3939
18214TIP3    H276134   3.166   6.700  14.331  1.2854  1.9962  0.7454
18215TIP3   OH276135   1.404   0.631   2.754 -0.3077 -0.3781 -0.1097
18215TIP3    H176136   1.493   0.659   2.775  0.2646 -1.2405 -1.2960
18215TIP3    H276137   1.414   0.569   2.682 -1.8434 -0.7834 -0.0173
18216TIP3   OH276138   1.244   0.961  10.604  0.0606 -0.2652  0.1891
18216TIP3    H176139   1.302   0.920  10.540 -3.0031 -0.9490 -2.4531
18216TIP3    H276140   1.163   0.909  10.599 -1.3434  1.4851  2.5109
18217TIP3   OH276141   5.968   6.428  11.301  0.3017  0.1385  0.4365
18217TIP3    H176142   5.965   6.499  11.236 -0.8300 -0.6299 -0.3812
18217TIP3    H276143   5.916   6.358  11.262  2.1867 -1.5308  0.7945
18218TIP3   OH276144   2.081   5.321   2.752  0.1248 -0.0555  0.2833
18218TIP3    H176145   1.987   5.341   2.747  0.2345  0.2694 -0.5675
18218TIP3    H276146   2.086   5.228   2.728 -0.2381 -0.8427  2.9271
18219TIP3   OH276147   2.405   1.298  14.322  0.6094  0.0294 -0.4588
18219TIP3    H176148   2.412   1.341  14.408  3.2799  2.7116 -1.8040
18219TIP3    H276149   2.317   1.318  14.292  0.8174  2.2347  0.2119
18220TIP3   OH276150   5.211   1.670   4.115  0.2859  0.0502 -0.0093
18220TIP3    H176151   5.272   1.689   4.044  1.4458 -1.5199  0.4963
18220TIP3    H276152   5.133   1.722   4.095  1.8644  2.3619 -0.5256
18221TIP3   OH276153   0.270   5.304  14.564 -0.6032  0.4672  0.5649
18221TIP3    H176154   0.240   5.393  14.583  0.7019  0.9908  0.2664
18221TIP3    H276155   0.250   5.292  14.471  0.3345  0.9149  0.2996
18222TIP3   OH276156   5.393   5.192   6.315 -0.4810  0.2162  0.3243
18222TIP3    H176157   5.458   5.260   6.336 -0.4503  0.4249 -0.4145
18222TIP3    H276158   5.370   5.209   6.224 -0.0165 -1.1524 -0.0614
18223TIP3   OH276159   1.139   5.796   2.112  0.3887 -0.3018  0.1090
18223TIP3    H176160   1.227   5.827   2.094  0.3800 -0.1798  0.2746
18223TIP3    H276161   1.082   5.866   2.082  0.3770 -0.0623  0.6849
18224TIP3   OH276162   4.906   6.317  12.404 -0.1754 -0.1649  0.4318
18224TIP3    H176163   4.950   6.295  12.322  1.2609  0.1626  1.0772
18224TIP3    H276164   4.957   6.390  12.439 -0.4915 -0.5803  1.8222
18225TIP3   OH276165   1.862   5.353  12.147 -0.2937 -0.3372  0.2579
18225TIP3    H176166   1.943   5.305  12.164  0.7782  1.5978  0.9117
18225TIP3    H276167   1.832   5.319  12.062  1.2190 -1.0476 -0.0300
18226TIP3   OH276168   2.766   2.466   2.306  0.5310 -0.3831  0.1214
18226TIP3    H176169   2.693   2.423   2.353 -0.0372 -1.3344 -1.5513
18226TIP3    H276170   2.777   2.549   2.352 -2.4588  0.3664 -0.2671
18227TIP3   OH276171   5.030   3.979  14.202 -0.1367 -1.1575 -0.5073
18227TIP3    H176172   5.100   4.023  14.154  0.7430 -0.1016  1.6236
18227TIP3    H276173   4.957   3.975  14.140  1.5127 -1.5672 -2.5219
18228TIP3   OH276174   0.910   4.068   2.459  0.6387 -0.1738  0.1668
18228TIP3    H176175   0.871   4.100   2.377  0.2214 -0.5839  0.1995
18228TIP3    H276176   0.999   4.044   2.435  0.5630 -0.1616 -0.1396
18229TIP3   OH276177   6.527   4.302   6.102 -0.0993 -0.2588 -0.0344
18229TIP3    H176178   6.536   4.260   6.187 -0.0253  0.5166  0.3553
18229TIP3    H276179   6.478   4.382   6.120 -0.1839 -0.1454 -0.7421
18230TIP3   OH276180   5.331   3.276   5.771 -0.4686 -0.2928 -0.6584
18230TIP3    H176181   5.369   3.192   5.799  2.9292  1.1200 -0.5513
18230TIP3    H276182   5.337   3.274   5.676  0.7073  0.2207 -0.6151
18231TIP3   OH276183   5.658   3.784   1.542 -0.1343  0.4427 -0.1449
18231TIP3    H176184   5.719   3.836   1.593  1.6103 -0.8657 -0.8201
18231TIP3    H276185   5.662   3.821   1.454  0.9035 -0.5793 -0.5607
18232TIP3   OH276186   0.691   4.307   1.320  0.3817  0.1330 -0.0026
18232TIP3    H176187   0.728   4.386   1.358  0.2613 -1.1953  3.1453
18232TIP3    H276188   0.760   4.241   1.327  0.3603 -0.2382 -2.2435
18233TIP3   OH276189   2.198   1.122   3.387 -0.3156  0.0620  0.2775
18233TIP3    H176190   2.185   1.206   3.344  1.8780 -0.4116 -1.5455
18233TIP3    H276191   2.279   1.132   3.437  1.1489 -1.4275 -1.6027
18234TIP3   OH276192   4.015   4.471  13.956 -0.0987  0.1322  0.5631
18234TIP3    H176193   4.011   4.434  14.044 -1.0649  0.3873  0.6367
18234TIP3    H276194   3.975   4.405  13.900  2.4988 -1.0286 -0.0729
18235TIP3   OH276195   1.562   3.734  17.085  0.2173  0.0628 -0.0111
18235TIP3    H176196   1.602   3.812  17.044 -1.2729  0.6600 -0.4020
18235TIP3    H276197   1.614   3.719  17.164  0.5357  1.4820  0.0780
18236TIP3   OH276198   0.147   1.096   5.680 -0.4926  0.1216  0.1793
18236TIP3    H176199   0.182   1.157   5.746 -0.4836 -1.0340  1.2804
18236TIP3    H276200   0.219   1.084   5.619  0.1164 -0.1134  0.9229
18237TIP3   OH276201   1.791   5.721  15.458  0.3552  0.5577  0.5295
18237TIP3    H176202   1.710   5.705  15.409  0.3418  0.8471  0.4560
18237TIP3    H276203   1.795   5.649  15.521  0.7213 -0.2247 -0.3473
18238TIP3   OH276204   2.948   1.497  15.854  0.2238  0.4156 -0.1920
18238TIP3    H176205   3.030   1.469  15.896  0.1108 -0.2601 -0.4058
18238TIP3    H276206   2.902   1.547  15.922  1.4168  1.9938 -0.4936
18239TIP3   OH276207   1.900   1.383   0.162  0.3388  1.3384  0.1750
18239TIP3    H176208   1.920   1.422   0.247  0.7031  1.6946 -0.0695
18239TIP3    H276209   1.971   1.412   0.105 -0.8016  2.5497 -0.6988
18240TIP3   OH276210   2.631   2.772  15.101  0.2921  0.1995 -0.3274
18240TIP3    H176211   2.676   2.689  15.119  0.3922  0.0667 -1.1483
18240TIP3    H276212   2.539   2.754  15.117  0.5973  0.8079  2.5863
18241TIP3   OH276213   5.428   3.264   4.192 -0.2108  0.5244 -0.0951
18241TIP3    H176214   5.408   3.349   4.231 -0.2763 -0.0444  1.1741
18241TIP3    H276215   5.350   3.211   4.208  0.3099 -0.1511  0.2884
18242TIP3   OH276216   2.545   5.260   1.503 -0.1842 -0.1167  0.3545
18242TIP3    H176217   2.486   5.271   1.429  0.5199 -1.0569 -0.3820
18242TIP3    H276218   2.578   5.348   1.522  1.1985 -0.0913 -1.8122
18243TIP3   OH276219   1.815   3.829   5.801 -0.5399  0.1959 -0.4774
18243TIP3    H176220   1.765   3.890   5.857  1.9528  0.5498  1.5622
18243TIP3    H276221   1.831   3.878   5.721 -2.2218  0.5772 -0.6156
18244TIP3   OH276222   6.626   5.840  14.774  0.1375 -0.6753  0.1323
18244TIP3    H176223   6.718   5.859  14.792  0.3358 -1.5232  0.0609
18244TIP3    H276224   6.618   5.851  14.679 -0.4639  1.9279  0.4018
18245TIP3   OH276225   2.792   4.245   3.686  0.7848  0.1401 -0.0538
18245TIP3    H176226   2.760   4.259   3.775 -1.6585  1.5525 -1.0628
18245TIP3    H276227   2.797   4.332   3.647  1.7053 -0.4472 -1.3483
18246TIP3   OH276228   6.215   4.938   1.420 -0.1351  0.9024 -0.4036
18246TIP3    H176229   6.200   4.926   1.327  0.2387  2.0290 -0.6208
18246TIP3    H276230   6.306   4.909   1.434 -1.4575 -3.6438  0.4872
18247TIP3   OH276231   1.894   2.471   4.881 -0.2572  0.1830  0.1637
18247TIP3    H176232   1.896   2.454   4.787 -0.4323  1.8920 -0.1904
18247TIP3    H276233   1.923   2.562   4.889 -1.2115  0.3875  1.6839
18248TIP3   OH276234   2.544   3.982  15.725 -0.1178 -0.3441 -0.0655
18248TIP3    H176235   2.514   4.066  15.759  3.7232  0.4050  2.1775
18248TIP3    H276236   2.605   4.004  15.656 -0.1237 -1.3813 -0.4198
18249TIP3   OH276237   4.447   3.214   2.390 -0.1832 -0.3911 -0.0134
18249TIP3    H176238   4.362   3.171   2.378 -0.2249 -0.1852 -0.4777
18249TIP3    H276239   4.432   3.304   2.359  0.7145 -0.8536 -1.9512
18250TIP3   OH276240   5.274   5.414   2.655  0.2717  0.8032  0.1358
18250TIP3    H176241   5.283   5.354   2.729  0.9788  1.1011  0.2964
18250TIP3    H276242   5.180   5.412   2.634  0.3554 -0.6861 -0.1576
18251TIP3   OH276243   0.312   0.831   5.234  0.0339  0.0986  0.3564
18251TIP3    H176244   0.401   0.864   5.245  0.4611 -1.1304  0.8643
18251TIP3    H276245   0.302   0.766   5.304 -1.3969  0.4796  0.5357
18252TIP3   OH276246   3.757   3.196  15.907  0.0990  0.4004 -0.6891
18252TIP3    H176247   3.841   3.154  15.889 -0.8862 -1.3269 -1.4541
18252TIP3    H276248   3.766   3.229  15.997  0.9216 -1.4777 -0.0311
18253TIP3   OH276249   4.850   0.282   5.721 -0.2136  0.6417  0.0071
18253TIP3    H176250   4.802   0.302   5.801 -1.1220 -0.4428 -0.2413
18253TIP3    H276251   4.865   0.188   5.724  3.4673  1.1263  0.8903
18254TIP3   OH276252   2.123   5.830  12.344 -0.3287  0.6453  0.1778
18254TIP3    H176253   2.198   5.818  12.402  1.4418 -0.9108 -2.2381
18254TIP3    H276254   2.137   5.916  12.303  0.0939  0.3975 -0.1994
18255TIP3   OH276255   3.001   3.770   2.159  0.4417 -0.0002 -0.2611
18255TIP3    H176256   2.907   3.751   2.163  0.5034 -0.1571  0.7583
18255TIP3    H276257   3.007   3.863   2.181  0.5637 -0.1153  0.1949
18256TIP3   OH276258   1.227   0.684   5.195 -0.0468 -0.5205  1.1708
18256TIP3    H176259   1.181   0.768   5.202 -2.2042 -1.1287 -2.4940
18256TIP3    H276260   1.312   0.706   5.158 -0.7032  0.1186 -0.0386
18257TIP3   OH276261   1.059   0.297   3.079  0.0940 -0.2990 -0.3240
18257TIP3    H176262   1.109   0.216   3.074  0.9715  0.2931 -1.4738
18257TIP3    H276263   1.108   0.360   3.026 -1.8123  0.3326 -1.4577
18258TIP3   OH276264   5.927   5.013   5.687 -0.2164  0.1969  0.2347
18258TIP3    H176265   5.887   5.089   5.730  0.3993  0.8992 -0.4201
18258TIP3    H276266   5.879   5.004   5.604  0.8174  0.9132 -0.4589
18259TIP3   OH276267   1.467   2.990  10.433 -0.2029 -0.1523  0.7112
18259TIP3    H176268   1.513   3.055  10.486 -0.9779  0.6696  0.4088
18259TIP3    H276269   1.404   3.042  10.382  0.5155 -0.9009 -1.0102
18260TIP3   OH276270   0.035   6.061   4.193  0.1075 -0.2613  0.5386
18260TIP3    H176271  -0.055   6.044   4.222 -0.2627  0.9868  0.1739
18260TIP3    H276272   0.049   6.000   4.120 -0.6393 -0.0782  0.2388
18261TIP3   OH276273   3.105   3.316   3.928 -0.3186  0.1052 -0.2419
18261TIP3    H176274   3.192   3.332   3.966 -0.5620  0.4712  0.1769
18261TIP3    H276275   3.047   3.373   3.978 -0.7968 -0.1162 -0.5416
18262TIP3   OH276276   4.640   0.168   0.789 -0.2722 -0.1555  0.4613
18262TIP3    H176277   4.723   0.157   0.742  0.4518 -0.3281  1.7469
18262TIP3    H276278   4.646   0.255   0.829 -0.1062 -0.7076  1.6875
18263TIP3   OH276279   3.452   4.510  15.312  0.4617  0.0809  0.5174
18263TIP3    H176280   3.455   4.583  15.250  1.5538  1.0207  1.6421
18263TIP3    H276281   3.536   4.466  15.302  0.7303  0.3573  1.4437
18264TIP3   OH276282   3.662   4.579   0.156 -0.3583  0.2865 -0.0808
18264TIP3    H176283   3.737   4.520   0.154 -1.6934 -1.5095  0.7651
18264TIP3    H276284   3.701   4.666   0.166  1.6581 -0.4233 -1.1663
18265TIP3   OH276285   1.494   0.483  14.935 -0.5011  0.1561 -0.0265
18265TIP3    H176286   1.481   0.398  14.893 -0.1022  1.2626 -2.6169
18265TIP3    H276287   1.407   0.521  14.940 -0.7576 -0.5698  1.6511
18266TIP3   OH276288   1.839   6.121  15.114  0.4826 -0.3084  0.0534
18266TIP3    H176289   1.755   6.161  15.135  1.0035  0.4979  0.7015
18266TIP3    H276290   1.827   6.028  15.133  0.4479  0.1385  2.5865
18267TIP3   OH276291   5.370   0.621   3.958 -0.2351 -0.4115 -0.3094
18267TIP3    H176292   5.397   0.707   3.990 -1.0103 -0.2272 -0.1459
18267TIP3    H276293   5.442   0.593   3.901 -0.2389  0.5945 -0.8305
18268TIP3   OH276294   2.979   4.880   4.642  0.4392 -0.4151  0.2997
18268TIP3    H176295   2.942   4.949   4.697  0.5960  0.8286 -1.0695
18268TIP3    H276296   2.961   4.799   4.689 -2.2116  0.3024  0.6930
18269TIP3   OH276297   6.570   5.974  11.230 -0.3748  0.0563  0.2710
18269TIP3    H176298   6.600   5.891  11.266 -0.5160 -0.3987 -0.6213
18269TIP3    H276299   6.647   6.031  11.231 -0.3053 -0.0429  0.9892
18270TIP3   OH276300   4.967   2.320   2.857  0.0626 -0.2931 -0.2512
18270TIP3    H176301   4.990   2.390   2.796 -0.7998 -0.8602 -1.2507
18270TIP3    H276302   5.029   2.250   2.838 -1.4767 -1.2839 -1.9895
18271TIP3   OH276303   5.516   1.351   3.998 -0.0514  0.4346 -0.1780
18271TIP3    H176304   5.565   1.433   3.999 -2.1885  1.8704  2.0525
18271TIP3    H276305   5.453   1.361   3.927 -0.3154  0.7611  0.0971
18272TIP3   OH276306   6.805   3.817  15.095 -0.9648  0.4844  0.4502
18272TIP3    H176307   6.808   3.747  15.161 -0.2337  0.4932  0.4282
18272TIP3    H276308   6.827   3.897  15.143 -1.3809  0.6423  0.3869
18273TIP3   OH276309   2.955   1.881  15.965  0.0267  0.4260 -0.1314
18273TIP3    H176310   2.980   1.855  15.876 -0.2848  0.2745 -0.1782
18273TIP3    H276311   2.870   1.924  15.953 -0.2421 -0.0224  0.1525
18274TIP3   OH276312   0.588   0.797   4.739  0.0939  0.4843  0.1533
18274TIP3    H176313   0.568   0.878   4.691 -0.3248  1.0395  1.2377
18274TIP3    H276314   0.507   0.774   4.783  0.7109  0.5118  1.3510
18275TIP3   OH276315   5.013   6.059  11.975 -0.5343 -0.3182  0.0646
18275TIP3    H176316   5.045   6.002  12.044  1.3912 -1.5862 -1.7654
18275TIP3    H276317   5.091   6.082  11.924 -1.8652  0.4890 -1.7329
18276TIP3   OH276318   5.039   5.575   1.811  0.5270 -0.1373 -0.6071
18276TIP3    H176319   5.117   5.623   1.837  0.3048 -0.6161  1.0183
18276TIP3    H276320   5.011   5.618   1.730  1.1457  1.5453  0.0239
18277TIP3   OH276321   5.512   1.299  17.041  0.0949  0.2882 -0.5253
18277TIP3    H176322   5.548   1.263  17.123 -0.2823 -2.4501 -1.4645
18277TIP3    H276323   5.551   1.386  17.035  1.6213 -0.1435  1.6268
18278TIP3   OH276324   1.633   4.886  16.920  0.5413 -0.5135 -0.1340
18278TIP3    H176325   1.546   4.888  16.958  0.4084  1.3841 -0.4634
18278TIP3    H276326   1.692   4.871  16.994  0.1821  1.7938  0.6927
18279TIP3   OH276327   0.503   1.309  11.649  0.1455  0.0481  0.1261
18279TIP3    H176328   0.547   1.337  11.569 -1.1005 -0.8581 -0.9166
18279TIP3    H276329   0.567   1.255  11.694  1.5712  2.1780  0.7736
18280TIP3   OH276330   5.882   4.428  15.233 -0.4144 -0.1447  0.7152
18280TIP3    H176331   5.824   4.503  15.236 -0.3318 -0.0992  1.1599
18280TIP3    H276332   5.967   4.462  15.260 -0.5698 -0.5766  1.7914
18281TIP3   OH276333   6.443   1.507   3.619 -0.4621  0.1929  0.2614
18281TIP3    H176334   6.427   1.487   3.526 -0.1730  1.9236 -0.1928
18281TIP3    H276335   6.506   1.440   3.647 -1.7179 -1.3055 -0.3357
18282TIP3   OH276336   5.061   5.300   4.780 -0.3228 -0.1392 -0.2960
18282TIP3    H176337   5.117   5.242   4.728 -0.7875 -0.6773 -0.1956
18282TIP3    H276338   5.072   5.386   4.740  2.1585  0.2146  0.9280
18283TIP3   OH276339   0.583   5.428   5.751  0.1076 -0.1835  0.6009
18283TIP3    H176340   0.620   5.508   5.713 -1.4660  0.2743 -0.0540
18283TIP3    H276341   0.587   5.364   5.680 -0.5741 -0.0529  0.4390
18284TIP3   OH276342   1.163   2.013  16.734  0.5792 -0.1965 -0.1514
18284TIP3    H176343   1.207   2.097  16.750 -2.1499  1.1513  0.8495
18284TIP3    H276344   1.152   2.010  16.639 -0.6588  1.4020 -0.1084
18285TIP3   OH276345   4.808   3.019  14.882  0.3071 -0.1424  0.3267
18285TIP3    H176346   4.740   2.953  14.896 -1.4745  1.6946  0.8593
18285TIP3    H276347   4.775   3.072  14.810  2.4588 -0.7201 -1.1715
18286TIP3   OH276348   6.436   4.285   3.719 -0.7070 -0.6179 -0.7475
18286TIP3    H176349   6.428   4.284   3.623  1.3696 -0.4898 -0.9712
18286TIP3    H276350   6.470   4.199   3.741  0.6544 -0.0106 -0.3640
18287TIP3   OH276351   0.836   5.885   1.701 -0.2747 -0.9226  0.3952
18287TIP3    H176352   0.770   5.870   1.633 -1.5781 -0.4793  1.5205
18287TIP3    H276353   0.811   5.968   1.742  2.2646  0.4313 -0.5517
18288TIP3   OH276354   2.602   4.751   4.693  0.8328 -0.3891 -0.1169
18288TIP3    H176355   2.595   4.702   4.611 -0.0542  0.1895 -0.3990
18288TIP3    H276356   2.520   4.801   4.698  1.2309  0.1947  0.7233
18289TIP3   OH276357   3.241   4.922  11.270  0.2998  0.5176 -0.1258
18289TIP3    H176358   3.285   5.006  11.257  1.2655  0.0014 -0.2555
18289TIP3    H276359   3.245   4.879  11.185  0.0141  0.2373 -0.0002
18290TIP3   OH276360   0.737   6.680   2.166  0.9236 -0.4062  0.3847
18290TIP3    H176361   0.684   6.633   2.100  1.3246  0.7727 -0.8228
18290TIP3    H276362   0.689   6.761   2.182  1.7152  0.1089  0.2176
18291TIP3   OH276363   1.030   3.121   2.702 -0.0230 -0.4962 -0.1327
18291TIP3    H176364   0.943   3.095   2.732 -0.0378  1.6022  1.9724
18291TIP3    H276365   1.089   3.091   2.771  0.4992  0.7796  0.0133
18292TIP3   OH276366   2.842   5.415   2.864 -0.8815 -0.2778 -0.7181
18292TIP3    H176367   2.848   5.456   2.778 -0.0627  0.3895 -0.3566
18292TIP3    H276368   2.933   5.402   2.891 -1.0936  0.7108  0.5913
18293TIP3   OH276369   5.642   2.149   3.232  0.0187  0.3747  0.5552
18293TIP3    H176370   5.660   2.243   3.235 -1.3586  0.8396 -2.3636
18293TIP3    H276371   5.573   2.135   3.297  0.5704  1.2537  1.3576
18294TIP3   OH276372   4.617   6.154  14.685 -0.4743  0.3131 -0.2031
18294TIP3    H176373   4.696   6.205  14.702 -1.2038  1.5079 -0.1994
18294TIP3    H276374   4.647   6.064  14.676  0.6591  0.4438  1.7151
18295TIP3   OH276375   5.716   1.243  11.678 -0.0318  0.0445 -0.0394
18295TIP3    H176376   5.777   1.188  11.726  0.1890  0.1857 -0.1550
18295TIP3    H276377   5.748   1.332  11.693  0.4718  0.0445 -1.0453
18296TIP3   OH276378   1.898   6.235   1.672 -1.1310 -0.4089  0.6676
18296TIP3    H176379   1.935   6.295   1.737 -1.5318  0.1823  0.3647
18296TIP3    H276380   1.833   6.288   1.626 -2.7826 -1.5565  1.5716
18297TIP3   OH276381   3.453   2.231  13.654  0.2739  0.1095  0.2383
18297TIP3    H176382   3.541   2.195  13.663  0.6913  1.2711  1.0640
18297TIP3    H276383   3.394   2.158  13.674  1.0887 -0.0969  2.0923
18298TIP3   OH276384   4.157   4.554  13.604  0.3108 -0.4843 -0.2527
18298TIP3    H176385   4.143   4.464  13.635 -0.4304 -0.7975 -1.4259
18298TIP3    H276386   4.191   4.544  13.516 -1.2005  0.3689 -0.9709
18299TIP3   OH276387   0.619   5.325  11.954 -0.7940  0.3322 -0.2310
18299TIP3    H176388   0.610   5.378  12.034 -0.2251  0.3478 -0.1695
18299TIP3    H276389   0.530   5.304  11.929 -0.9582 -0.1963  0.7572
18300TIP3   OH276390   0.868   2.608   5.229  0.5388 -0.0390 -0.0448
18300TIP3    H176391   0.881   2.699   5.258 -2.2892  0.3629  0.2513
18300TIP3    H276392   0.827   2.616   5.143  0.3649 -1.0618 -0.0666
18301TIP3   OH276393   3.652   2.113  14.845  0.5636 -0.0057  0.1573
18301TIP3    H176394   3.581   2.057  14.812  0.1876  1.3449 -1.4421
18301TIP3    H276395   3.706   2.131  14.767  1.4901  0.6873  0.9380
18302TIP3   OH276396   4.355   2.528   3.294  0.3255 -0.2868 -0.2695
18302TIP3    H176397   4.299   2.592   3.249 -1.4292 -1.2171  0.4841
18302TIP3    H276398   4.309   2.445   3.283  0.1690 -0.6808  2.6284
18303TIP3   OH276399   6.222   4.997   5.719 -0.4749 -0.1951  0.4293
18303TIP3    H176400   6.187   5.014   5.632 -1.5856  2.0312  1.2411
18303TIP3    H276401   6.150   5.019   5.778  0.0935 -2.1011  1.9255
18304TIP3   OH276402   4.862   5.956  15.684  0.1314 -0.0689  0.0188
18304TIP3    H176403   4.861   6.025  15.619  1.1596  1.3296  1.4091
18304TIP3    H276404   4.817   5.993  15.760  2.5644 -0.0380  1.5595
18305TIP3   OH276405   2.046   1.676   0.622  0.1276  0.5014  0.1000
18305TIP3    H176406   2.141   1.669   0.625  0.2762  1.3039 -1.5629
18305TIP3    H276407   2.030   1.760   0.578 -1.3554  0.4592  0.5115
18306TIP3   OH276408   2.788   1.212  14.648 -0.1456 -0.1470 -0.9060
18306TIP3    H176409   2.711   1.218  14.705  0.8829 -2.8603  1.0236
18306TIP3    H276410   2.855   1.265  14.693 -0.3914  0.9173 -1.7490
18307TIP3   OH276411   4.191   5.702  16.432  0.7217  0.5892  0.1454
18307TIP3    H176412   4.116   5.701  16.491  0.1336  0.0227 -0.5932
18307TIP3    H276413   4.179   5.781  16.379  1.4884  1.3385  1.0719
18308TIP3   OH276414   6.029   2.911   3.193  0.0852  0.0996 -0.3628
18308TIP3    H176415   6.035   2.879   3.103 -2.8863  0.8784 -0.9335
18308TIP3    H276416   6.052   3.004   3.187  3.3055 -0.5190  0.3823
18309TIP3   OH276417   6.181   2.503   1.205 -0.3419  1.0647  0.3238
18309TIP3    H176418   6.149   2.516   1.116  0.2880  2.4463  0.2778
18309TIP3    H276419   6.105   2.521   1.261 -1.6131 -2.6101  0.0877
18310TIP3   OH276420   5.772   5.868   2.454 -0.2380 -0.4464  0.4872
18310TIP3    H176421   5.856   5.846   2.494 -0.9591 -1.0873  1.7239
18310TIP3    H276422   5.790   5.946   2.401  0.7505  0.5683  2.2254
18311TIP3   OH276423   5.062   4.856  14.316  0.0084 -0.0333 -0.2048
18311TIP3    H176424   5.097   4.858  14.406 -0.6717 -0.1872  0.0716
18311TIP3    H276425   5.007   4.778  14.315  3.0655 -2.3943 -1.9268
18312TIP3   OH276426   0.522   6.040  14.117  0.4024 -0.4232 -0.2536
18312TIP3    H176427   0.451   6.098  14.091 -1.5638 -2.4144  0.3239
18312TIP3    H276428   0.508   6.025  14.211  1.6633 -0.7770 -0.0963
18313TIP3   OH276429   2.724   0.116  14.531 -0.1058  0.3750  0.2104
18313TIP3    H176430   2.775   0.067  14.596  0.7003  2.1948  1.0107
18313TIP3    H276431   2.635   0.117  14.566 -0.5477 -1.9277 -0.6751
18314TIP3   OH276432   5.645   4.916  16.199 -0.5403  0.3251  0.0701
18314TIP3    H176433   5.670   4.871  16.280  1.2279  0.7268 -0.2024
18314TIP3    H276434   5.627   4.846  16.136 -0.9628  0.0167  0.5310
18315TIP3   OH276435   6.067   0.845  11.259  0.0011  0.0547  0.0383
18315TIP3    H176436   6.042   0.785  11.188  0.8309  1.1534 -1.2541
18315TIP3    H276437   6.064   0.932  11.219  1.9874  0.5792  0.8823
18316TIP3   OH276438   3.881   6.712   1.240  0.1054  0.5587  0.1781
18316TIP3    H176439   3.853   6.757   1.160 -1.0172 -0.3759  0.0283
18316TIP3    H276440   3.911   6.627   1.210 -1.9100 -0.4677  0.8811
18317TIP3   OH276441   3.691   6.044  13.674  0.3227 -0.2497  0.0181
18317TIP3    H176442   3.703   5.983  13.747 -3.0521 -0.2407  0.7716
18317TIP3    H276443   3.600   6.031  13.647  0.2092  2.7206 -1.4310
18318TIP3   OH276444   6.268   6.160  15.050  0.6543 -0.1764 -0.2717
18318TIP3    H176445   6.189   6.125  15.010 -0.3809  1.0351  0.6026
18318TIP3    H276446   6.340   6.116  15.005 -0.4371  0.4366 -2.7892
18319TIP3   OH276447   0.990   5.245   3.022 -0.1943  0.8006 -0.0215
18319TIP3    H176448   1.025   5.208   2.941 -0.6519  0.8790 -0.2566
18319TIP3    H276449   0.922   5.305   2.993  0.0659  1.3016  0.3938
18320TIP3   OH276450   1.015   3.220   4.277 -0.1745 -0.4434  0.3191
18320TIP3    H176451   0.977   3.232   4.363 -0.4055  1.0125  0.0364
18320TIP3    H276452   0.950   3.169   4.229 -0.0002 -1.3472  1.0210
18321TIP3   OH276453   3.200   5.174   3.471  0.3361  0.0313  0.2677
18321TIP3    H176454   3.190   5.192   3.564  0.4769  0.3059  0.2281
18321TIP3    H276455   3.205   5.078   3.466  1.1841  0.0459  0.6265
18322TIP3   OH276456   4.691   3.725  16.956  0.2552  0.6068  0.0129
18322TIP3    H176457   4.646   3.781  16.893  0.7556 -0.0365 -0.9535
18322TIP3    H276458   4.728   3.655  16.902  0.4341 -0.1323  1.0742
18323TIP3   OH276459   0.725   1.708   1.656  0.1076  0.1416 -0.0628
18323TIP3    H176460   0.725   1.652   1.579 -0.6385 -0.6755  0.5189
18323TIP3    H276461   0.678   1.658   1.722 -0.3133  1.3311  0.5610
18324TIP3   OH276462   4.591   4.503  12.204  0.2480  0.0377 -0.3248
18324TIP3    H176463   4.500   4.523  12.183  0.1686  0.0504  0.0254
18324TIP3    H276464   4.628   4.471  12.121 -0.2723 -0.6825 -0.2948
18325TIP3   OH276465   4.617   3.640   0.086  0.6163 -0.7253 -1.0747
18325TIP3    H176466   4.615   3.710   0.020 -0.5686  0.0125 -0.2951
18325TIP3    H276467   4.676   3.673   0.154 -0.0008 -0.4403 -0.6713
18326TIP3   OH276468   5.740   2.646   0.146  0.1218 -0.0278  0.3399
18326TIP3    H176469   5.793   2.641   0.226  0.0695 -0.5592  0.3465
18326TIP3    H276470   5.744   2.558   0.109 -1.7212 -0.4337  0.9711
18327TIP3   OH276471   1.363   4.953  13.403  0.1424  0.2192 -0.0347
18327TIP3    H176472   1.290   4.893  13.418 -1.8120  2.8284  1.5931
18327TIP3    H276473   1.332   5.012  13.335  1.5607  0.1412 -0.7747
18328TIP3   OH276474   2.018   1.454  12.658 -0.3233  0.2303 -0.2471
18328TIP3    H176475   1.943   1.508  12.633  0.6657  0.4140 -3.1979
18328TIP3    H276476   2.090   1.517  12.670  0.0686 -0.1531 -0.5255
18329TIP3   OH276477   2.231   6.614   1.854 -0.4127 -0.2948 -0.0687
18329TIP3    H176478   2.239   6.685   1.791  0.5877 -0.1406  0.2050
18329TIP3    H276479   2.188   6.654   1.930  2.5788  0.8404  1.1886
18330TIP3   OH276480   3.185   4.168   3.892  0.4153  0.1981  0.2922
18330TIP3    H176481   3.123   4.138   3.825  1.6497 -2.4401  0.1887
18330TIP3    H276482   3.264   4.190   3.843  0.9903 -0.7844  0.7424
18331TIP3   OH276483   1.643   4.454   2.067 -0.2786  0.2128  0.6387
18331TIP3    H176484   1.652   4.524   2.002 -3.9968  1.4785  1.2296
18331TIP3    H276485   1.646   4.373   2.015  0.2558  0.9971 -0.6156
18332TIP3   OH276486   1.434   0.349   5.289 -0.1720  0.0883 -0.1750
18332TIP3    H176487   1.471   0.261   5.293 -0.0460 -0.0984 -2.9605
18332TIP3    H276488   1.502   0.401   5.245 -0.2360  1.6183  1.4465
18333TIP3   OH276489   3.345   5.613  16.979  0.5990  0.0658  0.5316
18333TIP3    H176490   3.404   5.638  17.051  0.7793 -1.2310  0.8642
18333TIP3    H276491   3.396   5.550  16.928 -0.1833 -0.3926  0.3087
18334TIP3   OH276492   4.988   1.339   4.533  0.2994 -0.0488 -0.2301
18334TIP3    H176493   4.936   1.403   4.484  0.1576 -0.7319 -0.9887
18334TIP3    H276494   5.038   1.392   4.595  1.5224  1.0006 -2.0277
18335TIP3   OH276495   5.426   3.769   1.417  0.1303 -0.0631  0.2695
18335TIP3    H176496   5.498   3.754   1.478 -0.2969 -0.4782  0.6829
18335TIP3    H276497   5.347   3.769   1.472 -0.1887  0.3565 -0.1794
18336TIP3   OH276498   6.778   2.390   0.008  0.4418  0.1078  0.7166
18336TIP3    H176499   6.809   2.322  -0.052  1.4309  0.3878  0.8923
18336TIP3    H276500   6.802   2.472  -0.033  1.2752  0.3027  1.5471
18337TIP3   OH276501   0.146   5.497   0.468  0.2963 -0.6180  0.2815
18337TIP3    H176502   0.203   5.472   0.541 -0.5717 -1.1124  0.8170
18337TIP3    H276503   0.129   5.590   0.482 -0.3698 -0.8451  1.0949
18338TIP3   OH276504   3.738   3.003   4.691  0.1537  0.2363 -0.3289
18338TIP3    H176505   3.701   2.941   4.754 -1.7672 -0.1710 -1.7590
18338TIP3    H276506   3.808   3.047   4.740 -0.6562 -0.6553  1.7938
18339TIP3   OH276507   1.619   4.893  12.060  0.7045  0.2043  0.0150
18339TIP3    H176508   1.540   4.925  12.104  0.5004 -2.6926  2.0779
18339TIP3    H276509   1.591   4.871  11.972 -0.8181 -0.7227  0.6997
18340TIP3   OH276510   4.037   6.184  11.665 -0.3168  0.6283  0.0184
18340TIP3    H176511   4.026   6.168  11.759  2.1003  2.1975  0.6621
18340TIP3    H276512   4.077   6.104  11.632  0.4127  0.6936  0.7015
18341TIP3   OH276513   1.921   0.115   2.385  0.8960  0.0079  0.1803
18341TIP3    H176514   1.926   0.097   2.479  1.0328  0.5119  0.2734
18341TIP3    H276515   1.907   0.210   2.380 -2.4720 -0.3885 -0.1932
18342TIP3   OH276516   4.126   2.563   3.620 -0.0312  0.5417  0.2508
18342TIP3    H176517   4.115   2.532   3.530  0.7230  0.2255  0.2526
18342TIP3    H276518   4.096   2.653   3.618  0.6532  0.7712 -0.4992
18343TIP3   OH276519   0.358   0.435   3.784  0.6312  0.3176  0.0050
18343TIP3    H176520   0.410   0.443   3.703 -0.9784  0.2157 -1.0906
18343TIP3    H276521   0.342   0.526   3.811  1.9374  0.3481  0.7597
18344TIP3   OH276522   2.528   5.265   5.652 -0.4874  0.2551  0.0752
18344TIP3    H176523   2.605   5.247   5.598 -1.4664  0.0925 -1.2950
18344TIP3    H276524   2.561   5.324   5.720  0.4980  1.6063 -1.4964
18345TIP3   OH276525   3.589   2.619   3.618 -0.1891 -0.1067 -0.1462
18345TIP3    H176526   3.655   2.589   3.556 -1.2944 -1.2644 -0.8056
18345TIP3    H276527   3.554   2.539   3.656 -0.6637  0.5242  0.7821
18346TIP3   OH276528   3.855   6.427  14.891  0.2810 -0.0334  0.2557
18346TIP3    H176529   3.825   6.381  14.969  1.1529 -0.4788  0.3402
18346TIP3    H276530   3.804   6.508  14.890 -0.6499 -0.5985  0.5795
18347TIP3   OH276531   1.919   2.486   0.881  0.5541  0.5887  0.3571
18347TIP3    H176532   1.959   2.496   0.967 -0.0802  1.5710  0.5573
18347TIP3    H276533   1.938   2.569   0.837 -0.5342  0.7538  0.1627
18348TIP3   OH276534   4.146   4.764   1.526  0.1320  0.1093 -0.1687
18348TIP3    H176535   4.090   4.745   1.451  0.1561 -0.3547 -0.0724
18348TIP3    H276536   4.135   4.858   1.541 -1.3178 -0.1184  0.3986
18349TIP3   OH276537   2.968   0.220   4.551  0.0379  0.1242 -0.0926
18349TIP3    H176538   3.054   0.251   4.525  0.2374  0.8709  1.3415
18349TIP3    H276539   2.969   0.224   4.647 -1.7733  0.6852 -0.0548
18350TIP3   OH276540   4.201   6.232   2.803  0.3516  0.2404 -0.0775
18350TIP3    H176541   4.135   6.174   2.766 -0.6025  1.5309 -0.4688
18350TIP3    H276542   4.164   6.259   2.887  0.7283  0.3959  0.0408
18351TIP3   OH276543   0.089   6.701   4.462 -0.3313 -0.9496  0.2387
18351TIP3    H176544   0.022   6.756   4.423  0.3287 -1.2286 -1.3350
18351TIP3    H276545   0.165   6.759   4.470 -0.7419 -0.6026  2.1108
18352TIP3   OH276546   3.503   0.106  11.558  0.0790  0.0879 -0.5395
18352TIP3    H176547   3.488   0.036  11.622  2.4507 -0.4664 -0.4957
18352TIP3    H276548   3.570   0.161  11.599  1.0777  0.1692 -2.2163
18353TIP3   OH276549   5.819   1.958  16.652  0.0672  0.0989 -0.8003
18353TIP3    H176550   5.765   1.970  16.574  0.9200 -0.5043 -1.4893
18353TIP3    H276551   5.830   1.864  16.659 -0.8088  0.0670  0.6239
18354TIP3   OH276552   0.079   5.273  12.645 -0.0781  0.5040  0.0364
18354TIP3    H176553   0.014   5.299  12.580  0.6474 -0.0236 -0.9404
18354TIP3    H276554   0.062   5.330  12.720 -1.2584  0.7933 -0.4239
18355TIP3   OH276555   1.298   0.182   4.362 -0.2333  0.4104  0.5973
18355TIP3    H176556   1.380   0.221   4.330  0.8039 -1.3659  0.9705
18355TIP3    H276557   1.285   0.106   4.306 -3.0756  2.0416 -1.1716
18356TIP3   OH276558   4.036   1.195   4.565 -0.4892  0.0890 -0.2525
18356TIP3    H176559   3.961   1.189   4.624  0.4003 -0.0041  0.8995
18356TIP3    H276560   4.083   1.112   4.577  0.0497  0.3370 -0.6021
18357TIP3   OH276561   2.893   3.984   3.361 -0.6579  0.1477  0.1909
18357TIP3    H176562   2.816   3.998   3.307 -1.6463 -0.1815  1.4518
18357TIP3    H276563   2.878   3.897   3.400  1.1237 -0.6394 -0.7616
18358TIP3   OH276564   4.101   1.859  17.085 -0.0843  0.3554 -0.1881
18358TIP3    H176565   4.110   1.801  17.009 -0.9949  1.7107 -1.4057
18358TIP3    H276566   4.113   1.802  17.161  2.1640 -0.8174 -1.3324
18359TIP3   OH276567   6.453   4.715  15.492 -0.3131 -0.0209  0.0848
18359TIP3    H176568   6.390   4.729  15.422 -1.4974 -2.6383  0.4970
18359TIP3    H276569   6.446   4.621  15.512  1.0552  0.3308  2.6706
18360TIP3   OH276570   5.307   2.347   4.132  0.9183  0.7769  0.2668
18360TIP3    H176571   5.258   2.400   4.194 -0.9112 -0.0700 -0.4084
18360TIP3    H276572   5.398   2.351   4.164  0.4382  2.3660  1.5466
18361TIP3   OH276573   0.232   2.330  13.599 -1.1337  0.6938 -0.1276
18361TIP3    H176574   0.163   2.396  13.592 -0.6402  1.1666 -0.7368
18361TIP3    H276575   0.239   2.292  13.511  0.8207  2.1855 -0.7054
18362TIP3   OH276576   2.810   5.643   3.450 -0.1772 -0.5786 -0.4752
18362TIP3    H176577   2.880   5.603   3.398 -0.4427  0.0297 -1.3234
18362TIP3    H276578   2.730   5.628   3.399 -0.4402  0.0357 -0.2544
18363TIP3   OH276579   2.321   1.176  10.398 -0.6214  0.0075 -0.0580
18363TIP3    H176580   2.391   1.218  10.347 -1.6964 -1.1839 -2.6534
18363TIP3    H276581   2.352   1.087  10.412  0.0731  0.5322  2.3682
18364TIP3   OH276582   5.203   4.038  15.689 -0.5453 -0.0418  0.1918
18364TIP3    H176583   5.108   4.031  15.680 -0.5484  1.5594 -1.5635
18364TIP3    H276584   5.225   4.122  15.649  1.3255  1.0318  3.1778
18365TIP3   OH276585   1.786   4.728  15.966  0.6365  0.3838 -0.0219
18365TIP3    H176586   1.823   4.769  16.044  1.0996 -1.7063  0.9131
18365TIP3    H276587   1.853   4.739  15.898  0.5098  1.6196  0.0283
18366TIP3   OH276588   5.651   0.489  14.981  0.0896  0.1838  0.1560
18366TIP3    H176589   5.687   0.460  14.897  0.6973  0.1738  0.4159
18366TIP3    H276590   5.610   0.410  15.017  0.9263 -0.1231  0.4377
18367TIP3   OH276591   2.232   4.988  15.400 -0.2038  0.2810 -0.3192
18367TIP3    H176592   2.256   5.009  15.310  1.4150 -1.0449 -0.2494
18367TIP3    H276593   2.251   4.895  15.409  1.0826  0.6677  1.7979
18368TIP3   OH276594   1.071   4.062  12.022  0.0145 -0.1784 -0.1557
18368TIP3    H176595   0.989   4.021  12.048  0.3667 -1.1569 -0.5325
18368TIP3    H276596   1.138   4.013  12.070  0.3273  1.2716  0.9477
18369TIP3   OH276597   3.503   5.123   5.331 -0.0668  0.3472  0.1226
18369TIP3    H176598   3.518   5.080   5.247  1.5432 -0.5921  0.8584
18369TIP3    H276599   3.452   5.201   5.309 -1.1970 -0.7880 -1.5022
18370TIP3   OH276600   2.689   5.511   6.226  0.0640 -0.3636  0.2809
18370TIP3    H176601   2.709   5.420   6.251  2.7065  0.0674  0.0395
18370TIP3    H276602   2.712   5.516   6.134 -0.0403  0.5526  0.2991
18371TIP3   OH276603   4.810   1.278   0.832  0.3178  0.3589 -0.5944
18371TIP3    H176604   4.820   1.373   0.821 -1.1908  0.5698 -0.3746
18371TIP3    H276605   4.798   1.266   0.926  2.7286 -0.3247 -0.3165
18372TIP3   OH276606   4.126   4.834  11.691 -0.3397  0.4661  0.0982
18372TIP3    H176607   4.172   4.911  11.724 -0.3185  0.2135  0.6702
18372TIP3    H276608   4.169   4.814  11.608  0.2777  0.5126  0.3995
18373TIP3   OH276609   2.113   0.952   0.045 -0.1490  0.7393  0.5908
18373TIP3    H176610   2.080   0.867   0.016  1.4428  0.7768 -1.6176
18373TIP3    H276611   2.206   0.951   0.020  0.1239  2.7729  1.3456
18374TIP3   OH276612   5.052   2.114   5.383  0.0566 -0.3124 -0.2568
18374TIP3    H176613   5.111   2.073   5.446  1.3247  1.0832 -0.4770
18374TIP3    H276614   5.103   2.186   5.346 -1.5535  0.5037 -0.9868
18375TIP3   OH276615   4.253   2.259  12.991  0.0591  0.0940 -0.2215
18375TIP3    H176616   4.284   2.191  13.051  0.0940  0.3734  0.0797
18375TIP3    H276617   4.270   2.341  13.037  0.6638  0.3455 -0.8869
18376TIP3   OH276618   5.038   1.403   1.411 -0.1610 -0.2397 -0.1748
18376TIP3    H176619   5.101   1.441   1.350 -2.0544  1.5022 -1.1449
18376TIP3    H276620   5.060   1.310   1.414  0.7328 -0.1652 -2.6125
18377TIP3   OH276621   3.962   4.346   4.493 -0.4413  0.1811 -0.7557
18377TIP3    H176622   3.889   4.407   4.501 -0.7921  0.0221 -2.3576
18377TIP3    H276623   3.921   4.261   4.474  0.1340  0.2630 -2.5769
18378TIP3   OH276624   1.198   2.017   1.677  0.2302  0.0436  0.0460
18378TIP3    H176625   1.122   2.058   1.636  0.5436 -0.4738 -1.0951
18378TIP3    H276626   1.243   1.972   1.605  1.8792  0.7369  0.5883
18379TIP3   OH276627   1.660   0.672   1.524 -0.1035 -0.1989  0.1650
18379TIP3    H176628   1.603   0.652   1.450 -0.2625 -2.3516  0.7844
18379TIP3    H276629   1.747   0.642   1.496  0.0910  0.1514  0.3837
18380TIP3   OH276630   3.260   0.677   5.407 -0.1555 -0.0768  0.3099
18380TIP3    H176631   3.178   0.724   5.423  0.1147 -0.1361  2.0790
18380TIP3    H276632   3.325   0.746   5.391 -0.5128 -0.0295 -1.0706
18381TIP3   OH276633   1.560   3.512   5.561  0.0366  0.7132 -0.5829
18381TIP3    H176634   1.574   3.516   5.655 -0.6052 -0.9218 -0.3888
18381TIP3    H276635   1.465   3.518   5.550  0.0851  0.6013 -1.0966
18382TIP3   OH276636   1.908   4.965   6.483  0.3214 -0.2389  0.0405
18382TIP3    H176637   1.815   4.947   6.499  0.1347  1.9801  2.0053
18382TIP3    H276638   1.910   4.999   6.393 -1.2140  1.8291  0.6990
18383TIP3   OH276639   2.025   6.115  13.880 -0.8703 -0.1815  0.2304
18383TIP3    H176640   1.971   6.178  13.927  0.0509 -1.0742  2.6287
18383TIP3    H276641   2.004   6.031  13.921  1.1744 -0.7649  0.1939
18384TIP3   OH276642   0.330   0.775   4.772 -0.7072  0.2299  0.1501
18384TIP3    H176643   0.334   0.866   4.801  0.1880 -0.0861  1.0516
18384TIP3    H276644   0.319   0.724   4.852  1.7029 -0.6505  0.0153
18385TIP3   OH276645   6.751   0.004  16.176 -0.0301 -0.1227  0.7118
18385TIP3    H176646   6.727  -0.079  16.135 -0.9812  0.8199 -0.7480
18385TIP3    H276647   6.812   0.045  16.114  1.0994 -0.0838  1.8204
18386TIP3   OH276648   6.593   2.126   5.782  0.3728  0.2343  0.6223
18386TIP3    H176649   6.547   2.063   5.726  0.4905  0.0832  0.6946
18386TIP3    H276650   6.546   2.208   5.769 -0.2603 -0.0372  1.1085
18387TIP3   OH276651   4.270   5.053  15.113 -0.3921  0.2601 -0.9486
18387TIP3    H176652   4.253   4.971  15.161  0.6378  0.8802  0.5447
18387TIP3    H276653   4.197   5.110  15.136 -0.2302  0.3358 -0.6150
18388TIP3   OH276654   5.217   4.096   4.116  0.4893  0.5595  0.3449
18388TIP3    H176655   5.195   4.149   4.039  0.5315 -0.1512 -0.1717
18388TIP3    H276656   5.171   4.139   4.189 -0.4714  0.6077 -0.2634
18389TIP3   OH276657   2.355   1.307   0.498 -0.0666  0.3128 -0.3773
18389TIP3    H176658   2.414   1.350   0.560 -1.2664  1.0860  0.2735
18389TIP3    H276659   2.406   1.296   0.418  1.0721  0.5788  0.2970
18390TIP3   OH276660   3.373   4.423  15.716 -0.3090 -0.2135  0.0216
18390TIP3    H176661   3.368   4.364  15.640  0.4831  0.1141 -0.2974
18390TIP3    H276662   3.377   4.511  15.677  1.9354 -0.1060  0.3268
18391TIP3   OH276663   0.564   0.029   3.219 -0.1980 -0.5862  0.4209
18391TIP3    H176664   0.479   0.014   3.178 -0.3390  0.3537  0.3521
18391TIP3    H276665   0.586  -0.055   3.259  0.1132 -1.6539 -1.8578
18392TIP3   OH276666   5.536   5.532  13.512  0.3390 -0.6031 -0.1696
18392TIP3    H176667   5.492   5.592  13.452 -0.0057 -0.1891  0.4872
18392TIP3    H276668   5.592   5.588  13.565 -0.0913 -0.8356  0.5431
18393TIP3   OH276669   0.433   4.680  12.464 -0.2488  0.6566  1.0516
18393TIP3    H176670   0.408   4.765  12.428  0.9047  0.9585  0.9288
18393TIP3    H276671   0.469   4.699  12.550  0.5426  0.3698  0.7947
18394TIP3   OH276672   4.291   5.097  11.558  0.6947 -0.0481 -0.0562
18394TIP3    H176673   4.235   5.140  11.623  2.5023  0.9559  0.8984
18394TIP3    H276674   4.243   5.107  11.475  0.6172  3.1150  0.2627
18395TIP3   OH276675   0.834   0.902   2.870  0.3659  0.2741  0.5558
18395TIP3    H176676   0.875   0.851   2.800 -1.9018  0.4289 -1.0038
18395TIP3    H276677   0.884   0.881   2.948  2.2215 -0.8955 -0.8707
18396TIP3   OH276678   2.307   4.242   5.038 -0.3108  0.0902  0.0365
18396TIP3    H176679   2.376   4.188   5.076 -0.2781  0.4734  0.5318
18396TIP3    H276680   2.344   4.331   5.038 -0.0120 -0.0076 -1.5983
18397TIP3   OH276681   5.447   2.327   4.710  0.0178  0.4638  0.1666
18397TIP3    H176682   5.504   2.363   4.643  0.7209 -0.4534  0.2479
18397TIP3    H276683   5.464   2.380   4.788  2.6936 -1.3074  0.9180
18398TIP3   OH276684   0.102   5.601   4.448 -0.7920 -0.1801  0.1938
18398TIP3    H176685   0.099   5.548   4.368 -0.5022 -0.6338  0.4799
18398TIP3    H276686   0.148   5.680   4.422  0.3742 -0.8366  0.1948
18399TIP3   OH276687   0.583   4.302   3.037  0.0581 -0.0641  0.1035
18399TIP3    H176688   0.551   4.372   2.981 -0.0365 -0.0447  0.1816
18399TIP3    H276689   0.661   4.269   2.992 -1.1985 -1.4675 -1.1404
18400TIP3   OH276690   2.787   2.921   6.429 -0.1182 -0.3422 -0.2940
18400TIP3    H176691   2.753   2.842   6.473 -2.7943 -1.0519 -3.2381
18400TIP3    H276692   2.712   2.980   6.426  0.6000  0.5457 -1.8850
18401TIP3   OH276693   5.790   6.757  11.316 -0.3310 -0.0628 -0.7278
18401TIP3    H176694   5.753   6.792  11.397  0.6568 -0.5347 -0.0414
18401TIP3    H276695   5.723   6.773  11.250 -1.0718  0.5336  0.1339
18402TIP3   OH276696   5.644   1.018  14.383  0.0802  0.2853  0.0711
18402TIP3    H176697   5.589   1.001  14.306 -0.5534  0.1040  0.5549
18402TIP3    H276698   5.628   0.943  14.441  1.5179 -0.2196 -0.1519
18403TIP3   OH276699   2.435   1.525   5.409 -0.3477 -0.3053  0.2574
18403TIP3    H176700   2.366   1.461   5.421 -0.2571 -0.3793  0.3841
18403TIP3    H276701   2.498   1.482   5.351  0.8252 -1.2048  2.1166
18404TIP3   OH276702   2.006   3.297   4.966 -0.2362  0.6364  0.2270
18404TIP3    H176703   2.006   3.267   5.057  0.9489 -1.0645 -0.2614
18404TIP3    H276704   2.011   3.392   4.972 -0.3842  0.5761  1.9351
18405TIP3   OH276705   6.275   5.064  15.471 -0.0975  0.2043  0.1184
18405TIP3    H176706   6.307   5.004  15.538  0.2289  2.1685  1.8334
18405TIP3    H276707   6.234   5.008  15.405  2.0244 -2.0093  0.5671
18406TIP3   OH276708   5.046   5.126  14.125 -0.4470  0.0234 -0.1405
18406TIP3    H176709   5.027   5.040  14.160 -0.6204 -0.8388 -2.2291
18406TIP3    H276710   5.005   5.128  14.039  0.2799  1.8770 -0.5122
18407TIP3   OH276711   5.986   6.558  14.979 -0.2024 -0.1077  0.2765
18407TIP3    H176712   5.980   6.505  15.059 -0.9214 -0.1172  0.2215
18407TIP3    H276713   6.026   6.640  15.008 -0.8066  0.0352  0.7242
18408TIP3   OH276714   1.126   2.379   5.280  0.4876  0.8610  0.4206
18408TIP3    H176715   1.204   2.326   5.265 -0.7027 -0.5611 -1.0729
18408TIP3    H276716   1.077   2.332   5.347  0.1253  0.8141  0.1314
18409TIP3   OH276717   3.257   4.115   5.507  0.3830  0.2235 -0.5158
18409TIP3    H176718   3.350   4.094   5.500 -0.1434 -3.0300  0.4560
18409TIP3    H276719   3.246   4.149   5.595  0.7978  1.8272 -1.0591
18410TIP3   OH276720   1.923   6.609   3.345  0.7163  0.4682 -0.8188
18410TIP3    H176721   2.011   6.585   3.372  0.2838 -1.0189 -0.6271
18410TIP3    H276722   1.922   6.596   3.250  0.3369 -0.9117 -0.6561
18411TIP3   OH276723   2.829   1.130   6.114  0.7285  0.3778 -0.0832
18411TIP3    H176724   2.757   1.069   6.120  1.6065 -0.6392  0.5902
18411TIP3    H276725   2.794   1.213   6.147 -0.3026  0.0834 -0.4321
18412TIP3   OH276726   2.036   3.968   4.389  0.1888  0.5736  0.0511
18412TIP3    H176727   2.059   3.956   4.481 -1.8202 -0.5291  0.4719
18412TIP3    H276728   1.942   3.985   4.390  0.5998  3.8596 -1.5929
18413TIP3   OH276729   4.836   1.795   5.792  0.3998 -0.0493  0.0990
18413TIP3    H176730   4.889   1.874   5.805 -0.8085  1.0993 -1.5790
18413TIP3    H276731   4.821   1.791   5.698  0.9289 -2.6765  0.0624
18414TIP3   OH276732   1.797   2.948  10.410  1.2414 -0.4240  0.1820
18414TIP3    H176733   1.867   2.954  10.475  0.4847 -1.5226  1.1619
18414TIP3    H276734   1.734   3.014  10.437  1.9352  0.6624 -0.7830
18415TIP3   OH276735   0.767   5.666   1.910 -0.0213  0.5289 -0.0970
18415TIP3    H176736   0.674   5.671   1.890  0.3632  2.4867 -1.8041
18415TIP3    H276737   0.800   5.595   1.855 -0.5853 -0.7152  1.1125
18416TIP3   OH276738   6.622   1.296  16.063 -0.2941  0.1072  0.1890
18416TIP3    H176739   6.667   1.307  16.146 -1.5831  1.3759  0.7589
18416TIP3    H276740   6.608   1.201  16.056 -1.3779  0.0608  2.1244
18417TIP3   OH276741   0.749   5.288  11.359  0.0316 -0.0204  0.2385
18417TIP3    H176742   0.724   5.299  11.450 -0.9833 -0.0672 -0.0183
18417TIP3    H276743   0.737   5.195  11.342  0.3523 -0.0369  0.0907
18418TIP3   OH276744   6.792   4.048   3.751  0.3995 -0.6036  0.4785
18418TIP3    H176745   6.760   4.039   3.840 -3.7009 -2.0842 -0.9180
18418TIP3    H276746   6.763   4.135   3.723  0.4475 -0.6824  0.1698
18419TIP3   OH276747   6.113   6.766  12.818 -0.4625  0.0422  0.4914
18419TIP3    H176748   6.047   6.696  12.812 -0.5230  0.0895  0.5994
18419TIP3    H276749   6.169   6.753  12.742 -0.1532 -0.4523  0.7966
18420TIP3   OH276750   0.451   5.031  10.907 -0.1983 -0.6340  0.0966
18420TIP3    H176751   0.522   5.001  10.964 -0.7628 -0.4574  0.9070
18420TIP3    H276752   0.378   4.972  10.926 -0.9360  0.4836  0.8289
18421TIP3   OH276753   0.750   6.550   4.126  0.8814  0.1631 -0.0865
18421TIP3    H176754   0.759   6.530   4.220  0.9914  0.1408 -0.1019
18421TIP3    H276755   0.688   6.623   4.123  2.9147  1.9949  0.1855
18422TIP3   OH276756   5.125   3.869   0.841 -0.0926 -0.1124  0.3667
18422TIP3    H176757   5.216   3.874   0.870 -0.3454  0.4770  1.0946
18422TIP3    H276758   5.129   3.819   0.760  0.7179 -1.1962  1.0461
18423TIP3   OH276759   0.280   1.656  16.958 -0.2375 -0.7580  0.4378
18423TIP3    H176760   0.336   1.639  16.882 -0.7998  0.3771 -0.2666
18423TIP3    H276761   0.191   1.660  16.921 -0.3263  1.8813  0.7508
18424TIP3   OH276762   5.045   6.452   5.068 -0.1284 -0.0004 -0.2825
18424TIP3    H176763   5.026   6.442   4.975 -1.3694 -0.3303 -0.0112
18424TIP3    H276764   5.126   6.503   5.071  0.0098 -0.1183 -1.5368
18425TIP3   OH276765   2.484   5.581  13.861  0.1529 -0.2686  0.2404
18425TIP3    H176766   2.568   5.597  13.818  0.5788  1.2659  1.5567
18425TIP3    H276767   2.504   5.514  13.926 -0.3335 -2.0477 -1.3399
18426TIP3   OH276768   4.217   3.495   1.589 -0.0977 -0.3512 -0.1542
18426TIP3    H176769   4.299   3.541   1.610  1.2086 -1.9954 -1.4023
18426TIP3    H276770   4.182   3.542   1.513  0.0852 -0.1054 -0.0891
18427TIP3   OH276771   3.323   2.174   3.769  0.2453  0.1252 -0.3972
18427TIP3    H176772   3.302   2.082   3.753  0.3996  0.1474 -0.7290
18427TIP3    H276773   3.266   2.199   3.842  1.0863 -0.5757  0.5308
18428TIP3   OH276774   1.395   5.978   2.588  0.0065 -0.3480  0.5538
18428TIP3    H176775   1.433   5.936   2.664  2.2550 -0.9406 -0.7919
18428TIP3    H276776   1.343   5.910   2.546 -1.5226  0.0758  1.6712
18429TIP3   OH276777   6.146   0.263  16.609 -0.4590  0.0545  0.0109
18429TIP3    H176778   6.240   0.258  16.630 -0.2879  1.0883 -0.4756
18429TIP3    H276779   6.106   0.195  16.664  0.4325  0.3103  1.0195
18430TIP3   OH276780   4.764   0.187   3.027 -0.6771  0.0917  0.2553
18430TIP3    H176781   4.687   0.200   2.971 -1.1321 -0.3431  0.7554
18430TIP3    H276782   4.839   0.198   2.969 -1.1316 -0.0091 -0.3612
18431TIP3   OH276783   3.322   2.194  15.523 -0.1520  0.4611 -0.1894
18431TIP3    H176784   3.406   2.203  15.568  1.2204  0.8248 -2.6267
18431TIP3    H276785   3.297   2.284  15.501 -2.0485  0.5150  1.8218
18432TIP3   OH276786   0.406   0.662  14.334  0.3668 -0.6607  0.5021
18432TIP3    H176787   0.369   0.677  14.421  0.7343 -0.5014  0.6306
18432TIP3    H276788   0.479   0.723  14.328  0.2061 -0.5155 -0.0040
18433TIP3   OH276789   3.137   6.456   5.219  0.4352 -0.2947 -0.2253
18433TIP3    H176790   3.186   6.451   5.301 -1.0882  1.2097  0.8561
18433TIP3    H276791   3.130   6.549   5.200  1.6707 -0.6166 -2.7233
18434TIP3   OH276792   1.165   0.959   5.234  0.2152  0.1373  1.1375
18434TIP3    H176793   1.102   0.963   5.162  0.8532 -2.0188  0.3746
18434TIP3    H276794   1.229   1.028   5.214  0.6106 -0.6804 -0.6468
18435TIP3   OH276795   5.776   0.893  16.902  0.3898 -0.0336  0.0411
18435TIP3    H176796   5.809   0.907  16.991  1.3498  0.8502 -0.4348
18435TIP3    H276797   5.779   0.798  16.891  2.7812 -0.0209  0.0590
18436TIP3   OH276798   6.157   1.335   0.858  0.2386  0.5908  0.7137
18436TIP3    H176799   6.080   1.379   0.894 -0.2119 -0.2002  0.7469
18436TIP3    H276800   6.191   1.283   0.932 -0.6320 -0.9648  0.0668
18437TIP3   OH276801   1.138   1.713  12.613  0.1624 -0.6386  0.2877
18437TIP3    H176802   1.133   1.621  12.641  0.3954 -0.5392  0.6598
18437TIP3    H276803   1.171   1.759  12.689 -1.5814  0.0290  0.6814
18438TIP3   OH276804   0.708   3.028   1.985  0.1133 -0.2337  0.5019
18438TIP3    H176805   0.632   2.983   1.947  0.1073 -0.1484  0.4114
18438TIP3    H276806   0.750   2.962   2.039  0.7488 -0.7021 -0.5245
18439TIP3   OH276807   2.976   0.895   0.119 -0.3865 -0.3091 -0.0901
18439TIP3    H176808   2.961   0.834   0.047  1.0887 -0.4775 -0.2730
18439TIP3    H276809   3.030   0.847   0.181 -1.2367 -0.0003  0.9223
18440TIP3   OH276810   4.143   4.066   1.685  0.4511  0.1339 -0.6506
18440TIP3    H176811   4.237   4.064   1.701  0.7952 -0.8012 -2.4808
18440TIP3    H276812   4.115   3.975   1.694 -0.2265  0.3537 -0.4399
18441TIP3   OH276813   5.980   0.175  11.851 -0.4726  0.1014  0.1718
18441TIP3    H176814   5.940   0.223  11.924 -1.1783  0.5156 -0.4785
18441TIP3    H276815   5.922   0.100  11.837  0.4608 -0.7999  0.9829
18442TIP3   OH276816   4.824   4.109   0.937  1.2138 -0.3749 -0.0791
18442TIP3    H176817   4.729   4.123   0.929  1.1509 -0.5250  0.3544
18442TIP3    H276818   4.860   4.140   0.854  0.7175 -0.9021 -0.5036
18443TIP3   OH276819   2.550   5.347   2.506  0.2710 -0.9769 -0.2384
18443TIP3    H176820   2.456   5.347   2.522  0.2705 -1.9247 -0.1780
18443TIP3    H276821   2.560   5.304   2.421  0.5567  0.4891 -0.9863
18444TIP3   OH276822   0.262   0.440   6.448  0.0334  0.1809 -0.0963
18444TIP3    H176823   0.277   0.369   6.510  1.9021 -0.3897 -1.1186
18444TIP3    H276824   0.317   0.511   6.479 -0.4047  0.5299 -0.1092
18445TIP3   OH276825   1.061   2.364   2.734  0.6148 -0.0673 -0.0072
18445TIP3    H176826   1.053   2.334   2.644  1.4699 -0.4358  0.0371
18445TIP3    H276827   1.081   2.457   2.727 -2.6998  0.7584 -0.1390
18446TIP3   OH276828   6.182   2.698  11.388  0.0492 -0.1672 -0.7585
18446TIP3    H176829   6.276   2.691  11.373  0.3761  2.0509 -0.2096
18446TIP3    H276830   6.144   2.699  11.301  0.7535  0.8131 -1.0768
18447TIP3   OH276831   6.397   4.983  13.997 -0.2271 -0.2163  0.3434
18447TIP3    H176832   6.468   4.949  14.051 -0.0326  1.5124  1.2324
18447TIP3    H276833   6.439   5.007  13.914 -0.4283 -2.3523 -0.4365
18448TIP3   OH276834   2.264   1.125   0.204  0.4275  0.0051 -0.4696
18448TIP3    H176835   2.190   1.068   0.185  1.3510 -1.7506  0.9197
18448TIP3    H276836   2.244   1.207   0.158 -1.4638 -1.0428 -1.6304
18449TIP3   OH276837   3.050   1.823  14.902 -0.1108  0.2565  0.2541
18449TIP3    H176838   2.990   1.896  14.919  0.2493  0.0852  2.5626
18449TIP3    H276839   3.123   1.838  14.962 -0.4260 -2.4587  1.4479
18450TIP3   OH276840   3.254   2.337  11.124 -0.5104  0.0422 -0.1567
18450TIP3    H176841   3.300   2.260  11.090  2.1600  1.5371 -0.2655
18450TIP3    H276842   3.214   2.379  11.048 -0.1362 -0.1107 -0.4376
18451TIP3   OH276843   5.673   4.975   0.731 -0.9473 -0.4844  0.2959
18451TIP3    H176844   5.733   4.938   0.666 -0.6395  0.9915 -0.3079
18451TIP3    H276845   5.626   4.899   0.766 -1.2351 -1.3395 -1.7522
18452TIP3   OH276846   3.770   1.667  14.757  0.2536  0.3285 -0.2330
18452TIP3    H176847   3.704   1.604  14.728  1.6058 -0.6441 -1.3688
18452TIP3    H276848   3.720   1.740  14.791 -1.4023 -1.5794  1.7290
18453TIP3   OH276849   2.035   6.524   6.604  0.3217  0.0333  0.0654
18453TIP3    H176850   2.004   6.469   6.676  1.9272 -3.2770 -1.5378
18453TIP3    H276851   1.955   6.562   6.567 -0.7234  0.0001  2.1504
18454TIP3   OH276852   3.638   2.380  14.253  0.3511 -0.0594 -0.5084
18454TIP3    H176853   3.629   2.296  14.297 -0.4129  0.1449 -0.2612
18454TIP3    H276854   3.551   2.398  14.216  0.4441  0.7093 -0.3859
18455TIP3   OH276855   3.769   2.966  13.739  0.2751  0.1056  0.0633
18455TIP3    H176856   3.796   2.970  13.831 -0.4177 -0.5000  0.2973
18455TIP3    H276857   3.676   2.988  13.741 -0.1132 -1.4296 -0.3145
18456TIP3   OH276858   3.630   2.511   2.836 -0.0318 -0.0865 -0.0300
18456TIP3    H176859   3.594   2.497   2.924  0.2374  1.5538  0.3678
18456TIP3    H276860   3.578   2.583   2.800  0.6946  0.1021 -0.7206
18457TIP3   OH276861   2.716   0.213   2.398 -0.3190  0.0347 -0.4129
18457TIP3    H176862   2.747   0.195   2.487 -0.4659  1.8425  0.0463
18457TIP3    H276863   2.794   0.241   2.351  0.0402 -2.2714 -1.3036
18458TIP3   OH276864   1.400   1.124   1.395 -0.3251 -0.6493 -0.4246
18458TIP3    H176865   1.448   1.126   1.312 -0.3365  0.8569 -0.4267
18458TIP3    H276866   1.374   1.215   1.409  0.1498 -0.7828  1.5155
18459TIP3   OH276867   5.305   5.085  14.326  0.3064 -0.0913 -0.2165
18459TIP3    H176868   5.281   5.165  14.280  1.4576  0.0518 -0.6017
18459TIP3    H276869   5.361   5.037  14.265  2.1018  0.2273  1.0651
18460TIP3   OH276870   5.861   6.650   5.928  0.0621  0.5409 -0.0281
18460TIP3    H176871   5.889   6.741   5.920  0.0342  0.7598  1.8725
18460TIP3    H276872   5.839   6.640   6.020 -1.5140 -0.9514 -0.5040
18461TIP3   OH276873   5.225   4.215  13.034  0.9536  0.4244 -0.2926
18461TIP3    H176874   5.185   4.137  12.994 -0.0211  0.5956  0.3142
18461TIP3    H276875   5.311   4.222  12.992  1.5486 -1.6224  0.4433
18462TIP3   OH276876   2.196   0.956   6.334  0.3165 -0.7018 -0.1329
18462TIP3    H176877   2.203   0.860   6.336  0.0039 -0.7071  1.7340
18462TIP3    H276878   2.141   0.978   6.409  1.0847  1.0002 -0.0298
18463TIP3   OH276879   4.428   5.654   0.774  0.2070  0.2999  0.2342
18463TIP3    H176880   4.394   5.625   0.689 -1.5348 -1.5563  1.4566
18463TIP3    H276881   4.396   5.744   0.783  0.3871  0.5040 -1.0607
18464TIP3   OH276882   5.766   3.806   4.391  0.3484 -0.0052  0.1763
18464TIP3    H176883   5.747   3.893   4.427  0.1617  0.4538 -0.9978
18464TIP3    H276884   5.791   3.822   4.300  0.1213 -1.1962 -0.1171
18465TIP3   OH276885   3.374   2.823  16.688 -0.2550  0.3990 -0.4149
18465TIP3    H176886   3.337   2.896  16.638 -2.2879 -0.9160 -0.9991
18465TIP3    H276887   3.467   2.842  16.695 -0.1250  1.3668 -3.5035
18466TIP3   OH276888   1.540   5.478  12.011 -0.7208  0.1249 -0.4542
18466TIP3    H176889   1.618   5.438  11.973  0.3165  0.5552  1.1062
18466TIP3    H276890   1.550   5.571  11.993  0.3450  0.4900  1.6550
18467TIP3   OH276891   4.183   0.241  16.181 -0.6537 -0.3993  0.0218
18467TIP3    H176892   4.094   0.252  16.214  0.2676 -0.5117  2.8360
18467TIP3    H276893   4.175   0.176  16.111 -2.6531 -1.2560  0.9652
18468TIP3   OH276894   2.566   5.651  12.108 -0.2834  0.3719 -0.2227
18468TIP3    H176895   2.523   5.616  12.030  0.7376  0.3924 -0.8142
18468TIP3    H276896   2.570   5.577  12.169 -1.2863  0.4145 -0.0896
18469TIP3   OH276897   1.692   1.758   4.629  0.5392  0.3390 -0.3820
18469TIP3    H176898   1.785   1.779   4.631  0.6723 -0.2489  0.1563
18469TIP3    H276899   1.688   1.666   4.658 -0.2542  0.5733  0.2899
18470TIP3   OH276900   3.163   5.495   1.914  0.0031 -0.2737  0.0547
18470TIP3    H176901   3.249   5.533   1.933 -0.3669  0.6509 -0.0762
18470TIP3    H276902   3.118   5.563   1.864 -1.3118 -0.1777  1.3102
18471TIP3   OH276903   4.014   2.785  13.618  0.4438  1.1017 -0.0676
18471TIP3    H176904   3.942   2.841  13.591  0.7828  0.8891 -1.4888
18471TIP3    H276905   4.024   2.722  13.547  1.1416  0.2757  0.7382
18472TIP3   OH276906   1.393   6.300   0.592  0.5471 -0.2287 -0.4459
18472TIP3    H176907   1.308   6.339   0.612  0.8283 -0.1228  0.6107
18472TIP3    H276908   1.449   6.326   0.665  0.3787 -3.8136  1.1386
18473TIP3   OH276909   0.785   1.546   3.554  0.2657  0.3355 -0.3110
18473TIP3    H176910   0.710   1.496   3.587 -0.0926  1.0643  0.0008
18473TIP3    H276911   0.856   1.482   3.551 -0.3205 -0.3281 -0.4480
18474TIP3   OH276912   1.155   4.387   2.030 -0.0330 -0.1991  0.4632
18474TIP3    H176913   1.234   4.335   2.013 -0.2073 -0.0275 -1.0127
18474TIP3    H276914   1.087   4.321   2.045  0.1660 -0.3643  0.6539
18475TIP3   OH276915   1.418   1.415  13.412  0.1572 -0.2129  0.3170
18475TIP3    H176916   1.387   1.485  13.469  1.9951  0.7114  0.2442
18475TIP3    H276917   1.512   1.412  13.426  0.6400 -0.2501 -2.3029
18476TIP3   OH276918   6.742   2.367  12.280 -0.3756 -0.1147 -0.4190
18476TIP3    H176919   6.707   2.279  12.293  1.5181 -0.8307  0.0463
18476TIP3    H276920   6.834   2.361  12.305  0.0667  1.7507 -1.4106
18477TIP3   OH276921   1.766   2.022  12.945  0.1631  0.0073 -0.1426
18477TIP3    H176922   1.781   2.116  12.940 -1.6482  0.3297 -0.3013
18477TIP3    H276923   1.821   1.992  13.017  0.6956  1.2015 -0.0347
18478TIP3   OH276924   3.778   6.416   3.372 -0.2643  0.0033  0.7646
18478TIP3    H176925   3.694   6.374   3.392 -0.4124 -0.4715 -0.6698
18478TIP3    H276926   3.841   6.373   3.429 -1.2207  1.6452  3.2368
18479TIP3   OH276927   3.258   4.738  16.584 -0.4412 -0.9848  0.1405
18479TIP3    H176928   3.187   4.727  16.521 -2.0703 -0.8732  1.8366
18479TIP3    H276929   3.297   4.823  16.562 -2.1118 -0.1276  0.2926
18480TIP3   OH276930   3.279   5.614   5.195  0.1372 -0.5885  0.3714
18480TIP3    H176931   3.264   5.576   5.109 -0.3007  2.2869 -0.9295
18480TIP3    H276932   3.194   5.651   5.221  0.3440 -1.1031  1.9050
18481TIP3   OH276933   2.134   6.002  13.193 -0.4803 -0.2278  0.5216
18481TIP3    H176934   2.076   5.956  13.132 -0.6495  1.5568 -0.7284
18481TIP3    H276935   2.222   5.990  13.156 -0.4421 -0.1022  0.5727
18482TIP3   OH276936   3.752   3.803   4.520 -0.2354  0.0239 -0.3743
18482TIP3    H176937   3.841   3.786   4.552 -0.1283  0.4731 -0.4165
18482TIP3    H276938   3.739   3.897   4.536  0.1039  0.4490 -2.2992
18483TIP3   OH276939   5.823   4.350   5.939 -0.4986 -0.0979  0.2842
18483TIP3    H176940   5.819   4.272   5.995 -1.5715  0.8409  1.6131
18483TIP3    H276941   5.763   4.412   5.981  0.7342  1.6497 -0.4095
18484TIP3   OH276942   0.166   3.537   5.162 -0.1244 -0.1309 -0.0625
18484TIP3    H176943   0.163   3.455   5.114 -0.2818  0.7573 -1.6517
18484TIP3    H276944   0.236   3.526   5.226  1.9980 -0.4748 -2.2857
18485TIP3   OH276945   0.062   6.515  16.123 -0.4449  0.0719 -0.2043
18485TIP3    H176946   0.136   6.456  16.130 -0.7684 -0.1937  1.5715
18485TIP3    H276947   0.015   6.486  16.045 -0.3946 -1.8170  0.4120
18486TIP3   OH276948   4.491   0.828   4.748 -0.1262  0.0367  0.1259
18486TIP3    H176949   4.490   0.734   4.764 -2.5820 -0.1634 -0.7697
18486TIP3    H276950   4.419   0.862   4.801  0.6149  1.3984  0.3000
18487TIP3   OH276951   6.331   1.968  13.592  0.5981  0.3788 -0.1033
18487TIP3    H176952   6.285   2.048  13.566  1.0583  0.5998 -0.2456
18487TIP3    H276953   6.397   1.998  13.655  1.1864  0.2034 -0.6239
18488TIP3   OH276954   3.426   0.843  11.405 -0.2995  0.5950  0.1067
18488TIP3    H176955   3.402   0.912  11.342 -0.6404  2.3796  2.0681
18488TIP3    H276956   3.343   0.801  11.427 -0.0362 -0.8360 -1.4287
18489TIP3   OH276957   3.748   4.752   5.860 -0.3186  0.2107  0.2390
18489TIP3    H176958   3.790   4.838   5.872 -0.2402  0.2251 -0.1196
18489TIP3    H276959   3.819   4.689   5.873  0.1112  0.2681 -1.5212
18490TIP3   OH276960   0.843   4.046   1.605 -0.3324 -0.0651 -0.1820
18490TIP3    H176961   0.903   4.086   1.668 -0.6668 -0.1573  0.2046
18490TIP3    H276962   0.771   4.109   1.598 -0.4135 -0.1689 -0.2824
18491TIP3   OH276963   0.422   6.598  12.925 -0.6443  0.3474 -0.8141
18491TIP3    H176964   0.419   6.682  12.877  1.5518 -0.0764 -1.8450
18491TIP3    H276965   0.515   6.587  12.947 -1.2301 -0.7235  1.3974
18492TIP3   OH276966   1.595   1.990  10.932  0.6158 -0.3351 -0.1784
18492TIP3    H176967   1.672   1.933  10.923  0.3147 -0.5362 -1.7787
18492TIP3    H276968   1.537   1.942  10.991  1.1143 -0.8608 -0.0999
18493TIP3   OH276969   3.452   2.241   6.178  0.1813 -0.5049 -0.3646
18493TIP3    H176970   3.467   2.252   6.272 -0.9197 -0.8973 -0.1284
18493TIP3    H276971   3.390   2.310   6.155  1.0623  0.1057 -0.9877
18494TIP3   OH276972   0.890   2.387  12.854  0.1808  0.0513 -0.0820
18494TIP3    H176973   0.950   2.460  12.869 -2.7453  2.7738 -0.7035
18494TIP3    H276974   0.927   2.342  12.778  2.7866 -0.0488  1.1165
18495TIP3   OH276975   5.363   6.639  16.634  0.5424 -0.0666 -0.0433
18495TIP3    H176976   5.367   6.545  16.618 -1.9428 -0.0277 -1.4596
18495TIP3    H276977   5.269   6.659  16.639  0.9935  2.0590  2.2554
18496TIP3   OH276978   1.551   1.367   2.653 -0.7051 -0.7291  0.0631
18496TIP3    H176979   1.487   1.410   2.709  0.8044  0.4347  0.9961
18496TIP3    H276980   1.592   1.301   2.709  1.4961  1.0958  0.7874
18497TIP3   OH276981   2.375   0.475   4.316  0.0590 -0.0700  0.4381
18497TIP3    H176982   2.385   0.537   4.244  0.0631 -1.0619 -0.4577
18497TIP3    H276983   2.462   0.436   4.326 -0.6572 -2.3452 -1.3465
18498TIP3   OH276984   5.395   1.993  14.443 -0.1973 -0.0722 -0.6516
18498TIP3    H176985   5.471   2.027  14.396  1.4977  2.7373  3.4586
18498TIP3    H276986   5.417   1.903  14.464  0.3446 -0.4002 -2.4884
18499TIP3   OH276987   0.727   2.797   3.034  0.3749 -0.4573 -0.5800
18499TIP3    H176988   0.663   2.728   3.051 -2.1221  1.3645 -1.8860
18499TIP3    H276989   0.771   2.770   2.953  0.6945 -1.3360 -0.1248
18500TIP3   OH276990   4.986   0.721  14.969  0.2071  0.4137  0.6490
18500TIP3    H176991   5.058   0.783  14.972  1.0557 -0.5307  0.4094
18500TIP3    H276992   4.996   0.668  15.048 -0.8962  0.9972  1.1881
18501TIP3   OH276993   3.563   2.595  14.727 -0.0885  0.1174  0.4550
18501TIP3    H176994   3.500   2.619  14.660 -0.3977  0.8644  1.0067
18501TIP3    H276995   3.561   2.499  14.729 -2.1261  0.1353  1.3217
18502TIP3   OH276996   3.437   6.721  15.955 -0.0625 -0.3721  0.1317
18502TIP3    H176997   3.390   6.723  16.038  1.4960  1.3095  1.0475
18502TIP3    H276998   3.399   6.791  15.904  1.1308  0.7664  0.7440
18503TIP3   OH276999   6.755   5.048   2.055 -0.5739 -0.2083 -0.1917
18503TIP3    H177000   6.726   5.048   2.147  0.3627 -0.4623  0.1169
18503TIP3    H277001   6.738   5.137   2.025  0.7464  0.4031  0.7758
18504TIP3   OH277002   0.932   2.751   0.806  0.2036 -0.0046 -0.2494
18504TIP3    H177003   0.837   2.743   0.791 -0.1882  0.5241  1.7154
18504TIP3    H277004   0.969   2.670   0.769 -1.1911 -0.9151  0.2499
18505TIP3   OH277005   2.372   1.913   1.877 -0.0853  0.1899 -0.4851
18505TIP3    H177006   2.374   1.929   1.783  1.5128  0.1868 -0.4867
18505TIP3    H277007   2.446   1.963   1.911  0.0500 -0.7026  0.6084
18506TIP3   OH277008   3.240   5.299   6.168  0.3186  0.7820  0.1995
18506TIP3    H177009   3.210   5.252   6.090  2.2160 -1.5237  0.7491
18506TIP3    H277010   3.170   5.285   6.232  0.8518 -1.4670  0.3644
18507TIP3   OH277011   3.185   1.209  15.159  0.0001  0.1185  0.9536
18507TIP3    H177012   3.156   1.141  15.220  0.6125 -2.2434 -1.2018
18507TIP3    H277013   3.148   1.183  15.075  1.0504  1.9748 -0.1561
18508TIP3   OH277014   5.290   4.170   2.466 -0.2031 -0.4354  0.3068
18508TIP3    H177015   5.308   4.243   2.407 -1.0966 -0.3483  0.1175
18508TIP3    H277016   5.266   4.098   2.407 -0.4938 -0.5279  0.5376
18509TIP3   OH277017   2.369   5.389   4.709  0.2472  0.2337 -1.0348
18509TIP3    H177018   2.365   5.345   4.794  1.3135  0.0923 -1.0472
18509TIP3    H277019   2.294   5.353   4.660 -1.4568  1.6122  0.4218
18510TIP3   OH277020   6.406   6.321  15.212  0.4768 -0.4222  0.0716
18510TIP3    H177021   6.359   6.404  15.205  2.1537  0.4046 -2.6399
18510TIP3    H277022   6.348   6.257  15.169  0.1400 -0.2407  0.2480
18511TIP3   OH277023   3.601   2.494   5.440  0.0900  0.1075 -0.0297
18511TIP3    H177024   3.597   2.539   5.356  1.7750 -2.1715 -1.4440
18511TIP3    H277025   3.588   2.402   5.419  0.9005 -0.5827  2.1775
18512TIP3   OH277026   2.416   5.783  11.319  0.0917  0.2610 -0.2450
18512TIP3    H177027   2.472   5.823  11.252  0.4434 -0.5678 -0.4575
18512TIP3    H277028   2.472   5.718  11.361 -0.3511  0.2677  0.3668
18513TIP3   OH277029   3.661   2.818   4.892  0.4615  0.2068 -0.0463
18513TIP3    H177030   3.666   2.742   4.951  0.3556  1.2403  1.3665
18513TIP3    H277031   3.642   2.892   4.951  0.9889  1.3954 -1.3239
18514TIP3   OH277032   3.445   2.350   4.933  0.0305 -0.3608  0.4920
18514TIP3    H177033   3.358   2.315   4.949  0.3491 -1.2261  0.3981
18514TIP3    H277034   3.499   2.273   4.916  0.8510  0.1440  0.7291
18515TIP3   OH277035   6.662   3.677  16.363  0.0924  0.9154 -0.7906
18515TIP3    H177036   6.672   3.613  16.293  0.1379  0.7121 -0.6007
18515TIP3    H277037   6.646   3.624  16.442 -0.9555  1.1625 -0.8144
18516TIP3   OH277038   5.940   4.176   2.012  0.2854 -0.2743  1.0358
18516TIP3    H177039   5.882   4.102   2.029  0.8117 -0.6880  1.0822
18516TIP3    H277040   5.966   4.165   1.920  0.0689  0.0701  0.9318
18517TIP3   OH277041   1.634   5.943   4.922 -0.2128  0.9557  0.6071
18517TIP3    H177042   1.608   5.886   4.850 -0.3827  0.2586  1.2187
18517TIP3    H277043   1.723   5.917   4.943 -0.6466  0.1822  1.5769
18518TIP3   OH277044   4.688   0.205  11.100  0.0886 -0.2473 -0.3125
18518TIP3    H177045   4.711   0.221  11.008 -0.8216 -0.5909 -0.6118
18518TIP3    H277046   4.771   0.186  11.142  0.3025 -2.6391 -1.6071
18519TIP3   OH277047   4.363   3.385  16.706  0.1826 -0.0924 -0.5653
18519TIP3    H177048   4.392   3.294  16.714 -0.1886 -0.2821 -1.2445
18519TIP3    H277049   4.318   3.388  16.621  3.2293  1.5581 -2.2928
18520TIP3   OH277050   2.425   1.389  16.521  0.5453 -0.0620 -0.1797
18520TIP3    H177051   2.502   1.447  16.518  0.2085  0.3512 -1.3058
18520TIP3    H277052   2.421   1.360  16.612  2.0227 -0.0801 -0.0899
18521TIP3   OH277053   3.505   3.553   1.050 -0.4492  0.1531  0.5957
18521TIP3    H177054   3.529   3.461   1.045 -1.4101 -0.0299 -1.8688
18521TIP3    H277055   3.461   3.561   1.135  0.0357 -1.5401  1.0507
18522TIP3   OH277056   5.612   6.321   6.460  0.1555 -0.0132  0.2004
18522TIP3    H177057   5.562   6.345   6.382  2.6652  0.3571 -1.4284
18522TIP3    H277058   5.554   6.264   6.510 -3.2800  3.3121  0.4342
18523TIP3   OH277059   6.421   5.295  15.530 -0.0466  0.5062 -0.5363
18523TIP3    H177060   6.474   5.295  15.450  0.2446 -1.0936 -0.3699
18523TIP3    H277061   6.383   5.208  15.534 -0.2407  0.6370  0.9622
18524TIP3   OH277062   5.992   3.282  16.606 -0.7582  0.8820 -0.2049
18524TIP3    H177063   5.900   3.262  16.592 -0.2777 -1.5823 -0.3068
18524TIP3    H277064   6.006   3.267  16.700  0.0671 -1.6071 -0.6441
18525TIP3   OH277065   0.198   1.467  13.759 -0.0715 -0.0277 -0.4258
18525TIP3    H177066   0.131   1.500  13.699  0.1030 -0.7619 -1.0465
18525TIP3    H277067   0.150   1.443  13.838 -0.0594  2.8210  0.5642
18526TIP3   OH277068   5.224   5.991   5.891 -0.1462 -0.0230 -0.3412
18526TIP3    H177069   5.216   5.974   5.797  0.2768  0.2169 -0.4206
18526TIP3    H277070   5.133   5.991   5.922 -0.2081 -2.2976 -0.3444
18527TIP3   OH277071   4.410   3.741  16.565 -0.5308  0.2636 -0.6542
18527TIP3    H177072   4.318   3.761  16.548 -1.2563 -1.1018  1.2647
18527TIP3    H277073   4.413   3.645  16.568  1.8230  0.0043 -4.7576
18528TIP3   OH277074   0.693   4.448   6.084 -0.3338  0.1698 -0.0985
18528TIP3    H177075   0.713   4.541   6.069  2.0303  0.0131  1.5573
18528TIP3    H277076   0.694   4.438   6.179 -0.8396 -1.5203 -0.2397
18529TIP3   OH277077   2.682   1.758  12.229  0.1830 -0.2941 -0.1996
18529TIP3    H177078   2.599   1.717  12.205  1.6327 -3.2815 -0.5024
18529TIP3    H277079   2.731   1.762  12.147  1.7399 -2.1700  0.5725
18530TIP3   OH277080   3.157   3.914   1.600 -0.8127  0.2623  0.0363
18530TIP3    H177081   3.166   3.937   1.693  0.2374 -0.1160  0.0364
18530TIP3    H277082   3.108   3.831   1.601  0.6769 -0.6511  0.3677
18531TIP3   OH277083   2.353   5.869  14.213  0.0364 -0.1491 -0.2890
18531TIP3    H177084   2.312   5.853  14.128 -1.5750  1.0448  0.2152
18531TIP3    H277085   2.351   5.965  14.222 -0.6869 -0.3071  1.4862
18532TIP3   OH277086   0.260   1.277   2.592  0.6923 -0.0589  0.7158
18532TIP3    H177087   0.273   1.255   2.500 -4.0342 -0.4657 -0.1008
18532TIP3    H277088   0.290   1.200   2.640 -0.6327 -1.6504 -0.8707
18533TIP3   OH277089   1.136   5.405   1.115 -0.0675  0.0094  0.4399
18533TIP3    H177090   1.211   5.425   1.060 -1.4714  2.4341 -0.7467
18533TIP3    H277091   1.075   5.358   1.058  0.1636 -1.2057  1.1561
18534TIP3   OH277092   5.855   1.874  13.760 -0.1663 -0.2205 -0.1028
18534TIP3    H177093   5.773   1.892  13.716 -1.1027  1.2890  2.0708
18534TIP3    H277094   5.847   1.783  13.790 -1.4139  0.1449  0.7468
18535TIP3   OH277095   1.835   2.926   0.998  0.1570  0.5596  0.2484
18535TIP3    H177096   1.794   2.845   1.027 -0.7385  1.0089  0.2608
18535TIP3    H277097   1.927   2.902   0.984 -0.2150 -0.6101 -0.3596
18536TIP3   OH277098   5.259   2.882   3.067  0.1583 -0.1006  0.5359
18536TIP3    H177099   5.220   2.969   3.081  0.4177 -0.0482  0.9498
18536TIP3    H277100   5.353   2.898   3.067  0.1892 -0.2373 -0.4141
18537TIP3   OH277101   2.831   1.640   3.155  0.4235  0.5174 -0.2427
18537TIP3    H177102   2.771   1.701   3.111 -0.1148 -0.6233 -1.1158
18537TIP3    H277103   2.773   1.581   3.204  0.8373 -0.5100 -0.9800
18538TIP3   OH277104   6.026   6.408   0.458  0.0431  0.2016 -0.0348
18538TIP3    H177105   6.107   6.408   0.408 -1.0211 -0.3276 -1.8616
18538TIP3    H277106   6.035   6.335   0.519 -0.0334 -1.5064 -1.9746
18539TIP3   OH277107   5.608   1.298  12.131 -0.4477 -0.3193 -0.4220
18539TIP3    H177108   5.694   1.339  12.139 -0.6538 -0.0727  0.5841
18539TIP3    H277109   5.565   1.346  12.060 -1.3082  2.3686  1.7581
18540TIP3   OH277110   4.422   5.736  13.121 -0.0005  0.1110 -0.0977
18540TIP3    H177111   4.348   5.696  13.074  0.8219  0.1751 -1.5171
18540TIP3    H277112   4.436   5.820  13.077 -1.4738  1.9540  2.6149
18541TIP3   OH277113   5.658   5.922  12.803  0.4798  0.4638 -0.8400
18541TIP3    H177114   5.665   6.017  12.792 -1.8720  0.5463 -2.2588
18541TIP3    H277115   5.682   5.908  12.895  0.8855  2.4282 -0.5862
18542TIP3   OH277116   1.611   1.939  12.613 -0.3463 -0.4386 -0.4333
18542TIP3    H177117   1.562   1.902  12.687 -0.0994 -1.1426 -0.6162
18542TIP3    H277118   1.656   2.015  12.649  0.1103 -1.0246  0.2466
18543TIP3   OH277119   3.362   5.807   5.386 -0.1121 -0.3366  0.3275
18543TIP3    H177120   3.405   5.772   5.464 -0.8554  0.3667  1.0777
18543TIP3    H277121   3.341   5.730   5.333 -0.9210 -0.9687  1.5205
18544TIP3   OH277122   0.652   2.253  10.639  0.2299 -1.0409  0.1799
18544TIP3    H177123   0.648   2.158  10.632 -0.4750 -0.9039 -1.8558
18544TIP3    H277124   0.565   2.278  10.672  0.1985 -1.0606  0.1117
18545TIP3   OH277125   4.117   3.249   2.978 -0.2285  0.0946 -0.2434
18545TIP3    H177126   4.206   3.237   2.947 -0.0780 -1.3789  0.6487
18545TIP3    H277127   4.119   3.218   3.069 -1.4400  0.8865  0.0737
18546TIP3   OH277128   2.488   0.176  16.517  0.4480 -0.2243 -0.5101
18546TIP3    H177129   2.511   0.236  16.446  0.5030  0.0432 -0.2692
18546TIP3    H277130   2.420   0.119  16.480 -0.0074  0.3451 -0.5698
18547TIP3   OH277131   2.530   2.866  12.409  0.1901 -0.4199 -0.4251
18547TIP3    H177132   2.518   2.960  12.398  0.9476 -0.1972  0.5003
18547TIP3    H277133   2.623   2.852  12.393  0.7326 -0.5241  2.2809
18548TIP3   OH277134   6.060   5.991   5.808 -0.1196 -0.2905 -0.3437
18548TIP3    H177135   6.132   5.978   5.871 -0.3645  1.5385  0.3761
18548TIP3    H277136   5.992   6.035   5.859 -0.3995  1.0869 -1.8357
18549TIP3   OH277137   6.260   2.274   4.439 -0.8366 -0.2591 -1.1205
18549TIP3    H177138   6.171   2.293   4.411 -1.4333 -2.4367 -0.8377
18549TIP3    H277139   6.314   2.338   4.392 -2.5552  1.4727 -0.8611
18550TIP3   OH277140   2.551   4.545  14.471 -0.3634 -0.0408 -0.6577
18550TIP3    H177141   2.548   4.619  14.410  2.1800  1.1093  0.4826
18550TIP3    H277142   2.555   4.586  14.557 -1.2577 -1.5953  0.1633
18551TIP3   OH277143   6.359   1.074   0.705 -0.2620  0.5113  0.0516
18551TIP3    H177144   6.352   1.158   0.748  1.3188 -0.1306  1.6777
18551TIP3    H277145   6.368   1.010   0.776  1.7641 -0.6594 -1.1559
18552TIP3   OH277146   4.306   1.874   4.736 -0.3856 -0.2815 -0.0821
18552TIP3    H177147   4.325   1.864   4.829  0.9870  0.0404 -0.3030
18552TIP3    H277148   4.336   1.792   4.696 -0.4204 -0.1864 -0.3057
18553TIP3   OH277149   3.955   4.549   1.892 -0.0994  0.2544 -0.2062
18553TIP3    H177150   3.959   4.637   1.855  3.9273  0.1355 -0.5133
18553TIP3    H277151   3.899   4.557   1.969  0.4174  3.2103 -0.0389
18554TIP3   OH277152   1.621   6.313  11.007  0.2385 -0.7792  0.3549
18554TIP3    H177153   1.542   6.338  10.959 -0.3923 -1.2388  1.1171
18554TIP3    H277154   1.655   6.395  11.043 -0.3533 -0.6805  0.6940
18555TIP3   OH277155   4.915   2.461  14.736  0.1771 -0.1266 -0.1604
18555TIP3    H177156   4.904   2.366  14.738  1.3355 -0.2620  0.2299
18555TIP3    H277157   5.009   2.475  14.725  0.2118  0.9774  1.1962
18556TIP3   OH277158   0.626   0.647   2.936 -0.5065  0.4297 -0.3971
18556TIP3    H177159   0.572   0.608   2.867 -0.2431 -0.0735 -0.3272
18556TIP3    H277160   0.715   0.642   2.902 -0.2823 -0.5318  0.2899
18557TIP3   OH277161   6.110   5.083  10.820  0.3531  0.2571  0.0439
18557TIP3    H177162   6.040   5.111  10.878 -1.1469 -0.9121 -1.1047
18557TIP3    H277163   6.157   5.015  10.869 -0.5723 -0.3503  0.0992
18558TIP3   OH277164   3.045   1.142  13.359  0.0281 -0.4052  0.0719
18558TIP3    H177165   2.955   1.167  13.380  0.2054  0.4672 -0.1943
18558TIP3    H277166   3.057   1.169  13.268  1.2767  1.5737  0.7841
18559TIP3   OH277167   1.933   3.530   6.435 -0.5419 -0.0064 -0.4885
18559TIP3    H177168   1.989   3.608   6.431 -2.2386  1.4796  1.6871
18559TIP3    H277169   1.868   3.542   6.366 -0.0661 -0.1208 -0.9548
18560TIP3   OH277170   4.325   5.919   4.192  0.1395  0.1934 -0.5652
18560TIP3    H177171   4.250   5.877   4.236  0.7327 -1.0542 -0.7212
18560TIP3    H277172   4.320   6.010   4.221 -0.9439 -0.0526  0.1144
18561TIP3   OH277173   1.660   6.760   2.373 -0.0159 -0.2748  0.1249
18561TIP3    H177174   1.690   6.850   2.355  1.6212 -0.4268  1.8309
18561TIP3    H277175   1.599   6.770   2.446  0.2453 -0.5563  0.3818
18562TIP3   OH277176   5.368   0.565  16.823 -0.2319  0.5624 -0.1253
18562TIP3    H177177   5.346   0.595  16.911 -0.1325 -1.1688  0.5401
18562TIP3    H277178   5.421   0.635  16.786 -1.9723  2.2526  0.3972
18563TIP3   OH277179   4.682   0.951  13.300 -0.5638 -0.2111 -0.2626
18563TIP3    H177180   4.663   1.028  13.245  0.5492 -0.3385 -0.8599
18563TIP3    H277181   4.629   0.881  13.262 -0.0987 -0.2010 -0.9466
18564TIP3   OH277182   6.278   5.639  15.260 -0.6258 -0.0680 -0.1699
18564TIP3    H177183   6.364   5.604  15.282 -0.9497  0.4505  2.1124
18564TIP3    H277184   6.296   5.705  15.192  0.9685  0.9759  1.1967
18565TIP3   OH277185   5.649   1.395  12.943 -0.3388  0.2057  0.1346
18565TIP3    H177186   5.654   1.487  12.970 -0.9692  0.3736 -0.3099
18565TIP3    H277187   5.678   1.395  12.852 -1.2975  0.1153 -0.1786
18566TIP3   OH277188   4.570   4.135   2.534  0.3544 -0.0640 -0.4437
18566TIP3    H177189   4.536   4.210   2.583  0.8641  0.5383 -0.9864
18566TIP3    H277190   4.512   4.063   2.556  0.6518  0.1497  1.1549
18567TIP3   OH277191   5.336   2.219  16.592  0.4490 -0.3420 -0.7287
18567TIP3    H177192   5.330   2.137  16.641  2.1560 -0.0457  0.0369
18567TIP3    H277193   5.349   2.192  16.501 -0.5049 -0.8988 -0.7138
18568TIP3   OH277194   1.468   5.601  15.850 -0.7455 -0.0784 -0.7929
18568TIP3    H177195   1.493   5.678  15.800 -1.0789  1.5022  1.3421
18568TIP3    H277196   1.393   5.629  15.902 -0.9756 -1.8906 -0.0690
18569TIP3   OH277197   1.036   2.348   6.709  0.3512 -0.1342 -0.5195
18569TIP3    H177198   0.956   2.380   6.666 -0.1909  1.8717  1.7844
18569TIP3    H277199   1.094   2.424   6.712  1.0867 -0.7134  0.6746
18570TIP3   OH277200   0.946   0.078  12.533 -0.1121  0.4243 -0.3674
18570TIP3    H177201   1.010   0.033  12.589 -0.5323  0.1696 -0.0872
18570TIP3    H277202   0.921   0.013  12.467 -0.9820  0.1198  0.2472
18571TIP3   OH277203   5.305   4.408   5.962 -0.7491 -0.6107 -0.2275
18571TIP3    H177204   5.318   4.494   5.921 -1.5697  0.0003  0.7519
18571TIP3    H277205   5.332   4.420   6.053 -2.2357 -0.9596  0.2917
18572TIP3   OH277206   2.404   5.905   6.423 -0.2217 -0.0110  0.5298
18572TIP3    H177207   2.440   5.976   6.476  0.1738 -1.1670  1.8762
18572TIP3    H277208   2.481   5.859   6.389 -0.4713  0.0885 -0.1867
18573TIP3   OH277209   0.674   1.140  14.842 -0.2451  0.1351 -0.0701
18573TIP3    H177210   0.759   1.153  14.883  0.2669 -0.3986 -0.9311
18573TIP3    H277211   0.669   1.207  14.774  0.0297 -0.6040 -0.8379
18574TIP3   OH277212   6.584   5.010  15.273  0.2181 -0.1797 -0.1442
18574TIP3    H177213   6.630   4.995  15.190 -0.2670  2.9535 -1.0957
18574TIP3    H277214   6.496   4.976  15.258  0.6365 -1.2964 -0.2069
18575TIP3   OH277215   1.652   5.249  14.690  0.1023 -0.8609  0.0152
18575TIP3    H177216   1.711   5.321  14.668  0.5809 -1.1715  0.2702
18575TIP3    H277217   1.656   5.191  14.615  0.6066 -1.1908  0.2907
18576TIP3   OH277218   6.769   4.766   6.464 -0.2985 -0.5308  0.0645
18576TIP3    H177219   6.782   4.852   6.423  1.5022 -0.5328  0.5484
18576TIP3    H277220   6.714   4.718   6.402 -1.5807  1.0437 -0.0815
18577TIP3   OH277221   1.647   4.011  11.900  0.6535 -0.0665  0.9388
18577TIP3    H177222   1.643   4.045  11.989  0.8718 -0.6084  1.1625
18577TIP3    H277223   1.575   4.055  11.854  1.3202  1.1572  1.0406
18578TIP3   OH277224   0.211   1.171  15.695  0.1629  0.0656 -0.3046
18578TIP3    H177225   0.131   1.222  15.711  0.1088 -0.5007  1.3722
18578TIP3    H277226   0.203   1.142  15.604 -1.9116 -0.6062  0.0400
18579TIP3   OH277227   0.558   1.094   1.029  0.0533 -0.6633  0.3478
18579TIP3    H177228   0.638   1.046   1.009  1.7531  0.8912  2.9019
18579TIP3    H277229   0.524   1.053   1.108 -0.3395  0.1962  0.6423
18580TIP3   OH277230   3.251   6.005   3.005 -0.6337 -0.2445  0.7131
18580TIP3    H177231   3.326   5.951   3.032 -0.1907 -0.5383 -0.9775
18580TIP3    H277232   3.231   5.975   2.916 -1.2637  1.4345  0.2560
18581TIP3   OH277233   1.434   1.383  12.077 -0.0682  0.2362  0.3274
18581TIP3    H177234   1.524   1.359  12.055  0.3044  1.4850  0.4622
18581TIP3    H277235   1.389   1.389  11.992  0.3247  0.9830  0.1738
18582TIP3   OH277236   0.116   1.498  13.234  0.4072  0.4566 -0.1555
18582TIP3    H177237   0.197   1.447  13.223  0.0484 -0.0456 -0.5429
18582TIP3    H277238   0.060   1.470  13.161 -0.3639  0.3181  0.4740
18583TIP3   OH277239   1.908   1.612  10.654 -0.8035 -0.3175  0.3500
18583TIP3    H177240   1.844   1.678  10.627 -0.3673  0.3235  0.8588
18583TIP3    H277241   1.860   1.529  10.649 -1.2741 -0.0090 -0.5809
18584TIP3   OH277242   4.591   3.223  16.946  0.1774  0.0577  0.1462
18584TIP3    H177243   4.642   3.163  17.000 -0.2516 -0.7901 -0.3727
18584TIP3    H277244   4.507   3.180  16.934  0.8684 -0.6952 -2.7278
18585TIP3   OH277245   5.252   4.984   1.530 -0.7824  0.1056 -0.4455
18585TIP3    H177246   5.211   4.980   1.616 -0.5829  0.8673 -0.3117
18585TIP3    H277247   5.346   4.987   1.549 -0.6953 -0.6253 -0.7214
18586TIP3   OH277248   5.618   5.958   3.532 -0.6064  0.0169 -0.7157
18586TIP3    H177249   5.590   5.990   3.617 -2.0414 -0.8387 -0.8260
18586TIP3    H277250   5.613   5.862   3.540  1.1953 -0.1486 -1.1465
18587TIP3   OH277251   0.273   6.386   5.145 -0.4895 -0.2204  0.1735
18587TIP3    H177252   0.268   6.341   5.061  0.7239 -1.2321  0.6301
18587TIP3    H277253   0.355   6.358   5.184 -0.6112  0.9083  1.3345
18588TIP3   OH277254   6.631   1.764   3.527  0.0018 -0.4616  0.0906
18588TIP3    H177255   6.629   1.737   3.619 -0.1144 -0.6816  0.0249
18588TIP3    H277256   6.699   1.831   3.523 -2.4630  2.2965  1.0588
18589TIP3   OH277257   5.357   2.413   3.668 -0.3578 -0.4798  0.0871
18589TIP3    H177258   5.266   2.384   3.658 -0.3688 -0.6083  0.5190
18589TIP3    H277259   5.403   2.372   3.595 -0.9339  0.8781 -1.0794
18590TIP3   OH277260   2.221   2.328   1.656  0.1754  0.3293 -0.1202
18590TIP3    H177261   2.147   2.273   1.683  0.4447  0.3700  0.7420
18590TIP3    H277262   2.288   2.265   1.627 -0.0185  0.2713 -0.4456
18591TIP3   OH277263   6.616   3.135   0.826  0.2720  0.3765  0.0312
18591TIP3    H177264   6.676   3.157   0.754  1.7143  0.5624  1.2417
18591TIP3    H277265   6.645   3.049   0.855 -1.3768 -0.4490 -0.6537
18592TIP3   OH277266   1.164   0.624  13.854  0.6695  0.9288 -0.7402
18592TIP3    H177267   1.256   0.651  13.846  1.2465 -0.5377  0.4555
18592TIP3    H277268   1.143   0.586  13.769  1.4360  0.5620 -0.7802
18593TIP3   OH277269   3.914   2.401   0.406 -0.0006 -0.2442 -0.6126
18593TIP3    H177270   3.947   2.346   0.336 -0.5210  0.5846 -1.5319
18593TIP3    H277271   3.877   2.340   0.470  1.5133 -1.0780 -0.4863
18594TIP3   OH277272   2.844   2.499   0.475 -0.5863 -0.4275  0.2023
18594TIP3    H177273   2.790   2.431   0.434  0.9394 -0.8669 -1.1891
18594TIP3    H277274   2.832   2.576   0.418  1.0563 -0.8549 -0.7853
18595TIP3   OH277275   2.912   6.407   3.680  0.2598  0.3828  0.1619
18595TIP3    H177276   2.988   6.453   3.645 -0.1293  0.6259 -0.4012
18595TIP3    H277277   2.919   6.319   3.644  0.0746  0.5177 -0.2152
18596TIP3   OH277278   3.056   2.476  14.886  0.2575 -0.5132 -0.3578
18596TIP3    H177279   3.115   2.550  14.899 -0.1901 -0.4466  1.6807
18596TIP3    H277280   3.113   2.401  14.875  0.7639 -0.3435  0.8971
18597TIP3   OH277281   5.964   3.059  13.692  1.1873 -0.1858  0.1838
18597TIP3    H177282   6.029   3.083  13.626  1.9160 -0.4318  0.7932
18597TIP3    H277283   5.919   2.983  13.654  0.5336  0.6059 -0.6874
18598TIP3   OH277284   5.101   5.638   5.591 -0.0276 -0.1191  0.3109
18598TIP3    H177285   5.043   5.698   5.544 -0.4588 -0.2958  0.6085
18598TIP3    H277286   5.147   5.590   5.522 -1.0160 -0.7329  0.0480
18599TIP3   OH277287   3.035   6.083  16.128 -0.0552 -0.7624 -0.3594
18599TIP3    H177288   3.055   6.171  16.160 -0.2126 -0.2804 -1.5186
18599TIP3    H277289   3.075   6.024  16.192 -0.9322  0.1326  1.0614
18600TIP3   OH277290   2.717   6.113  10.998  0.4443 -0.1248 -0.2878
18600TIP3    H177291   2.741   6.140  10.909  0.6553  2.5987  0.4949
18600TIP3    H277292   2.795   6.070  11.033  0.9245  0.2553 -0.8785
18601TIP3   OH277293   6.650   4.644  13.487 -0.2684  0.6491  0.5788
18601TIP3    H177294   6.662   4.552  13.464  0.3633  0.1686  2.6599
18601TIP3    H277295   6.677   4.692  13.408 -1.9503 -0.9275 -1.0449
18602TIP3   OH277296   3.982   1.037   6.093 -0.1495  0.4709  0.2564
18602TIP3    H177297   3.934   1.035   6.175 -0.4917 -0.1645  0.0484
18602TIP3    H277298   3.982   1.129   6.067 -0.5330  0.5913  0.6791
18603TIP3   OH277299   5.396   4.929  14.509  0.2938  0.0182 -0.2273
18603TIP3    H177300   5.375   5.008  14.460 -0.4091 -0.0712 -0.0851
18603TIP3    H277301   5.311   4.889  14.527  0.5269  0.1084  1.1642
18604TIP3   OH277302   0.354   2.138  15.726 -0.5909  0.3273 -0.2461
18604TIP3    H177303   0.398   2.055  15.739 -1.3155  0.1944  1.8189
18604TIP3    H277304   0.393   2.175  15.647  0.0073 -1.7760 -0.9871
18605TIP3   OH277305   5.003   3.918  14.851 -0.2985  0.6307  0.0173
18605TIP3    H177306   4.949   3.906  14.773  0.6664  0.3682 -0.6262
18605TIP3    H277307   5.093   3.905  14.821 -0.0263 -2.1878  1.6656
18606TIP3   OH277308   4.175   2.507  12.272 -0.1807  0.5973  0.2557
18606TIP3    H177309   4.215   2.436  12.322 -3.0090 -0.0276  1.8099
18606TIP3    H277310   4.089   2.473  12.246 -0.7358  2.6871 -0.8951
18607TIP3   OH277311   0.950   6.551   6.569  0.2391 -0.1531  0.0285
18607TIP3    H177312   0.941   6.498   6.490  1.4385  0.6185 -0.6542
18607TIP3    H277313   0.907   6.500   6.637 -0.5702 -0.9619 -1.0649
18608TIP3   OH277314   3.284   4.327   1.424 -0.1105  0.4452  0.0839
18608TIP3    H177315   3.371   4.314   1.463  1.0507  0.3162 -2.3515
18608TIP3    H277316   3.267   4.247   1.376 -0.2281  1.5679 -1.8270
18609TIP3   OH277317   0.063   5.045   6.572  0.4028  0.2372  0.3306
18609TIP3    H177318   0.011   5.120   6.601  1.5585  1.4058 -0.5195
18609TIP3    H277319   0.153   5.077   6.573  0.9281 -1.1899  0.0465
18610TIP3   OH277320   5.635   5.279   0.545 -0.4695 -0.1951  0.4219
18610TIP3    H177321   5.693   5.354   0.558 -1.5210  1.0865 -1.7020
18610TIP3    H277322   5.688   5.215   0.498 -0.3917  0.4986 -0.4752
18611TIP3   OH277323   4.969   4.647   2.159  0.4652  0.1599 -0.6125
18611TIP3    H177324   4.885   4.600   2.158 -0.4868  1.7780  0.1505
18611TIP3    H277325   5.017   4.606   2.231  0.2685 -0.6523 -0.9278
18612TIP3   OH277326   6.645   2.293   6.276  0.5059 -0.2493  0.4745
18612TIP3    H177327   6.680   2.348   6.206  0.8451  0.1982  0.9879
18612TIP3    H277328   6.681   2.330   6.356 -0.1363 -0.5588  0.9166
18613TIP3   OH277329   4.107   1.168  11.989 -0.7188  0.2716 -0.2060
18613TIP3    H177330   4.169   1.151  12.061  0.0993  2.5150 -0.3260
18613TIP3    H277331   4.036   1.216  12.031 -1.1072  0.0258 -0.5837
18614TIP3   OH277332   5.505   5.725   1.163  0.0079 -0.6459 -0.2655
18614TIP3    H177333   5.588   5.747   1.121  0.4296 -1.7793 -0.0775
18614TIP3    H277334   5.528   5.658   1.228 -1.0598 -1.0141 -0.2429
18615TIP3   OH277335   3.158   6.646  12.246  0.7064  0.2305  0.1166
18615TIP3    H177336   3.079   6.601  12.277 -0.4497  0.3723 -2.3666
18615TIP3    H277337   3.199   6.583  12.187 -0.5496  2.0206 -2.8757
18616TIP3   OH277338   5.460   0.844  12.610  0.4180  0.4772 -0.0586
18616TIP3    H177339   5.434   0.798  12.690  0.9318 -0.0312 -0.1787
18616TIP3    H277340   5.388   0.826  12.548 -1.5908  3.4592  1.1940
18617TIP3   OH277341   2.316   2.075  12.721  0.0161 -0.3201  0.0274
18617TIP3    H177342   2.301   2.106  12.810 -3.4680  0.3962 -0.6832
18617TIP3    H277343   2.328   1.981  12.729  0.0711 -0.2142  1.2688
18618TIP3   OH277344   2.892   4.178   2.768  0.4441 -0.4274  0.0727
18618TIP3    H177345   2.972   4.204   2.723  0.2991  0.5452  0.3640
18618TIP3    H277346   2.882   4.241   2.839 -0.6483 -0.4600 -0.0325
18619TIP3   OH277347   1.578   0.777   3.061 -0.2499  0.1648 -0.4643
18619TIP3    H177348   1.556   0.868   3.082  0.4156  0.1477  0.3418
18619TIP3    H277349   1.523   0.725   3.119 -0.9586  0.0322 -1.2392
18620TIP3   OH277350   1.368   1.394   1.961  0.6806 -0.2184 -0.2818
18620TIP3    H177351   1.445   1.394   1.905  1.5979  0.9595  0.9314
18620TIP3    H277352   1.401   1.416   2.048 -0.7746 -1.5106  0.6468
18621TIP3   OH277353   1.804   4.462   3.442 -0.2214  0.4147 -0.3980
18621TIP3    H177354   1.829   4.385   3.493  2.9349  1.0267 -0.8172
18621TIP3    H277355   1.758   4.518   3.505 -3.5972 -2.0790 -0.3270
18622TIP3   OH277356   1.889   5.262   1.270 -0.1900  0.6607  0.0919
18622TIP3    H177357   1.936   5.305   1.199  0.2958  0.4221  0.2654
18622TIP3    H277358   1.796   5.279   1.251 -0.0694  0.5552 -0.6260
18623TIP3   OH277359   1.285   0.695  15.251 -0.4258 -0.2256  0.4165
18623TIP3    H177360   1.200   0.723  15.283 -1.6662  0.5606 -3.1468
18623TIP3    H277361   1.277   0.600  15.239 -0.0310 -0.4874  1.9683
18624TIP3   OH277362   2.528   4.558   3.396  0.1559  0.2002  0.1459
18624TIP3    H177363   2.478   4.638   3.381 -1.1073 -0.4503  0.7397
18624TIP3    H277364   2.553   4.528   3.309 -0.3334  0.6239 -0.1448
18625TIP3   OH277365   3.276   0.147   4.297  0.2628  0.2060  0.1650
18625TIP3    H177366   3.205   0.085   4.313 -0.0633  1.1759  3.0154
18625TIP3    H277367   3.232   0.230   4.278  0.6262  0.5835  0.9395
18626TIP3   OH277368   1.203   5.699  15.669  0.5325  0.1410  0.2470
18626TIP3    H177369   1.159   5.665  15.591  1.4316  2.4879 -1.4268
18626TIP3    H277370   1.161   5.656  15.743 -1.8437 -0.5979 -1.4572
18627TIP3   OH277371   0.497   3.527   0.407  0.7351  0.1678  0.3950
18627TIP3    H177372   0.442   3.604   0.421  1.5701  0.8732 -0.1535
18627TIP3    H277373   0.535   3.540   0.320 -0.0087 -1.4337 -0.2223
18628TIP3   OH277374   3.618   4.480   3.671  0.4674  0.3157 -0.0052
18628TIP3    H177375   3.527   4.506   3.681  0.0913 -0.7008 -0.7011
18628TIP3    H277376   3.628   4.459   3.578  1.1571 -0.4842  0.2283
18629TIP3   OH277377   3.742   2.570  14.088 -0.2569  0.0966  0.3441
18629TIP3    H177378   3.724   2.483  14.123 -1.0469  0.1920  0.1930
18629TIP3    H277379   3.758   2.555  13.994  1.7596 -0.1461  0.6774
18630TIP3   OH277380   4.490   0.420  10.812 -0.1346  0.1255 -0.2665
18630TIP3    H177381   4.553   0.446  10.745 -1.3837  1.2320 -1.0711
18630TIP3    H277382   4.487   0.495  10.872 -0.5215  0.0020 -0.1302
18631TIP3   OH277383   2.010   5.449   6.500  0.0553  0.5751  0.5111
18631TIP3    H177384   1.971   5.365   6.526  3.6146 -0.5937  2.8821
18631TIP3    H277385   1.953   5.515   6.539 -1.9941 -0.7102 -0.0986
18632TIP3   OH277386   2.953   6.252  15.193  0.5044 -0.5634  1.0664
18632TIP3    H177387   2.960   6.163  15.227  0.7267 -0.3054  1.7019
18632TIP3    H277388   2.876   6.289  15.235  0.0099 -0.6688  0.2850
18633TIP3   OH277389   3.878   5.245   6.192  0.2828 -0.1894  0.0149
18633TIP3    H177390   3.826   5.221   6.269  0.0135 -0.8874 -0.3746
18633TIP3    H277391   3.909   5.334   6.211 -0.3377 -0.0923  0.6318
18634TIP3   OH277392   0.274   2.811  16.860  0.0012 -0.0742 -0.1583
18634TIP3    H177393   0.243   2.728  16.895 -1.0187  0.1677 -0.4514
18634TIP3    H277394   0.212   2.832  16.790 -0.6346  1.6326  0.8452
18635TIP3   OH277395   0.389   6.543  11.029 -0.4127 -0.3594 -0.3003
18635TIP3    H177396   0.475   6.501  11.037 -0.1896  0.0239 -0.6026
18635TIP3    H277397   0.352   6.506  10.950  0.3838  1.0176 -1.3716
18636TIP3   OH277398   0.412   2.312   0.927  0.1965  0.5764  0.3943
18636TIP3    H177399   0.399   2.227   0.968  0.0937  0.2416 -0.3090
18636TIP3    H277400   0.326   2.354   0.930 -0.2804 -0.2080 -1.1138
18637TIP3   OH277401   3.733   0.772   1.943 -0.0767 -0.1425 -0.2671
18637TIP3    H177402   3.780   0.850   1.972 -0.6801  1.2196 -2.6866
18637TIP3    H277403   3.641   0.793   1.957 -0.1878 -1.8503  2.2179
18638TIP3   OH277404   5.705   1.004   1.060 -0.5906 -0.5151 -0.6969
18638TIP3    H177405   5.638   1.057   1.017 -0.7098 -0.6864 -0.7254
18638TIP3    H277406   5.779   1.064   1.074 -1.4233  0.1841  1.0268
18639TIP3   OH277407   5.300   1.918   2.434  0.7591 -0.1543 -0.1546
18639TIP3    H177408   5.305   1.968   2.516 -0.4191 -0.3386  0.0377
18639TIP3    H277409   5.294   1.827   2.462 -1.6858 -0.1023 -0.3542
18640TIP3   OH277410   4.795   1.857  14.923 -0.2057 -0.6363  0.2828
18640TIP3    H177411   4.744   1.918  14.976  0.9219 -1.0437  1.9450
18640TIP3    H277412   4.817   1.786  14.983 -0.8402 -2.3301 -1.3963
18641TIP3   OH277413   3.866   4.272  11.504  0.1345 -0.1545  0.2789
18641TIP3    H177414   3.954   4.298  11.478 -0.3831  1.2865 -0.1378
18641TIP3    H277415   3.828   4.233  11.425  0.1120 -0.0134  0.2214
18642TIP3   OH277416   5.754   0.007   5.544 -0.2729 -0.1884 -0.1399
18642TIP3    H177417   5.712  -0.016   5.627 -0.6014  1.2869  0.1213
18642TIP3    H277418   5.748  -0.073   5.491 -0.9816 -0.8251  0.8704
18643TIP3   OH277419   3.113   0.499  14.073  0.3586  0.1635  0.2132
18643TIP3    H177420   3.173   0.568  14.045 -0.2824 -0.1008 -1.9646
18643TIP3    H277421   3.045   0.546  14.123  0.7166  0.8829  0.0414
18644TIP3   OH277422   6.191   2.985  14.820  0.4752  0.2891 -0.1879
18644TIP3    H177423   6.239   3.043  14.879  0.1754 -0.3588  0.7215
18644TIP3    H277424   6.201   2.898  14.860  0.8925 -0.2908 -1.4922
18645TIP3   OH277425   6.562   2.638   0.521 -0.0674 -0.3322  0.3878
18645TIP3    H177426   6.511   2.706   0.565  0.4396  0.0735  0.3691
18645TIP3    H277427   6.503   2.563   0.514 -2.1254  1.3297 -3.1424
18646TIP3   OH277428   2.096   0.579   1.302 -0.1885  0.4235 -0.6387
18646TIP3    H177429   2.107   0.666   1.340 -0.0683  0.9943 -1.9098
18646TIP3    H277430   2.070   0.596   1.211 -0.3303 -0.8719 -0.8617
18647TIP3   OH277431   0.386   2.683   0.972 -0.1470 -0.2401 -0.5189
18647TIP3    H177432   0.393   2.589   0.956 -0.0705 -0.1326 -1.1486
18647TIP3    H277433   0.346   2.690   1.059 -1.0772 -0.8559 -0.8773
18648TIP3   OH277434   6.190   6.076  17.242  1.0426 -0.4207  0.4933
18648TIP3    H177435   6.223   6.143  17.182 -0.1670 -0.7470 -0.5986
18648TIP3    H277436   6.257   6.069  17.310  1.8826  0.8364 -0.1615
18649TIP3   OH277437   0.385   5.327   1.988  0.3742  0.4703  0.2399
18649TIP3    H177438   0.346   5.245   1.959  1.8736 -0.2018  0.0510
18649TIP3    H277439   0.477   5.306   2.003  0.5091  1.8022  1.4799
18650TIP3   OH277440   1.388   2.612  15.371  0.3461  0.5310 -0.0720
18650TIP3    H177441   1.315   2.675  15.372  1.5476  1.9933 -0.4309
18650TIP3    H277442   1.354   2.536  15.417 -0.8406  1.8522  1.3760
18651TIP3   OH277443   4.671   4.544  13.631  0.4179  0.3275  0.3777
18651TIP3    H177444   4.664   4.540  13.726  1.8121 -1.8766  0.4587
18651TIP3    H277445   4.608   4.480  13.599  0.5516  0.4502 -0.1447
18652TIP3   OH277446   5.065   1.236   1.852 -0.1312  0.4401 -0.1839
18652TIP3    H177447   5.006   1.230   1.777 -2.2101  0.4526  1.3424
18652TIP3    H277448   5.111   1.319   1.840  0.1368  0.0801 -1.8010
18653TIP3   OH277449   4.285   2.633   1.710 -0.4100 -0.3615  0.3802
18653TIP3    H177450   4.222   2.561   1.706  0.1897 -0.8334 -1.5499
18653TIP3    H277451   4.370   2.591   1.694 -0.0137  0.7081 -0.4027
18654TIP3   OH277452   4.709   0.999  11.501  0.0001  0.0412  0.4152
18654TIP3    H177453   4.711   0.965  11.590  1.5702  1.4190  0.9585
18654TIP3    H277454   4.651   0.939  11.454 -0.0146 -1.3480  2.0933
18655TIP3   OH277455   0.754   3.454   6.282  0.7598  0.1515 -0.5103
18655TIP3    H177456   0.823   3.448   6.348  1.6778  0.6978 -1.3930
18655TIP3    H277457   0.736   3.548   6.275 -0.5349 -0.0320  0.1596
18656TIP3   OH277458   2.955   1.076   4.681  0.7152  0.0741  0.3059
18656TIP3    H177459   3.048   1.052   4.684  0.7838  0.3168  0.0832
18656TIP3    H277460   2.911   0.993   4.659  1.0758  0.3874 -1.9177
18657TIP3   OH277461   0.625   1.580  11.845  0.3341  0.1286 -0.1037
18657TIP3    H177462   0.710   1.553  11.882  0.1821 -3.5693 -1.9696
18657TIP3    H277463   0.647   1.651  11.785  1.6185  1.1750  1.5023
18658TIP3   OH277464   2.246   0.496   2.232  0.2285 -0.7627  0.6596
18658TIP3    H177465   2.337   0.492   2.261  0.0648 -0.5539  1.2099
18658TIP3    H277466   2.220   0.587   2.248 -0.5487 -1.1869  1.9645
18659TIP3   OH277467   6.310   1.456  11.104  0.3043 -0.1530 -0.5512
18659TIP3    H177468   6.380   1.402  11.141  0.6308  1.2911  1.0911
18659TIP3    H277469   6.331   1.463  11.011  3.0002  1.1080  0.0581
18660TIP3   OH277470   3.962   5.809  16.260 -0.5438  0.2202  0.0968
18660TIP3    H177471   4.030   5.768  16.207 -1.3682 -0.8682 -0.1474
18660TIP3    H277472   3.890   5.746  16.260 -1.0179  0.7197  1.5264
18661TIP3   OH277473   4.135   0.417   3.122  0.2344  0.3898  0.0636
18661TIP3    H177474   4.123   0.322   3.115 -1.6958  0.5683  0.2399
18661TIP3    H277475   4.228   0.431   3.105  0.5498 -1.5189 -0.0417
18662TIP3   OH277476   1.154   2.622  13.710 -0.6460  0.0244  0.1529
18662TIP3    H177477   1.215   2.622  13.636 -0.8328  2.6717 -0.0967
18662TIP3    H277478   1.204   2.584  13.783 -0.2160 -1.9237 -1.0714
18663TIP3   OH277479   4.760   4.384  11.996  0.2694 -0.1193 -0.1098
18663TIP3    H177480   4.752   4.455  11.932 -1.3417  1.2631  1.5141
18663TIP3    H277481   4.844   4.400  12.039  0.5909 -0.0766 -0.7434
18664TIP3   OH277482   1.416   2.723  17.163  0.3778 -0.2543  0.4360
18664TIP3    H177483   1.377   2.692  17.245 -0.5363  0.1916  0.1888
18664TIP3    H277484   1.431   2.644  17.111 -1.9594 -0.3386 -0.2082
18665TIP3   OH277485   1.433   0.872  12.028  0.1628 -0.2133 -0.2197
18665TIP3    H177486   1.450   0.783  11.996 -1.9650 -0.7915  0.0911
18665TIP3    H277487   1.356   0.901  11.979  1.4580  1.9488 -1.1246
18666TIP3   OH277488   4.113   2.970  13.371  0.7440  0.1633 -0.2862
18666TIP3    H177489   4.080   2.921  13.295  0.9315 -0.3959 -0.0092
18666TIP3    H277490   4.034   3.001  13.416  0.6246  0.1065 -0.4549
18667TIP3   OH277491   0.116   4.159  16.882 -0.0623 -0.6743 -0.1565
18667TIP3    H177492   0.161   4.241  16.858  1.1761 -0.7988  1.5777
18667TIP3    H277493   0.154   4.094  16.823 -0.9713 -0.0544 -1.4715
18668TIP3   OH277494   2.425   4.660  15.350 -0.4217  0.0703 -0.2444
18668TIP3    H177495   2.460   4.702  15.428 -1.3620 -0.4089  0.4611
18668TIP3    H277496   2.332   4.685  15.350 -0.0608  1.6739 -2.2909
18669TIP3   OH277497   5.078   6.575  14.982 -0.0362 -0.8255 -0.5786
18669TIP3    H177498   4.990   6.577  15.019 -0.9651 -0.2484 -2.7017
18669TIP3    H277499   5.078   6.643  14.915  1.9908 -0.9330 -0.7570
18670TIP3   OH277500   0.824   5.855  11.765  0.9467  0.3904 -0.0284
18670TIP3    H177501   0.793   5.773  11.725 -2.7923  2.0990 -1.1074
18670TIP3    H277502   0.797   5.849  11.857  2.3969 -0.2854  0.3833
18671TIP3   OH277503   3.116   4.541   4.376 -0.1286  0.3333  0.6052
18671TIP3    H177504   3.071   4.485   4.439  0.0468 -1.4728 -0.7857
18671TIP3    H277505   3.056   4.614   4.361  0.3729  1.5501  3.7532
18672TIP3   OH277506   1.356   2.265   1.423 -0.4557  0.4055 -0.0578
18672TIP3    H177507   1.338   2.360   1.425  0.3888  0.5733 -0.1510
18672TIP3    H277508   1.312   2.234   1.344 -0.9761  0.6632  0.1221
18673TIP3   OH277509   0.935   4.928  15.060 -0.1123 -0.3335 -0.2031
18673TIP3    H177510   1.002   4.996  15.051 -0.2427 -0.3522 -1.4661
18673TIP3    H277511   0.945   4.873  14.982  0.1845 -1.9672  0.9496
18674TIP3   OH277512   5.829   4.519   0.946 -0.0147 -0.5608 -0.3290
18674TIP3    H177513   5.761   4.515   1.013 -2.1929 -0.3370 -2.4087
18674TIP3    H277514   5.870   4.605   0.960 -2.2216  0.6531 -0.8544
18675TIP3   OH277515   3.486   0.228   3.190  0.1151  0.4020 -0.5986
18675TIP3    H177516   3.473   0.256   3.099  0.3095  0.0726 -0.7290
18675TIP3    H277517   3.537   0.299   3.229 -0.0041  0.5647 -0.7327
18676TIP3   OH277518   4.442   4.909   1.263  0.3380 -0.2301 -0.0081
18676TIP3    H177519   4.455   4.838   1.201  0.6294  0.0825 -0.3099
18676TIP3    H277520   4.481   4.878   1.344  0.6277 -0.3403 -0.1882
18677TIP3   OH277521   5.883   0.626   2.905  0.2827  0.0267  0.2451
18677TIP3    H177522   5.977   0.614   2.894 -0.0242 -1.4256 -1.1600
18677TIP3    H277523   5.863   0.705   2.854  0.7228  0.3858  0.6118
18678TIP3   OH277524   4.924   4.771  15.986 -0.1779  0.3675 -0.5005
18678TIP3    H177525   4.835   4.743  15.965 -0.3605  0.0841  0.5963
18678TIP3    H277526   4.975   4.690  15.989 -0.5369  0.1601  1.8703
18679TIP3   OH277527   5.099   2.830   0.137 -0.0076  0.2278  0.5236
18679TIP3    H177528   5.113   2.912   0.089  3.8202  0.0821  1.0836
18679TIP3    H277529   5.172   2.774   0.111 -1.4840 -2.3877  1.5608
18680TIP3   OH277530   3.112   5.074   2.875 -0.6945  0.0810 -0.1548
18680TIP3    H177531   3.091   5.144   2.813 -1.8468 -1.9576 -2.2297
18680TIP3    H277532   3.033   5.020   2.878 -0.2487 -0.5422  2.2730
18681TIP3   OH277533   2.706   3.430   1.556 -0.5700 -0.4902 -0.0356
18681TIP3    H177534   2.635   3.457   1.498  0.5615 -2.8198 -2.7077
18681TIP3    H277535   2.680   3.343   1.587 -1.5600  0.9798  3.9339
18682TIP3   OH277536   6.310   2.064   2.520 -0.0816 -0.1855 -0.4277
18682TIP3    H177537   6.286   1.988   2.574 -0.9595  0.2707 -0.1494
18682TIP3    H277538   6.309   2.031   2.430  0.6194 -0.7668 -0.2282
18683TIP3   OH277539   0.140   3.803   4.973 -0.2576  0.3438 -0.1740
18683TIP3    H177540   0.142   3.848   4.888  0.1454  0.4140 -0.1319
18683TIP3    H277541   0.106   3.869   5.034 -0.3627  0.3554 -0.2443
18684TIP3   OH277542   3.387   4.612  12.782  0.2372  0.3210  0.0417
18684TIP3    H177543   3.419   4.529  12.817 -0.7563 -0.4143 -0.7300
18684TIP3    H277544   3.327   4.644  12.849  0.4559  0.3024  0.2469
18685TIP3   OH277545   3.193   4.877  15.482 -0.3206 -0.0278 -0.5030
18685TIP3    H177546   3.100   4.852  15.488 -0.7050  1.2332 -0.9039
18685TIP3    H277547   3.195   4.968  15.513  1.1528 -0.7311  1.6747
18686TIP3   OH277548   5.898   4.202  12.048  0.1160 -0.0738  0.3261
18686TIP3    H177549   5.825   4.141  12.043  1.0236 -1.1296 -4.2375
18686TIP3    H277550   5.973   4.147  12.074  0.0403  0.2562  1.3058
18687TIP3   OH277551   5.613   2.442   1.766 -0.8449 -0.3993 -0.2193
18687TIP3    H177552   5.697   2.412   1.731 -0.5338 -0.8831  0.9063
18687TIP3    H277553   5.607   2.402   1.853 -0.6075  2.4846  1.2328
18688TIP3   OH277554   3.065   4.399  12.165 -0.5890  0.0205 -0.1431
18688TIP3    H177555   3.032   4.384  12.077 -2.1852  2.7581 -0.1081
18688TIP3    H277556   2.987   4.403  12.220  0.3740 -1.8523  1.5230
18689TIP3   OH277557   2.016   4.689   0.589 -0.3678  0.2308 -0.1558
18689TIP3    H177558   1.960   4.758   0.625 -0.4022  0.3531 -0.4381
18689TIP3    H277559   2.056   4.730   0.512 -0.2564 -0.0104 -0.2246
18690TIP3   OH277560   6.603   0.138  11.880 -0.2782  0.1719 -0.3415
18690TIP3    H177561   6.673   0.182  11.832 -0.2957  1.3459  0.6521
18690TIP3    H277562   6.530   0.200  11.879 -0.7567 -0.3697 -0.0025
18691TIP3   OH277563   1.290   4.660   2.509 -0.0524  0.0352  0.1975
18691TIP3    H177564   1.354   4.707   2.455  0.4794 -1.0953 -0.1813
18691TIP3    H277565   1.305   4.568   2.489 -2.9202 -0.2381 -1.2209
18692TIP3   OH277566   6.687   6.014   1.429 -0.0930 -0.1597 -0.1859
18692TIP3    H177567   6.653   5.927   1.451 -1.7675  0.1150 -1.4453
18692TIP3    H277568   6.654   6.071   1.499 -1.4605 -0.0875 -0.8413
18693TIP3   OH277569   3.620   3.351   1.319 -0.1316 -0.0530 -0.3741
18693TIP3    H177570   3.535   3.310   1.334 -0.7799  1.0572 -0.8618
18693TIP3    H277571   3.677   3.312   1.385 -0.6982 -1.6972 -0.8128
18694TIP3   OH277572   0.051   4.930   0.918  0.2745  0.5417 -0.4212
18694TIP3    H177573  -0.019   4.986   0.886 -1.7682 -0.9033  1.2668
18694TIP3    H277574   0.084   4.974   0.996 -1.1495 -0.3620  0.7504
18695TIP3   OH277575   6.318   4.356   3.163 -0.0058 -0.2098  0.0686
18695TIP3    H177576   6.238   4.323   3.122 -1.9360 -0.0077  3.3678
18695TIP3    H277577   6.321   4.313   3.248  1.7955  2.0225  1.2321
18696TIP3   OH277578   3.320   5.119  15.287 -0.4334  0.3183  0.7741
18696TIP3    H177579   3.381   5.112  15.213 -0.4466  1.2908  0.6574
18696TIP3    H277580   3.374   5.106  15.364 -0.7963 -3.2408  0.6016
18697TIP3   OH277581   5.245   6.628   5.123  0.1511  0.2410  0.0729
18697TIP3    H177582   5.309   6.689   5.085 -2.7628  2.4949 -1.6869
18697TIP3    H277583   5.210   6.674   5.199  1.0589 -1.2969  1.4841
18698TIP3   OH277584   4.813   4.630   2.417  0.4027 -0.0034 -0.2762
18698TIP3    H177585   4.750   4.625   2.344  0.0207 -0.6817  0.0933
18698TIP3    H277586   4.857   4.545   2.417  1.4738  0.5333 -0.6510
18699TIP3   OH277587   6.001   6.579  14.046 -0.0424 -0.1690  0.0617
18699TIP3    H177588   5.987   6.560  14.139  0.7576 -0.0977  0.2036
18699TIP3    H277589   5.997   6.494  14.004  1.3503 -0.4247  0.4065
18700TIP3   OH277590   2.523   0.473   6.417  0.7151 -0.0641  0.5040
18700TIP3    H177591   2.563   0.504   6.498 -1.3056 -1.2461  2.0561
18700TIP3    H277592   2.497   0.383   6.436 -1.7884  0.3305 -0.6717
18701TIP3   OH277593   6.566   0.428  16.808 -0.1339 -0.1228  0.2856
18701TIP3    H177594   6.636   0.483  16.845 -0.7365  1.5223 -0.8910
18701TIP3    H277595   6.488   0.451  16.859 -0.5729  0.8132 -0.7592
18702TIP3   OH277596   2.809   6.051  12.945 -0.1855  0.0458 -0.6938
18702TIP3    H177597   2.768   6.006  12.871 -0.1026 -0.0138 -0.7042
18702TIP3    H277598   2.763   6.134  12.952 -0.0101  0.1714 -0.9905
18703TIP3   OH277599   5.388   3.718   1.143  0.0431 -0.0409  0.0490
18703TIP3    H177600   5.427   3.743   1.226  1.4207 -0.8230 -0.3253
18703TIP3    H277601   5.324   3.786   1.125 -1.2793 -0.5799  2.3917
18704TIP3   OH277602   0.574   5.978   1.909 -0.2188 -0.2366 -0.3995
18704TIP3    H177603   0.643   6.032   1.872 -0.1766 -0.0352 -0.0329
18704TIP3    H277604   0.609   5.946   1.992 -0.9872  0.8050  0.3511
18705TIP3   OH277605   1.819   6.335  15.594 -1.0611 -0.6747 -0.4957
18705TIP3    H177606   1.797   6.248  15.560 -2.7915 -0.6901  0.5631
18705TIP3    H277607   1.883   6.317  15.664 -0.6472 -1.0004 -0.9511
18706TIP3   OH277608   0.505   1.708   1.834 -0.9755 -0.4280 -0.2610
18706TIP3    H177609   0.508   1.731   1.926  0.0283  0.0210 -0.3980
18706TIP3    H277610   0.480   1.615   1.833  0.1579 -0.7550  0.5130
18707TIP3   OH277611   1.571   5.110   5.864  0.3242 -0.8449  0.9004
18707TIP3    H177612   1.481   5.110   5.896 -0.5283 -0.3667 -1.2905
18707TIP3    H277613   1.564   5.085   5.772  2.4531 -0.8317  0.6700
18708TIP3   OH277614   5.157   4.950   5.319  0.1361 -0.4350  0.4249
18708TIP3    H177615   5.146   4.985   5.230 -0.2575  1.2400  1.1009
18708TIP3    H277616   5.243   4.908   5.318 -0.0642 -0.8617 -0.8662
18709TIP3   OH277617   0.662   5.919   4.983 -0.4166  0.2369 -0.2054
18709TIP3    H177618   0.609   5.992   4.950 -1.3629 -0.4134 -0.1418
18709TIP3    H277619   0.736   5.913   4.922 -0.2202  1.3582 -0.1065
18710TIP3   OH277620   0.288   4.271  15.280  0.1601  0.1170  0.4337
18710TIP3    H177621   0.353   4.327  15.237  0.3460  0.7285  1.4788
18710TIP3    H277622   0.325   4.252  15.366  0.3294 -2.0667 -0.0613
18711TIP3   OH277623   0.513   5.674   1.847  0.3174  0.1340  0.2861
18711TIP3    H177624   0.448   5.624   1.798 -0.5207  0.9251  0.5666
18711TIP3    H277625   0.504   5.764   1.813  0.9342  0.3398  0.6583
18712TIP3   OH277626   1.344   0.103  16.137 -0.5057  0.5081 -0.0500
18712TIP3    H177627   1.376   0.157  16.209  0.9015  0.9352 -0.9340
18712TIP3    H277628   1.402   0.027  16.137  1.1455  1.6426 -2.1490
18713TIP3   OH277629   5.674   4.911  12.393  0.7998  0.2419 -0.8413
18713TIP3    H177630   5.650   4.891  12.303 -1.2457  0.7635 -0.4726
18713TIP3    H277631   5.622   4.989  12.415  0.5048 -0.4345  1.0681
18714TIP3   OH277632   6.206   0.426  15.938  0.3903 -0.0187 -0.2803
18714TIP3    H177633   6.146   0.489  15.898  0.0185 -0.4035 -0.3395
18714TIP3    H277634   6.157   0.344  15.938  0.5529 -0.1267  0.5494
18715TIP3   OH277635   1.698   5.397   6.424 -0.0149  0.2424 -0.0801
18715TIP3    H177636   1.717   5.336   6.353 -4.9544  0.5439 -2.1147
18715TIP3    H277637   1.643   5.347   6.484 -0.8304  1.5680  0.3181
18716TIP3   OH277638   5.978   5.902  15.655 -0.2465  0.0358 -0.2149
18716TIP3    H177639   5.967   5.816  15.615 -0.6197 -0.3981  0.7801
18716TIP3    H277640   6.073   5.913  15.664 -0.1401  0.3482 -1.6350
18717TIP3   OH277641   5.007   6.126   0.961 -0.8842  0.3270  0.2177
18717TIP3    H177642   5.061   6.204   0.975  1.8393 -1.5552  1.0195
18717TIP3    H277643   4.957   6.116   1.042  0.1722  0.2308  0.8751
18718TIP3   OH277644   3.695   5.857   2.804  0.2611  0.7272 -0.2129
18718TIP3    H177645   3.711   5.796   2.875  0.2979  1.2142  0.1996
18718TIP3    H277646   3.729   5.813   2.726 -1.0432 -0.4170 -0.1730
18719TIP3   OH277647   3.992   4.795  13.118  0.1657 -0.1878 -0.5391
18719TIP3    H177648   4.042   4.822  13.195 -0.3092 -0.9576  0.0540
18719TIP3    H277649   3.917   4.747  13.153  0.7228 -1.8595 -1.5060
18720TIP3   OH277650   3.581   3.995   3.860  0.4156 -0.3092  0.4679
18720TIP3    H177651   3.657   3.941   3.882  0.7294 -0.0605  0.0248
18720TIP3    H277652   3.614   4.056   3.795  0.0575  0.4083  0.9524
18721TIP3   OH277653   0.414   0.465  13.855  0.5761 -0.3119  0.0975
18721TIP3    H177654   0.491   0.521  13.853  0.1411  0.2889 -0.1286
18721TIP3    H277655   0.357   0.499  13.786  0.4025 -1.1787 -0.2054
18722TIP3   OH277656   0.675   4.578  12.162 -0.1475  0.1857 -0.1329
18722TIP3    H177657   0.590   4.536  12.147 -0.2159  0.6983 -1.3075
18722TIP3    H277658   0.702   4.608  12.076  0.4427  1.5286  0.4953
18723TIP3   OH277659   2.155   4.731   5.798  0.6645 -0.0312 -0.0122
18723TIP3    H177660   2.155   4.688   5.712 -0.4405  0.9945 -0.5538
18723TIP3    H277661   2.247   4.753   5.813  0.8949 -0.3416 -0.8806
18724TIP3   OH277662   0.663   3.285   0.486 -0.3290 -0.2148  0.4948
18724TIP3    H177663   0.616   3.363   0.454  0.7745  0.0956 -0.4140
18724TIP3    H277664   0.667   3.298   0.581  0.0803  0.9942  0.3356
18725TIP3   OH277665   2.215   3.936   0.475  0.6168  0.3387 -0.5426
18725TIP3    H177666   2.292   3.945   0.533  1.7021  2.1543 -2.1513
18725TIP3    H277667   2.162   4.014   0.494  0.5224  0.4677 -1.3199
18726TIP3   OH277668   0.963   5.452   0.443 -0.5455  0.4315 -0.3099
18726TIP3    H177669   0.997   5.522   0.388 -0.2554  0.6267  0.1158
18726TIP3    H277670   0.868   5.465   0.443 -0.4445  1.2167  0.2878
18727TIP3   OH277671   5.284   0.102   4.358 -0.2289  0.3162 -0.1832
18727TIP3    H177672   5.361   0.145   4.393  0.1580 -0.7372  0.2972
18727TIP3    H277673   5.317   0.049   4.285 -0.4180 -0.4918  0.3111
18728TIP3   OH277674   1.200   2.912  14.393  0.4556  0.6019 -0.3730
18728TIP3    H177675   1.147   2.988  14.370 -0.6364  0.4931  1.5827
18728TIP3    H277676   1.272   2.947  14.445  2.2157  0.7042 -2.7151
18729TIP3   OH277677   3.881   1.961   3.305  0.4997 -0.6012 -0.5223
18729TIP3    H177678   3.836   1.917   3.233 -2.5497 -0.0482  0.8736
18729TIP3    H277679   3.842   1.923   3.384  3.0558 -0.5395  0.8816
18730TIP3   OH277680   4.863   2.086  12.805  0.6848  0.3877 -0.1394
18730TIP3    H177681   4.822   2.006  12.773 -1.6345  1.7308 -0.8047
18730TIP3    H277682   4.863   2.076  12.901 -0.3803 -0.0848 -0.1689
18731TIP3   OH277683   2.647   3.082   0.411 -0.1872  0.0681  0.2532
18731TIP3    H177684   2.554   3.095   0.395  0.1189 -0.8990 -3.0411
18731TIP3    H277685   2.681   3.171   0.425 -1.6127  0.3854  2.0982
18732TIP3   OH277686   5.336   4.053   5.588 -0.4362  0.4043  0.5169
18732TIP3    H177687   5.352   4.133   5.638 -2.5606  1.2943 -0.0956
18732TIP3    H277688   5.250   4.067   5.547 -0.4680 -1.8347 -0.3391
18733TIP3   OH277689   3.278   3.555  14.485  0.1130 -0.6599  0.3941
18733TIP3    H177690   3.263   3.563  14.579 -1.0634  0.8026  0.1135
18733TIP3    H277691   3.332   3.631  14.463  0.0702 -0.7899 -0.1735
18734TIP3   OH277692   6.667   3.620   1.949 -0.2286 -0.2909  0.8730
18734TIP3    H177693   6.686   3.634   2.042 -0.6770 -1.3612  1.1487
18734TIP3    H277694   6.732   3.673   1.903 -0.0392  0.3057  1.7940
18735TIP3   OH277695   2.280   2.430   4.736 -0.2978  0.1542  0.4225
18735TIP3    H177696   2.205   2.412   4.794 -0.0159 -1.8978  0.2090
18735TIP3    H277697   2.355   2.428   4.795  0.0535 -2.5219 -0.0304
18736TIP3   OH277698   5.670   1.714   0.116  0.0477  0.0492  0.2243
18736TIP3    H177699   5.619   1.775   0.169  0.0729  0.2603  0.0089
18736TIP3    H277700   5.658   1.630   0.159  1.2170  0.4478  1.3808
18737TIP3   OH277701   3.603   5.459   3.376  0.1105  0.1095 -0.1615
18737TIP3    H177702   3.660   5.442   3.451  0.5559 -0.0311 -0.5262
18737TIP3    H277703   3.573   5.549   3.389 -0.7024 -0.2790  0.7586
18738TIP3   OH277704   2.638   1.201  13.024  0.3796 -0.0027  0.7597
18738TIP3    H177705   2.548   1.168  13.022  0.3051  0.0697 -2.5034
18738TIP3    H277706   2.629   1.295  13.006  1.0873  0.0028  0.4130
18739TIP3   OH277707   0.175   6.084  11.745  0.2245 -0.3389 -0.1835
18739TIP3    H177708   0.240   6.022  11.712  0.4472 -0.8146  1.0647
18739TIP3    H277709   0.095   6.031  11.755 -0.2024  0.1096 -1.1866
18740TIP3   OH277710   6.765   4.757  16.981 -0.0442  0.2330 -0.1279
18740TIP3    H177711   6.789   4.679  17.030 -1.3814 -1.3100 -1.8053
18740TIP3    H277712   6.831   4.765  16.913  0.5033  1.0443  0.4666
18741TIP3   OH277713   3.450   4.275  11.530 -0.5208 -0.0147  0.0821
18741TIP3    H177714   3.411   4.299  11.446 -0.5616  1.8035  0.5800
18741TIP3    H277715   3.389   4.309  11.596 -1.4833 -3.0900  0.9243
18742TIP3   OH277716   4.440   5.728  11.626 -0.0386 -0.0819  0.2335
18742TIP3    H177717   4.477   5.763  11.707 -1.0049  1.5782  0.0152
18742TIP3    H277718   4.347   5.718  11.645  0.1293 -2.3551  0.1657
18743TIP3   OH277719   1.470   1.578   4.185  0.4274 -0.0457  0.5751
18743TIP3    H177720   1.451   1.667   4.157  0.9804 -0.0717  0.1024
18743TIP3    H277721   1.555   1.558   4.147  0.4184 -0.6930  0.8728
18744TIP3   OH277722   1.889   2.629  13.805 -0.3775  0.3707  0.2388
18744TIP3    H177723   1.804   2.661  13.835 -0.6667 -0.0439 -0.1292
18744TIP3    H277724   1.868   2.573  13.730  0.2413  0.4867 -0.0219
18745TIP3   OH277725   2.972   4.200   5.880 -0.5420  0.6848  0.0054
18745TIP3    H177726   2.972   4.162   5.968  0.1351  2.9807  1.0769
18745TIP3    H277727   2.885   4.237   5.870 -0.9970 -0.5371 -0.7891
18746TIP3   OH277728   2.271   0.714   3.630  0.2569  0.6621 -0.3151
18746TIP3    H177729   2.292   0.754   3.714  1.6643 -0.8583  0.1002
18746TIP3    H277730   2.345   0.738   3.573  0.3018  0.0333 -0.5272
18747TIP3   OH277731   5.769   3.848  15.141 -0.1371 -0.1107  0.1004
18747TIP3    H177732   5.711   3.923  15.154 -1.0346 -0.8990  0.7540
18747TIP3    H277733   5.754   3.793  15.218  2.1491  0.0919  0.7720
18748TIP3   OH277734   2.925   6.817  16.031  0.7344 -0.6438 -0.2220
18748TIP3    H177735   2.866   6.834  15.957  1.2315 -0.3969 -0.5719
18748TIP3    H277736   2.880   6.751  16.083 -0.4015  0.4128  0.1672
18749TIP3   OH277737   1.601   0.114   5.443  0.2307  0.1685  0.0072
18749TIP3    H177738   1.685   0.108   5.397 -0.7807  2.5910 -2.4235
18749TIP3    H277739   1.614   0.181   5.509  0.3927  0.0641  0.0806
18750TIP3   OH277740   3.599   2.493  16.286  0.6527 -0.0792  0.2108
18750TIP3    H177741   3.667   2.529  16.228  1.8421 -0.0230  1.5939
18750TIP3    H277742   3.585   2.561  16.352  1.1372 -1.1208  1.4177
18751TIP3   OH277743   6.172   1.374  13.237 -0.5743 -0.3438  0.3648
18751TIP3    H177744   6.238   1.396  13.303 -1.0045 -1.8102  1.3345
18751TIP3    H277745   6.198   1.423  13.159  2.4240 -1.8439  0.2999
18752TIP3   OH277746   0.228   1.303   4.643 -0.1365  0.5544 -0.5021
18752TIP3    H177747   0.136   1.326   4.653 -0.4808 -0.3411 -1.4979
18752TIP3    H277748   0.275   1.370   4.693 -1.3276  0.9209  0.1562
18753TIP3   OH277749   0.281   0.634  10.959 -0.8792 -0.1582 -0.2380
18753TIP3    H177750   0.195   0.598  10.935 -1.9612  1.8725  0.3983
18753TIP3    H277751   0.275   0.727  10.938  1.0597  0.1139  0.1987
18754TIP3   OH277752   2.716   2.966  11.779 -0.1292  0.4652  0.0662
18754TIP3    H177753   2.633   2.922  11.796 -0.2921  1.0452  0.8329
18754TIP3    H277754   2.760   2.911  11.715 -0.3642 -0.7512  0.9270
18755TIP3   OH277755   3.718   4.899  10.534  0.7395  0.3358 -0.2027
18755TIP3    H177756   3.742   4.981  10.492  0.5081 -0.4893 -2.0446
18755TIP3    H277757   3.722   4.918  10.628 -1.1016  2.9397 -0.5613
18756TIP3   OH277758   1.119   5.620   2.983 -0.3379  0.2424  0.5705
18756TIP3    H177759   1.094   5.651   3.071 -0.4647 -0.6264  0.8486
18756TIP3    H277760   1.044   5.640   2.928 -0.6486 -0.0894  0.8720
18757TIP3   OH277761   6.481   1.178  16.862 -0.0312 -0.3607  0.3913
18757TIP3    H177762   6.537   1.256  16.856 -1.1779  0.5385  1.0748
18757TIP3    H277763   6.463   1.155  16.771  0.8868 -0.2679  0.1711
18758TIP3   OH277764   6.117   3.908   1.088 -0.4805 -0.0018  0.7673
18758TIP3    H177765   6.067   3.989   1.085  0.1706  0.4199  1.2334
18758TIP3    H277766   6.081   3.860   1.162 -0.5036  0.0907  0.8151
18759TIP3   OH277767   4.088   3.510  15.652  0.1122  0.2996 -0.3032
18759TIP3    H177768   3.993   3.503  15.667  0.2066 -0.7619 -0.1644
18759TIP3    H277769   4.095   3.562  15.572 -0.6399 -0.7408 -1.0638
18760TIP3   OH277770   6.385   1.886  15.876 -0.1064 -0.2085  0.3230
18760TIP3    H177771   6.355   1.819  15.938  0.6045 -0.5024  0.3655
18760TIP3    H277772   6.317   1.889  15.809 -0.5849 -0.3294  0.7928
18761TIP3   OH277773   4.799   2.479  12.000  0.0928  0.0533  0.0982
18761TIP3    H177774   4.806   2.444  11.911 -0.2147  0.5330 -0.1215
18761TIP3    H277775   4.826   2.570  11.992  1.8826 -0.3598  0.8490
18762TIP3   OH277776   6.243   4.699   5.745  0.3088  0.1100  0.1327
18762TIP3    H177777   6.231   4.617   5.793  0.9103 -0.5413 -0.8020
18762TIP3    H277778   6.154   4.732   5.732 -0.0450 -1.0109 -0.4940
18763TIP3   OH277779   5.624   3.621  15.792 -0.2505  0.0640  0.3559
18763TIP3    H177780   5.562   3.664  15.733 -1.0761  0.3350  1.4068
18763TIP3    H277781   5.570   3.559  15.842  0.5377 -0.5555  0.4585
18764TIP3   OH277782   4.630   2.620  14.300  0.4782  0.0482  0.1038
18764TIP3    H177783   4.538   2.632  14.279  0.6791 -1.3217 -1.9268
18764TIP3    H277784   4.631   2.558  14.373 -0.2310 -0.2074 -0.0938
18765TIP3   OH277785   4.847   3.338  13.659 -0.4409  0.7694 -0.1904
18765TIP3    H177786   4.755   3.321  13.638 -0.6253 -2.4952  2.4266
18765TIP3    H277787   4.895   3.271  13.611  0.8073  2.9674 -2.2150
18766TIP3   OH277788   1.302   3.671  14.763  0.1042  0.0196  0.2159
18766TIP3    H177789   1.299   3.578  14.782 -1.9112 -0.2162 -0.9382
18766TIP3    H277790   1.248   3.682  14.684  1.1567  2.0212 -0.3145
18767TIP3   OH277791   1.297   2.858  11.844  0.0978 -0.1970 -0.2092
18767TIP3    H177792   1.205   2.886  11.840 -0.7997 -2.9200 -0.5886
18767TIP3    H277793   1.323   2.871  11.935 -1.2253 -0.9511  0.2958
18768TIP3   OH277794   0.374   3.878   2.780  0.6297 -0.3963  0.1041
18768TIP3    H177795   0.370   3.873   2.684 -1.5563  1.8427 -0.0426
18768TIP3    H277796   0.461   3.914   2.799  0.4670  0.7732 -1.2003
18769TIP3   OH277797   3.596   2.205   1.771  0.0652  0.2460 -0.1750
18769TIP3    H177798   3.673   2.157   1.804  1.4535  2.6122  0.2333
18769TIP3    H277799   3.615   2.296   1.791 -1.8028  1.1444 -2.2213
18770TIP3   OH277800   2.547   4.904  11.076 -0.7619  0.7214  0.2463
18770TIP3    H177801   2.536   4.854  11.156  1.9215 -0.0547  0.2352
18770TIP3    H277802   2.603   4.978  11.102  3.1490 -1.3764 -1.3686
18771TIP3   OH277803   4.535   6.153  12.644  0.5025  0.1823  0.3224
18771TIP3    H177804   4.523   6.156  12.549 -1.2149  1.1949  0.5220
18771TIP3    H277805   4.623   6.188  12.658  1.6835 -2.0488 -0.9757
18772TIP3   OH277806   4.679   6.439  12.335  0.3439 -0.0945  0.0487
18772TIP3    H177807   4.747   6.381  12.368  1.1993  0.5959 -0.4454
18772TIP3    H277808   4.727   6.515  12.300 -0.5766 -0.2248 -1.5960
18773TIP3   OH277809   2.824   5.449  15.319  0.0559  0.3429  0.1752
18773TIP3    H177810   2.850   5.380  15.258  0.6388 -0.4391  1.2675
18773TIP3    H277811   2.852   5.530  15.277  1.0122 -0.2244 -0.3153
18774TIP3   OH277812   1.249   1.954   5.094  0.3511 -0.2855 -0.1847
18774TIP3    H177813   1.329   1.905   5.114 -0.2811 -1.6969 -1.0227
18774TIP3    H277814   1.244   1.955   4.999 -1.7179 -2.0865 -0.1681
18775TIP3   OH277815   0.235   1.381   2.046  0.1571  0.0614 -0.2143
18775TIP3    H177816   0.179   1.435   2.102  0.7471  0.5049 -0.0398
18775TIP3    H277817   0.177   1.352   1.976 -0.2913  0.5208 -0.0473
18776TIP3   OH277818   0.113   6.258  12.210  0.1120 -0.1950  0.2111
18776TIP3    H177819   0.137   6.283  12.300 -0.8245 -1.1116  0.7449
18776TIP3    H277820   0.017   6.261  12.210  0.1157  0.3165 -0.9288
18777TIP3   OH277821   5.041   2.892  11.333  0.0539  0.3783 -0.3591
18777TIP3    H177822   5.001   2.832  11.271 -0.8775  1.0955 -0.4733
18777TIP3    H277823   5.033   2.848  11.418  1.0694 -0.4729 -0.6880
18778TIP3   OH277824   1.622   3.229   3.575  0.0109 -0.0057  0.1421
18778TIP3    H177825   1.703   3.266   3.542  0.2883 -0.2194  0.5732
18778TIP3    H277826   1.646   3.142   3.607  0.4603  1.2553  3.7149
18779TIP3   OH277827   1.583   1.699  12.397 -0.1991  0.2376  0.2607
18779TIP3    H177828   1.518   1.636  12.428  1.2360 -0.4847  1.9553
18779TIP3    H277829   1.572   1.700  12.302 -1.1152 -1.6228  0.3034
18780TIP3   OH277830   3.015   6.029   2.058  0.0249  0.2171  0.6405
18780TIP3    H177831   3.008   6.093   1.987  2.6140 -0.4562 -0.3449
18780TIP3    H277832   3.029   6.081   2.137  0.1984  0.9143  0.1577
18781TIP3   OH277833   0.235   1.415   3.666  0.2105  0.0318  0.3760
18781TIP3    H177834   0.146   1.428   3.633  0.1107 -0.7632  0.3055
18781TIP3    H277835   0.265   1.502   3.690  0.3351  0.6856 -1.9274
18782TIP3   OH277836   6.762   5.056  11.750  0.4742  0.7679 -0.1947
18782TIP3    H177837   6.717   4.974  11.732 -0.8706  1.2982  0.6230
18782TIP3    H277838   6.708   5.123  11.708  3.0587  1.0908 -3.4441
18783TIP3   OH277839   0.968   5.859   3.829  0.2728 -0.0607  0.4438
18783TIP3    H177840   0.901   5.900   3.775  1.6872 -0.3148 -1.6228
18783TIP3    H277841   1.002   5.930   3.883 -0.0569  0.6034 -0.2074
18784TIP3   OH277842   0.734   4.356   1.949 -0.4023 -0.6606 -0.4650
18784TIP3    H177843   0.658   4.318   1.993  0.0592  0.2717  1.2434
18784TIP3    H277844   0.737   4.446   1.980 -0.5272  0.3467 -3.1432
18785TIP3   OH277845   3.811   5.239   6.470  0.8112 -0.2986 -0.1881
18785TIP3    H177846   3.896   5.248   6.514  0.1979  0.2285  0.9054
18785TIP3    H277847   3.768   5.323   6.483 -1.2998 -1.6443  2.3165
18786TIP3   OH277848   4.708   2.177   5.110  0.7708  0.3121 -0.3274
18786TIP3    H177849   4.755   2.246   5.157 -1.3510  1.4684  0.2114
18786TIP3    H277850   4.673   2.121   5.179 -1.2468  1.2723 -0.4986
18787TIP3   OH277851   3.824   2.931  12.015 -0.2670 -0.1056  0.1211
18787TIP3    H177852   3.873   2.903  11.938  1.1990  2.5837 -0.0417
18787TIP3    H277853   3.888   2.932  12.086 -0.5650  1.3684  0.4103
18788TIP3   OH277854   1.053   2.276  11.860  0.1047 -0.3232  0.0223
18788TIP3    H177855   0.967   2.304  11.891 -0.2997 -1.0699 -0.3906
18788TIP3    H277856   1.107   2.355  11.862 -0.1194 -0.1890  1.8690
18789TIP3   OH277857   0.155   1.665   3.911 -0.1909 -0.3028  0.3090
18789TIP3    H177858   0.213   1.644   3.838 -0.6712 -1.1724  0.1691
18789TIP3    H277859   0.146   1.761   3.908 -0.2136 -0.3288 -0.7674
18790TIP3   OH277860   5.280   6.169  11.506 -0.7239  0.8006  0.2964
18790TIP3    H177861   5.273   6.257  11.542  1.4311  0.6547  1.1923
18790TIP3    H277862   5.314   6.181  11.417  0.1997  0.8457  0.6539
18791TIP3   OH277863   4.012   1.807  12.364 -0.2697  0.1417 -0.2791
18791TIP3    H177864   4.087   1.848  12.321 -1.4563  1.5834 -1.0775
18791TIP3    H277865   4.010   1.718  12.329  0.2536  0.5249 -1.3447
18792TIP3   OH277866   0.935   5.352  13.858  0.2680 -0.3965 -0.2572
18792TIP3    H177867   0.992   5.277  13.874 -0.6796 -0.8238  1.2580
18792TIP3    H277868   0.846   5.317  13.864 -0.1781  0.7213 -0.1620
18793TIP3   OH277869   2.348   2.836  13.559 -0.3290 -0.0284  0.2323
18793TIP3    H177870   2.275   2.796  13.605  0.1451 -1.2553 -0.0407
18793TIP3    H277871   2.321   2.926  13.544 -1.0176  0.0505  1.7639
18794TIP3   OH277872   3.155   6.155  11.621  0.2575 -0.4273  0.6989
18794TIP3    H177873   3.141   6.169  11.528 -0.5500  0.5667  0.9473
18794TIP3    H277874   3.225   6.090  11.626  0.7556 -0.0108 -0.5924
18795TIP3   OH277875   5.652   5.137  11.159  0.1478 -0.2805  0.1675
18795TIP3    H177876   5.622   5.216  11.204  3.1265  1.2645 -0.2828
18795TIP3    H277877   5.628   5.150  11.067 -0.2073 -0.3550  0.2499
18796TIP3   OH277878   0.275   5.549  16.674 -0.6197 -0.3224 -0.0223
18796TIP3    H177879   0.285   5.638  16.708 -2.8790  0.5825 -1.5074
18796TIP3    H277880   0.354   5.503  16.703  1.3162  2.5342 -0.4030
18797TIP3   OH277881   6.006   5.117   1.821  0.2001 -0.1769  0.0400
18797TIP3    H177882   5.931   5.173   1.800  1.0916  0.5291 -1.4822
18797TIP3    H277883   6.047   5.101   1.736  1.8392 -0.4358  0.8546
18798TIP3   OH277884   6.218   2.899   0.456  0.3335  0.3473  0.4216
18798TIP3    H177885   6.192   2.866   0.543 -2.9630  0.5570 -0.3639
18798TIP3    H277886   6.258   2.984   0.474 -0.9832  0.7407  1.7395
18799TIP3   OH277887   3.280   4.590   1.264 -0.0869 -0.3713  0.4576
18799TIP3    H177888   3.237   4.570   1.181 -1.0872  0.3754  0.7625
18799TIP3    H277889   3.295   4.505   1.305 -1.0754 -0.6742  0.2212
18800TIP3   OH277890   2.774   1.869  13.771  0.3062 -0.7252 -0.4350
18800TIP3    H177891   2.759   1.849  13.679 -0.0422  0.6533 -0.6906
18800TIP3    H277892   2.730   1.797  13.818 -1.8968 -0.0381 -1.2969
18801TIP3   OH277893   6.373   5.187   2.187  0.3309  0.0224 -0.0622
18801TIP3    H177894   6.449   5.130   2.178  0.3966 -0.1094  1.1167
18801TIP3    H277895   6.301   5.138   2.147  0.5632 -0.5199  0.1826
18802TIP3   OH277896   0.805   2.350  14.192  0.5256 -0.3825  0.6568
18802TIP3    H177897   0.849   2.434  14.178  0.2787 -0.6341 -2.3449
18802TIP3    H277898   0.730   2.371  14.248  0.0603  1.5840 -0.6016
18803TIP3   OH277899   0.948   4.603  12.200  0.0051 -0.5847  0.5384
18803TIP3    H177900   0.853   4.597  12.191  0.0223  0.3657 -0.5287
18803TIP3    H277901   0.981   4.595  12.110  0.9755 -1.4639  0.9595
18804TIP3   OH277902   1.907   5.324  13.447  0.0807  0.1026  0.1930
18804TIP3    H177903   1.877   5.235  13.463 -0.8654  0.5478  0.9890
18804TIP3    H277904   1.960   5.346  13.524  0.0230  0.3514  0.1614
18805TIP3   OH277905   5.564   0.536  15.257  0.1214 -0.1567 -0.1172
18805TIP3    H177906   5.575   0.524  15.163 -2.7696  1.2199 -0.7499
18805TIP3    H277907   5.512   0.616  15.266 -2.6853 -1.9927  2.3796
18806TIP3   OH277908   3.561   3.208   4.290 -0.1308  0.4361  0.3315
18806TIP3    H177909   3.652   3.185   4.273 -0.5529 -1.0491 -0.0683
18806TIP3    H277910   3.544   3.174   4.378 -0.0823  1.4661  0.7581
18807TIP3   OH277911   2.629   1.124  15.048  0.2583  0.3109 -0.0138
18807TIP3    H177912   2.694   1.060  15.024  0.6885  0.8647 -0.3447
18807TIP3    H277913   2.600   1.162  14.965 -1.2878 -0.6829  0.0317
18808TIP3   OH277914   3.781   6.465   5.279 -0.0404 -0.1708  0.3566
18808TIP3    H177915   3.864   6.432   5.245  0.6649  0.9548  0.9137
18808TIP3    H277916   3.716   6.403   5.249  0.7341  0.0088 -1.8328
18809TIP3   OH277917   2.516   6.039  12.830  0.4913  0.3241  0.1493
18809TIP3    H177918   2.445   5.981  12.856 -0.5951  2.0416  1.2619
18809TIP3    H277919   2.572   5.986  12.774 -0.7577 -1.5782  0.6228
18810TIP3   OH277920   0.044   2.703   3.738  0.0619  0.0956  0.1907
18810TIP3    H177921  -0.034   2.700   3.793  0.1324  0.3854  0.3074
18810TIP3    H277922   0.117   2.708   3.799  0.1205  0.7993  0.0692
18811TIP3   OH277923   6.566   1.553   2.728  0.2855  0.4102 -0.3429
18811TIP3    H177924   6.488   1.498   2.735  1.6830 -1.4509  2.7181
18811TIP3    H277925   6.535   1.642   2.743 -1.3995 -0.1368 -0.4032
18812TIP3   OH277926   2.750   2.139  14.381 -0.5442 -0.3445  0.3830
18812TIP3    H177927   2.815   2.208  14.372 -0.0606 -0.5857  1.7334
18812TIP3    H277928   2.790   2.076  14.441 -1.0295 -1.7390 -0.7011
18813TIP3   OH277929   1.827   4.252  13.154  0.1608 -0.8237  0.2757
18813TIP3    H177930   1.739   4.273  13.185  0.3137 -0.1373  0.2520
18813TIP3    H277931   1.815   4.228  13.062  0.2157  1.0258 -0.2450
18814TIP3   OH277932   6.580   3.039   0.221 -0.1097  0.1991  0.2995
18814TIP3    H177933   6.545   2.953   0.243  2.1829 -0.8311  0.1181
18814TIP3    H277934   6.523   3.100   0.268 -2.7638 -1.2539 -0.8150
18815TIP3   OH277935   2.671   4.230   6.049  0.0410 -0.0626 -0.2210
18815TIP3    H177936   2.659   4.312   6.098 -0.9287 -0.1969 -0.2011
18815TIP3    H277937   2.631   4.248   5.963 -2.0444 -1.1244  0.4505
18816TIP3   OH277938   6.710   5.424  16.428 -0.4204 -0.0654 -0.2408
18816TIP3    H177939   6.711   5.347  16.371  0.7501  1.4702 -2.4181
18816TIP3    H277940   6.773   5.404  16.497  1.1456 -0.4114 -1.7269
18817TIP3   OH277941   3.934   1.806  10.381 -0.0265  0.0658 -0.1152
18817TIP3    H177942   4.007   1.754  10.414 -0.7509 -0.7867  0.1976
18817TIP3    H277943   3.880   1.824  10.458  0.0124  0.9615 -0.2842
18818TIP3   OH277944   5.980   4.289  16.149  0.2266  0.0861 -0.0951
18818TIP3    H177945   5.915   4.231  16.189  0.8020 -0.0684  0.6268
18818TIP3    H277946   5.972   4.271  16.055  1.6262 -2.5283  0.1785
18819TIP3   OH277947   1.640   2.061   1.607 -0.0078  0.5993  0.2692
18819TIP3    H177948   1.603   2.144   1.636  0.4215  0.7495  0.3960
18819TIP3    H277949   1.589   1.994   1.654 -1.0397  0.7398 -0.6060
18820TIP3   OH277950   5.621   0.016   1.881 -0.0942  0.3042 -0.2865
18820TIP3    H177951   5.671   0.065   1.945  0.6918 -1.1835  0.2655
18820TIP3    H277952   5.685  -0.041   1.838 -0.7542  0.6545 -1.8018
18821TIP3   OH277953   0.503   0.398   2.369  0.2233 -0.1197 -0.1697
18821TIP3    H177954   0.480   0.387   2.462  1.6751  1.0720  0.3807
18821TIP3    H277955   0.423   0.430   2.328 -0.1360  0.4690  0.9342
18822TIP3   OH277956   0.101   3.176   1.629  0.1312  0.7800  0.0192
18822TIP3    H177957   0.081   3.265   1.656 -0.7769  1.3541 -2.3187
18822TIP3    H277958   0.040   3.158   1.557  1.6221 -0.9825 -0.9003
18823TIP3   OH277959   1.101   6.791  12.756  0.7387 -0.0696  0.5131
18823TIP3    H177960   1.184   6.762  12.718  0.6732 -1.1353  1.1294
18823TIP3    H277961   1.120   6.876  12.795  1.2348  0.2377 -0.3824
18824TIP3   OH277962   0.261   6.430  12.075  0.1833  0.3234 -0.0895
18824TIP3    H177963   0.222   6.365  12.133  1.9568  1.0122  2.0299
18824TIP3    H277964   0.187   6.484  12.046 -0.7508  0.1540  1.8378
18825TIP3   OH277965   2.024   5.162   3.195  0.4746 -0.4710  0.1736
18825TIP3    H177966   1.929   5.153   3.201  0.3133  0.9997  0.2234
18825TIP3    H277967   2.059   5.098   3.256 -0.5246 -0.2040  1.0483
18826TIP3   OH277968   4.355   5.216  14.016  0.3660  0.3464 -0.8222
18826TIP3    H177969   4.426   5.171  13.970  0.9445  1.9886 -1.5974
18826TIP3    H277970   4.383   5.216  14.108  0.4274 -0.6934 -0.8233
18827TIP3   OH277971   3.437   6.692  14.483 -0.3717 -0.2423  0.2248
18827TIP3    H177972   3.422   6.785  14.498  0.5495 -0.2534  1.3598
18827TIP3    H277973   3.350   6.655  14.471 -0.7863  0.6804  0.3440
18828TIP3   OH277974   1.480   2.808  11.633  0.0198  0.0592  0.1150
18828TIP3    H177975   1.448   2.873  11.570 -2.0426 -0.0084  0.9973
18828TIP3    H277976   1.423   2.820  11.710  0.7233 -1.6397  0.9487
18829TIP3   OH277977   2.022   6.477  16.098  0.8954  0.1306 -0.0105
18829TIP3    H177978   2.075   6.510  16.170  1.0097  0.5551 -0.2842
18829TIP3    H277979   1.951   6.540  16.090  2.4098  1.7005 -2.0884
18830TIP3   OH277980   6.171   6.731   4.289  0.1876 -0.2476  0.3089
18830TIP3    H177981   6.110   6.749   4.360  0.9397 -0.6144  1.0730
18830TIP3    H277982   6.216   6.814   4.274  0.0786 -0.1871  0.3159
18831TIP3   OH277983   6.110   2.274   1.766  0.1694 -0.1230 -0.4456
18831TIP3    H177984   6.097   2.211   1.837 -0.1032  1.6694  1.1752
18831TIP3    H277985   6.186   2.326   1.793  0.1965  0.4633 -1.5739
18832TIP3   OH277986   4.449   1.276  12.048  0.7341 -0.2851 -0.0147
18832TIP3    H177987   4.379   1.275  12.112  0.4530 -0.9176 -0.3196
18832TIP3    H277988   4.405   1.291  11.964  1.1014  0.5892 -0.0673
18833TIP3   OH277989   6.694   2.678   5.505 -0.1975  0.0573  0.2533
18833TIP3    H177990   6.711   2.773   5.507 -1.8075  0.3727  0.2354
18833TIP3    H277991   6.646   2.664   5.424  0.7560 -0.9306 -0.1553
18834TIP3   OH277992   5.311   5.627   6.638 -0.0784  0.5501 -0.3978
18834TIP3    H177993   5.281   5.562   6.702  1.9749  0.1570  0.2556
18834TIP3    H277994   5.305   5.582   6.554  0.8097 -0.3207 -0.0181
18835TIP3   OH277995   3.542   5.269   6.264 -0.1405 -0.3640 -0.1056
18835TIP3    H177996   3.541   5.317   6.182 -1.2695  1.1218  0.7230
18835TIP3    H277997   3.451   5.243   6.278  0.1223 -1.0289  0.4467
18836TIP3   OH277998   6.176   4.925   4.398 -0.4523 -0.6104 -0.1945
18836TIP3    H177999   6.243   4.974   4.350 -0.6397 -0.5700 -0.4128
18836TIP3    H278000   6.113   4.899   4.332 -1.7406  1.1015  0.2924
18837TIP3   OH278001   2.921   2.200   1.616  0.8243 -0.1647 -0.5864
18837TIP3    H178002   2.999   2.187   1.669 -0.0133 -0.9951  0.5117
18837TIP3    H278003   2.856   2.236   1.677  0.6636  1.6096 -1.7347
18838TIP3   OH278004   4.833   4.521  11.777  0.1966  0.2756 -0.2050
18838TIP3    H178005   4.822   4.447  11.716 -2.2008  0.9275 -0.6632
18838TIP3    H278006   4.907   4.570  11.742  0.4184 -0.7022 -1.1665
18839TIP3   OH278007   2.653   5.734   0.969  0.0904  0.0758 -0.1317
18839TIP3    H178008   2.592   5.724   1.042 -0.0795 -1.2473 -0.4175
18839TIP3    H278009   2.723   5.672   0.988  0.7934  0.7954 -0.3594
18840TIP3   OH278010   0.634   2.382  11.519 -0.4625  0.3369  0.2943
18840TIP3    H178011   0.706   2.373  11.582 -1.2271  0.5167  1.2195
18840TIP3    H278012   0.628   2.295  11.478  0.7507  0.5330 -0.3346
18841TIP3   OH278013   6.071   3.615   5.975 -0.0922  0.0883 -0.1859
18841TIP3    H178014   6.045   3.705   5.998 -1.0999 -0.0163 -0.8667
18841TIP3    H278015   6.061   3.611   5.880  0.9837 -0.4348 -0.2870
18842TIP3   OH278016   3.819   3.391  11.883 -0.1022 -0.3198  0.4033
18842TIP3    H178017   3.774   3.439  11.813 -0.5587 -1.9761 -0.5018
18842TIP3    H278018   3.900   3.361  11.842  1.3365  1.6612  1.6765
18843TIP3   OH278019   6.113   1.668  12.476 -0.7314 -0.4063 -0.3604
18843TIP3    H178020   6.122   1.576  12.503  0.5542 -0.3571 -0.5760
18843TIP3    H278021   6.042   1.667  12.411 -1.3264 -1.1016  0.2819
18844TIP3   OH278022   2.265   6.645   0.783 -0.0662  0.2780 -0.2703
18844TIP3    H178023   2.263   6.702   0.860 -1.2113 -1.6477  1.2007
18844TIP3    H278024   2.193   6.584   0.795  1.0377 -1.4611 -1.8066
18845TIP3   OH278025   4.360   6.029   3.240  0.1838  0.1578 -0.3942
18845TIP3    H178026   4.353   5.978   3.159 -2.4112  1.7320 -1.2935
18845TIP3    H278027   4.366   6.120   3.210  2.8174  0.6119  1.1958
18846TIP3   OH278028   2.976   3.567   5.414 -0.0914 -0.0805 -0.0713
18846TIP3    H178029   3.065   3.537   5.433 -1.1899 -2.2866  1.9628
18846TIP3    H278030   2.974   3.576   5.318  1.5180 -2.8413 -0.4644
18847TIP3   OH278031   2.756   2.807  15.488 -0.0707  0.3937  0.1411
18847TIP3    H178032   2.810   2.814  15.409 -0.5226  0.9065 -0.1261
18847TIP3    H278033   2.809   2.754  15.548  0.5926  0.6177 -0.2324
18848TIP3   OH278034   1.003   3.470  11.297  0.2186 -0.5090  0.3655
18848TIP3    H178035   0.927   3.412  11.301 -0.8722  0.9229  1.2049
18848TIP3    H278036   1.075   3.413  11.269 -1.2563 -1.7794 -0.9997
18849TIP3   OH278037   2.851   4.646   1.798  0.2037 -0.1987 -0.2202
18849TIP3    H178038   2.867   4.679   1.710  5.0816 -1.3028 -0.0277
18849TIP3    H278039   2.891   4.711   1.856  0.6194 -1.3617  0.8537
18850TIP3   OH278040   0.735   1.853   3.196  0.4225 -0.1180 -0.7258
18850TIP3    H178041   0.815   1.901   3.175  0.9652 -0.7959 -0.2608
18850TIP3    H278042   0.665   1.918   3.187  1.0418  0.5300 -0.9587
18851TIP3   OH278043   4.795   5.592   2.973  0.2138 -0.3911 -0.1419
18851TIP3    H178044   4.798   5.586   2.877  0.4402 -1.3001 -0.0889
18851TIP3    H278045   4.746   5.672   2.991 -0.6367 -0.7024 -1.0177
18852TIP3   OH278046   4.956   2.737   5.229 -0.1410 -0.3886 -0.1571
18852TIP3    H178047   4.880   2.701   5.183  0.1418  0.6707 -1.5487
18852TIP3    H278048   4.954   2.831   5.208  1.1272 -0.2159  0.3828
18853TIP3   OH278049   3.262   1.611   3.576  0.2312  0.4721 -0.0250
18853TIP3    H178050   3.275   1.649   3.489  1.5983 -0.9412 -0.4873
18853TIP3    H278051   3.198   1.668   3.618  0.4461  1.8765 -1.5181
18854TIP3   OH278052   5.382   5.557  12.996  0.8753 -0.1180  0.0573
18854TIP3    H178053   5.439   5.591  13.066 -1.2907 -0.2770  2.0264
18854TIP3    H278054   5.296   5.551  13.037 -0.0854 -2.1723 -2.0672
18855TIP3   OH278055   2.440   3.142  12.684  0.0109  0.5022 -0.3912
18855TIP3    H178056   2.465   3.146  12.776  0.2306  3.0776 -0.5072
18855TIP3    H278057   2.511   3.185  12.638 -0.4467 -0.1045 -1.7155
18856TIP3   OH278058   5.882   1.098  15.632  0.2485  0.3043  0.1615
18856TIP3    H178059   5.796   1.112  15.673 -0.2927  0.2189 -0.9071
18856TIP3    H278060   5.934   1.054  15.699 -0.5942  0.2231  0.7756
18857TIP3   OH278061   4.792   2.209  12.160 -0.0611  0.5269 -0.0673
18857TIP3    H178062   4.767   2.301  12.145  1.0524  0.9059  0.3529
18857TIP3    H278063   4.714   2.170  12.200 -0.9529  0.9919 -1.2914
18858TIP3   OH278064   3.071   0.693  10.253  0.3748 -0.5003 -0.2729
18858TIP3    H178065   3.079   0.778  10.295  2.3729 -0.1989 -1.1275
18858TIP3    H278066   3.151   0.646  10.279 -0.2118 -1.7384 -0.6206
18859TIP3   OH278067   5.810   2.085  11.876 -0.1238  0.6683  0.6332
18859TIP3    H178068   5.880   2.073  11.813  0.4770  0.8501  1.2479
18859TIP3    H278069   5.855   2.116  11.955 -0.9872  1.6698  0.7578
18860TIP3   OH278070   3.557   0.215   2.276  0.5372 -0.2993 -0.5759
18860TIP3    H178071   3.572   0.124   2.252 -0.6639 -0.5161 -0.5607
18860TIP3    H278072   3.582   0.220   2.368 -1.3640 -1.1503  0.0395
18861TIP3   OH278073   6.720   1.094   4.590 -0.0107  0.3203  0.4176
18861TIP3    H178074   6.785   1.044   4.540  0.4252 -0.0607  1.3448
18861TIP3    H278075   6.720   1.180   4.549 -0.7783 -0.4042 -1.2187
18862TIP3   OH278076   0.379   2.631   5.229  0.2583 -0.1868  0.2560
18862TIP3    H178077   0.389   2.722   5.201  1.3649 -0.2807  0.3199
18862TIP3    H278078   0.321   2.592   5.164 -1.0677  0.8007  0.7826
18863TIP3   OH278079   6.637   5.688  16.374  0.1235  0.0258 -0.1215
18863TIP3    H178080   6.703   5.629  16.409 -0.4660 -1.1444 -0.9041
18863TIP3    H278081   6.569   5.691  16.441  1.0927  1.5237  0.8481
18864TIP3   OH278082   4.425   6.447  12.267 -0.1650 -0.2753  0.1728
18864TIP3    H178083   4.445   6.458  12.174  1.0428  0.7296  0.5244
18864TIP3    H278084   4.507   6.465  12.312 -1.1424  1.1387  1.5429
18865TIP3   OH278085   5.009   3.351  12.743  0.8164 -0.3768  0.6675
18865TIP3    H178086   4.924   3.315  12.768  0.8202 -0.9748 -0.1594
18865TIP3    H278087   5.049   3.376  12.826 -0.6291  0.9979  0.9949
18866TIP3   OH278088   2.788   1.108  16.458  0.0673  0.1151 -0.2091
18866TIP3    H178089   2.789   1.041  16.527  0.9085 -0.5269 -0.8247
18866TIP3    H278090   2.695   1.125  16.442 -0.1647 -1.0325 -0.1590
18867TIP3   OH278091   2.884   5.878   0.909  0.3843  0.1164  0.7678
18867TIP3    H178092   2.824   5.813   0.944  1.5150 -1.0091  0.7051
18867TIP3    H278093   2.908   5.932   0.984  0.7466 -0.6155  1.1908
18868TIP3   OH278094   6.803   2.608  14.470 -0.3976 -0.1094 -0.1484
18868TIP3    H178095   6.834   2.697  14.491  0.1033 -0.1525 -0.6494
18868TIP3    H278096   6.713   2.621  14.439 -1.4838 -0.1456  2.7406
18869TIP3   OH278097   6.665   3.729   3.854  0.3034  0.6127 -0.5383
18869TIP3    H178098   6.756   3.737   3.884  0.1574  0.0655  0.0738
18869TIP3    H278099   6.672   3.716   3.759  0.9869 -1.4022 -0.2600
18870TIP3   OH278100   5.763   2.396   3.223 -0.1937 -0.3215  0.4984
18870TIP3    H178101   5.716   2.473   3.192  1.9113  1.5625  1.6963
18870TIP3    H278102   5.829   2.379   3.157 -2.1636 -2.7887 -1.0345
18871TIP3   OH278103   1.585   4.193  15.861  0.1564  0.0443  0.1065
18871TIP3    H178104   1.642   4.259  15.902 -1.0668  0.7278  0.7596
18871TIP3    H278105   1.616   4.188  15.771  1.1879  0.4576  0.4145
18872TIP3   OH278106   4.991   6.071   0.249  0.3275 -0.1474  0.3270
18872TIP3    H178107   4.907   6.054   0.205  0.3193  1.1058 -0.1964
18872TIP3    H278108   5.019   6.156   0.214  0.7591  0.4776  2.0952
18873TIP3   OH278109   4.295   5.165  13.280 -0.1500 -0.9726  0.1196
18873TIP3    H178110   4.207   5.158  13.317 -0.4484 -0.4100 -0.4582
18873TIP3    H278111   4.285   5.136  13.189  0.2839 -1.0288  0.0891
18874TIP3   OH278112   3.175   3.380   3.278  0.2914  0.6601 -0.0283
18874TIP3    H178113   3.193   3.405   3.368  0.7020 -0.8889  0.3413
18874TIP3    H278114   3.250   3.415   3.228  0.3984  0.9372  0.3224
18875TIP3   OH278115   2.309   0.818  13.002 -0.2574  0.0901  1.0883
18875TIP3    H178116   2.347   0.901  13.030  0.6462  0.0085  0.1656
18875TIP3    H278117   2.254   0.840  12.927  0.8203 -0.2562  0.1649
18876TIP3   OH278118   1.024   6.683  15.091 -0.5023 -0.7775  0.5702
18876TIP3    H178119   1.035   6.608  15.150 -0.2423  0.9552  2.8072
18876TIP3    H278120   1.102   6.679  15.034 -0.0849 -1.7391  1.1765
18877TIP3   OH278121   5.476   1.846  12.081 -0.4805 -0.2437  0.0889
18877TIP3    H178122   5.454   1.908  12.012 -0.6998 -0.1772  0.2157
18877TIP3    H278123   5.398   1.843  12.136 -0.6213 -0.9312 -0.1340
18878TIP3   OH278124   4.366   4.849  14.295 -0.3782  0.0645 -0.0640
18878TIP3    H178125   4.425   4.913  14.256 -0.4267 -0.8761 -1.8128
18878TIP3    H278126   4.418   4.768  14.299 -0.9516 -0.3006  0.1372
18879TIP3   OH278127   6.308   0.974   5.783 -0.3814  0.3798 -0.4402
18879TIP3    H178128   6.322   0.963   5.689  0.8559 -0.4187 -0.1758
18879TIP3    H278129   6.371   0.916   5.825 -0.8496  0.7817  0.9014
18880TIP3   OH278130   5.019   5.788   1.599 -0.0619 -0.5924 -0.6192
18880TIP3    H178131   4.965   5.868   1.605  0.6490  0.1198 -2.6843
18880TIP3    H278132   5.105   5.820   1.572  0.2787 -2.0473 -1.3240
18881TIP3   OH278133   5.380   2.492  13.607 -0.0405  0.3472 -0.0266
18881TIP3    H178134   5.435   2.422  13.640 -0.0161  0.6667  0.6282
18881TIP3    H278135   5.357   2.465  13.518 -1.9571 -1.6355  0.9851
18882TIP3   OH278136   2.475   1.551   1.757  0.4326 -0.0756 -0.6655
18882TIP3    H178137   2.399   1.563   1.814 -0.3487 -0.5166 -1.5892
18882TIP3    H278138   2.543   1.605   1.796 -0.3106  0.2088  0.2648
18883TIP3   OH278139   1.598   0.715   5.889  0.1853 -0.5984 -0.0905
18883TIP3    H178140   1.687   0.737   5.916 -0.1856  0.5620  0.2419
18883TIP3    H278141   1.576   0.637   5.939  1.0870 -1.0260 -0.3365
18884TIP3   OH278142   2.999   1.704   5.312 -0.8155 -0.2021 -0.0186
18884TIP3    H178143   3.066   1.664   5.368  0.6552  1.8916 -0.1703
18884TIP3    H278144   2.983   1.790   5.350 -2.6748 -0.2402 -0.6190
18885TIP3   OH278145   5.805   3.815  11.160 -0.2488 -0.8492  0.3037
18885TIP3    H178146   5.723   3.853  11.127 -0.7884 -2.3140 -0.1172
18885TIP3    H278147   5.808   3.728  11.121  1.6431 -0.7509  0.1224
18886TIP3   OH278148   0.638   6.726  11.995  0.1696  0.2982 -0.1140
18886TIP3    H178149   0.569   6.672  12.033 -0.6212  0.9873 -0.5283
18886TIP3    H278150   0.593   6.779  11.929  0.7573  1.9854  0.7804
18887TIP3   OH278151   0.882   6.019   0.851 -0.5224  0.6393 -0.9263
18887TIP3    H178152   0.947   5.957   0.883 -1.7973 -0.1015  0.3709
18887TIP3    H278153   0.873   6.082   0.923 -2.3580 -0.1879 -0.3768
18888TIP3   OH278154   2.079   1.831   3.537  0.4407 -0.3503 -0.1965
18888TIP3    H178155   2.043   1.818   3.624  0.0292  0.4520 -0.2416
18888TIP3    H278156   2.101   1.924   3.534  1.4037 -0.5797 -0.5917
18889TIP3   OH278157   1.562   0.633  11.178  0.1227  0.0872 -0.0300
18889TIP3    H178158   1.545   0.544  11.147  0.6081 -0.2617  0.6789
18889TIP3    H278159   1.611   0.621  11.259  0.6027  1.0190 -0.1756
18890TIP3   OH278160   1.886   1.762   3.234  0.4347  0.4986 -0.2516
18890TIP3    H178161   1.978   1.740   3.247  0.3603 -0.3372 -1.0383
18890TIP3    H278162   1.876   1.848   3.274  1.3309  0.1832  0.6939
18891TIP3   OH278163   1.552   2.542   4.583 -0.4295 -0.2932  0.4730
18891TIP3    H178164   1.544   2.606   4.512  2.1504  0.9762  1.1947
18891TIP3    H278165   1.599   2.589   4.652 -1.1799 -2.0675  2.2930
18892TIP3   OH278166   3.707   6.574  13.263  0.2621 -0.3284 -0.3755
18892TIP3    H178167   3.644   6.502  13.261  1.1863 -1.2602  1.5325
18892TIP3    H278168   3.777   6.546  13.204  0.8281 -1.2642  0.6879
18893TIP3   OH278169   5.885   5.561  14.903  0.1886 -0.3165 -0.6639
18893TIP3    H178170   5.842   5.483  14.868  1.8477 -1.3918 -0.4366
18893TIP3    H278171   5.966   5.527  14.944  0.3887  1.3844  0.4511
18894TIP3   OH278172   0.791   5.204  15.350  0.3028 -0.2019 -0.0452
18894TIP3    H178173   0.775   5.295  15.371 -2.2360 -0.9660  1.7388
18894TIP3    H278174   0.718   5.156  15.390  1.1265 -2.9462 -1.5463
18895TIP3   OH278175   3.822   6.511   2.608 -0.1099  0.0423 -0.3703
18895TIP3    H178176   3.784   6.598   2.594 -0.7017 -0.1059  0.2348
18895TIP3    H278177   3.896   6.526   2.667 -0.9500  0.0026  0.7245
18896TIP3   OH278178   2.614   0.549   2.516  0.0679  0.5870 -0.5916
18896TIP3    H178179   2.565   0.475   2.480 -0.2127  1.1588 -1.3930
18896TIP3    H278180   2.630   0.524   2.607 -0.7228 -0.1003 -0.6285
18897TIP3   OH278181   5.651   0.769  17.182  0.3618 -0.7016  0.4091
18897TIP3    H178182   5.689   0.857  17.178  0.4112 -0.6859  1.0907
18897TIP3    H278183   5.703   0.724  17.248 -1.1578 -0.4873  1.8519
18898TIP3   OH278184   5.135   0.336   1.370 -0.0745 -0.4648  0.0105
18898TIP3    H178185   5.068   0.384   1.322 -0.6715 -0.4692  0.8248
18898TIP3    H278186   5.188   0.294   1.302 -1.7973 -1.6968 -0.6252
18899TIP3   OH278187   1.110   0.312   3.547 -0.3855  0.6318 -0.0269
18899TIP3    H178188   1.052   0.328   3.473 -1.2508  2.3487  0.9675
18899TIP3    H278189   1.065   0.246   3.600 -1.4254  1.8639  0.6756
18900TIP3   OH278190   4.229   3.964   2.242  0.1635  0.0420  0.1931
18900TIP3    H178191   4.302   4.025   2.232  1.2036 -0.7236  2.4819
18900TIP3    H278192   4.247   3.894   2.179  1.8855 -0.5246  1.2438
18901TIP3   OH278193   3.685   0.716  12.053  0.0381  0.1935  0.5998
18901TIP3    H178194   3.743   0.725  11.977  0.4967  0.2670  0.9563
18901TIP3    H278195   3.632   0.795  12.052  0.0013  0.1679  0.3212
18902TIP3   OH278196   1.655   5.404  12.301 -0.2200 -0.0049  0.0804
18902TIP3    H178197   1.729   5.365  12.255 -0.8193 -1.6921  0.4928
18902TIP3    H278198   1.617   5.464  12.237  0.6433 -0.1821 -0.6245
18903TIP3   OH278199   2.231   1.415   0.157 -0.1409 -0.2120  0.4000
18903TIP3    H178200   2.280   1.480   0.207  0.2954 -0.9446  0.9375
18903TIP3    H278201   2.225   1.453   0.069  1.6289 -0.2136  0.2369
18904TIP3   OH278202   2.470   5.636   0.205  0.0278  0.4547  0.7636
18904TIP3    H178203   2.545   5.601   0.158 -0.7437  0.0604 -0.1980
18904TIP3    H278204   2.507   5.701   0.265  1.0398  0.9005 -0.3182
18905TIP3   OH278205   6.459   3.132   6.505 -0.2775  0.0986  0.5704
18905TIP3    H178206   6.412   3.049   6.495  0.1449  0.2083 -4.4545
18905TIP3    H278207   6.517   3.117   6.580 -1.0224 -3.6927  0.6111
18906TIP3   OH278208   3.578   5.690  14.578 -0.3839 -0.0669  0.4477
18906TIP3    H178209   3.576   5.596  14.595 -0.1671  0.1076  1.5196
18906TIP3    H278210   3.619   5.728  14.656  1.9471  0.6810 -1.0140
18907TIP3   OH278211   4.448   6.818   4.770 -0.5579  0.0390  0.2738
18907TIP3    H178212   4.510   6.784   4.705 -1.8010  1.8725 -2.0338
18907TIP3    H278213   4.374   6.758   4.766 -1.1404  0.7820 -1.0009
18908TIP3   OH278214   1.070   0.044   0.919  0.3000 -0.0185 -0.2830
18908TIP3    H178215   1.122  -0.009   0.860 -0.0516 -0.1374 -0.4883
18908TIP3    H278216   0.982   0.043   0.882  0.2678  0.6243 -0.2383
18909TIP3   OH278217   2.683   5.477   2.214  0.5736  0.1985 -0.0702
18909TIP3    H178218   2.759   5.484   2.156 -0.2874  1.5462 -1.1047
18909TIP3    H278219   2.654   5.387   2.205  1.2021  0.0549 -0.7839
18910TIP3   OH278220   0.233   2.442   6.133  0.2389 -0.0576 -0.0918
18910TIP3    H178221   0.224   2.463   6.226  2.6730  0.1898  0.1561
18910TIP3    H278222   0.228   2.347   6.129  3.1177 -0.3368  0.7929
18911TIP3   OH278223   4.070   0.733  11.261 -0.1521  0.2841  0.3531
18911TIP3    H178224   4.128   0.664  11.228  0.0997 -0.2874  1.8712
18911TIP3    H278225   3.982   0.697  11.253 -0.3578  1.1704 -2.0011
18912TIP3   OH278226   5.576   2.182   2.534 -0.3580  0.2189 -0.8912
18912TIP3    H178227   5.647   2.135   2.577 -0.3962  2.0504  1.3797
18912TIP3    H278228   5.496   2.141   2.568 -0.3803  1.2034  0.3096
18913TIP3   OH278229   1.027   6.022   5.852  0.1191  0.3411 -0.7267
18913TIP3    H178230   1.038   6.110   5.889 -1.4450 -0.4212  1.7828
18913TIP3    H278231   1.107   5.975   5.879  0.3617  0.6228 -0.9470
18914TIP3   OH278232   6.543   4.926  14.726 -0.7779 -0.0816 -0.1612
18914TIP3    H178233   6.568   4.983  14.653 -1.7641 -1.7366 -1.8943
18914TIP3    H278234   6.623   4.879  14.748 -0.0314  1.6572  1.0843
18915TIP3   OH278235   5.332   3.349  13.515 -0.2202  0.2978  0.6054
18915TIP3    H178236   5.388   3.422  13.542 -1.8865  1.6004  0.7425
18915TIP3    H278237   5.388   3.296  13.458  0.5949  2.5923 -0.8799
18916TIP3   OH278238   2.130   3.701  14.946  0.3354  0.7669 -0.5281
18916TIP3    H178239   2.205   3.679  15.001  0.4282  1.5336 -0.3302
18916TIP3    H278240   2.113   3.622  14.895 -1.5971 -1.0267  2.6302
18917TIP3   OH278241   3.462   2.979   2.802 -0.3047 -0.1337  0.6571
18917TIP3    H178242   3.409   2.899   2.810 -0.2145 -0.1993  0.6024
18917TIP3    H278243   3.552   2.947   2.790 -0.1608 -0.0247  1.3856
18918TIP3   OH278244   0.000   2.034  11.792  0.3035  0.3404 -0.7709
18918TIP3    H178245  -0.009   2.103  11.725 -1.5328  0.2488 -0.6682
18918TIP3    H278246  -0.075   2.046  11.849  1.7608  0.3244  1.2582
18919TIP3   OH278247   5.831   5.331  12.229  0.2035 -0.1782 -0.5574
18919TIP3    H178248   5.750   5.358  12.272 -0.3489 -1.3848 -0.7924
18919TIP3    H278249   5.865   5.260  12.283  0.3010 -0.6868 -1.2604
18920TIP3   OH278250   5.495   6.641  16.880  0.5685 -0.4157  0.7770
18920TIP3    H178251   5.447   6.638  16.798 -1.1893  0.6590  1.7159
18920TIP3    H278252   5.505   6.734  16.899  1.9752 -0.6341  1.2222
18921TIP3   OH278253   2.664   4.668  12.598  0.6134  0.3772 -0.5808
18921TIP3    H178254   2.731   4.645  12.662 -0.1857 -1.0513 -0.2147
18921TIP3    H278255   2.702   4.741  12.549  0.6880  2.5765  2.4230
18922TIP3   OH278256   4.290   1.947   0.237 -0.1713  0.8783 -0.2177
18922TIP3    H178257   4.309   2.036   0.209  0.5967  1.0191  0.7188
18922TIP3    H278258   4.222   1.956   0.304  0.6750  0.8691  0.6643
18923TIP3   OH278259   0.125   3.844  12.789 -0.1652  0.1340 -0.6635
18923TIP3    H178260   0.140   3.752  12.767  1.0037  0.3978 -1.0499
18923TIP3    H278261   0.153   3.892  12.711  1.2141  0.9266  0.2849
18924TIP3   OH278262   5.439   4.630  11.157 -0.4784  0.1720  0.5709
18924TIP3    H178263   5.457   4.562  11.222 -1.3501  0.2694  0.9221
18924TIP3    H278264   5.526   4.654  11.123 -0.1363 -0.9203  0.6251
18925TIP3   OH278265   4.551   2.605   2.867  0.2959  0.0498 -0.6879
18925TIP3    H178266   4.534   2.606   2.773  0.4001 -0.8933 -0.7288
18925TIP3    H278267   4.515   2.522   2.897  2.6958 -0.9691 -0.3840
18926TIP3   OH278268   6.660   3.271  12.410 -0.4456  0.4046 -0.1381
18926TIP3    H178269   6.625   3.258  12.498  0.6697 -1.1325  0.1133
18926TIP3    H278270   6.637   3.191  12.363  0.7167  0.3397 -0.6312
18927TIP3   OH278271   3.208   1.066   2.595  0.0314 -0.0572  0.0138
18927TIP3    H178272   3.123   1.038   2.629  1.4737 -3.0773  1.4852
18927TIP3    H278273   3.272   1.019   2.648  2.7079  2.4404 -0.7258
18928TIP3   OH278274   5.728   4.425  14.788 -0.5801  0.2452  0.6695
18928TIP3    H178275   5.716   4.520  14.776 -0.5027  0.3267  1.1925
18928TIP3    H278276   5.779   4.397  14.713 -0.0236  0.7415  0.8555
18929TIP3   OH278277   4.221   1.349  11.412  0.1750  0.1121 -0.7342
18929TIP3    H178278   4.181   1.341  11.325  1.8303 -2.6260 -1.3717
18929TIP3    H278279   4.315   1.337  11.396  0.3581 -2.3903  1.5518
18930TIP3   OH278280   3.120   6.407   2.510 -0.6608  0.5262  0.2808
18930TIP3    H178281   3.052   6.442   2.453 -1.1777  1.2962  1.3236
18930TIP3    H278282   3.170   6.484   2.537  1.5090 -0.1382 -1.5005
18931TIP3   OH278283   4.967   4.306   5.474 -0.0338  0.0385 -0.0193
18931TIP3    H178284   4.963   4.358   5.393 -0.6333 -0.2173 -0.1671
18931TIP3    H278285   4.996   4.367   5.541  1.3925  0.0363 -0.5962
18932TIP3   OH278286   5.070   4.383  14.818  0.3797 -0.1496 -0.1670
18932TIP3    H178287   5.042   4.407  14.906  1.5984 -0.5445  0.3631
18932TIP3    H278288   4.993   4.395  14.763 -0.2030  0.8022  0.8241
18933TIP3   OH278289   6.609   0.271   1.236 -1.0417  0.2773 -0.1755
18933TIP3    H178290   6.585   0.218   1.160 -0.2764  0.5318 -0.6013
18933TIP3    H278291   6.705   0.268   1.238 -1.0593  0.0027  0.9725
18934TIP3   OH278292   4.224   5.051  14.823  0.2338  0.0631  0.0297
18934TIP3    H178293   4.205   5.145  14.819  0.1412  0.0196 -0.6624
18934TIP3    H278294   4.224   5.031  14.917  0.1786  0.7378  0.1813
18935TIP3   OH278295   2.401   0.819  13.808 -0.0921  0.3073  0.2184
18935TIP3    H178296   2.494   0.841  13.809  0.1195 -0.5753  1.1182
18935TIP3    H278297   2.395   0.740  13.755 -0.3510  0.4544  0.0266
18936TIP3   OH278298   4.801   3.239  12.890 -0.1226 -0.0094  0.0740
18936TIP3    H178299   4.717   3.282  12.902  0.3662  0.5947  1.5716
18936TIP3    H278300   4.836   3.228  12.979  2.0171  1.0999 -0.5421
18937TIP3   OH278301   3.431   6.178   6.221 -0.5031  0.2702  0.1930
18937TIP3    H178302   3.526   6.181   6.212 -0.5466  0.1127 -0.3159
18937TIP3    H278303   3.416   6.183   6.316  0.0023  0.4465  0.2673
18938TIP3   OH278304   4.280   6.169  13.296  0.0805  0.0384 -0.1129
18938TIP3    H178305   4.280   6.179  13.200 -0.4185 -0.0539 -0.1247
18938TIP3    H278306   4.337   6.239  13.326  1.8223 -1.1248 -0.5819
18939TIP3   OH278307   2.259   5.837   1.427  0.1616  0.2688  0.0226
18939TIP3    H178308   2.268   5.811   1.335 -1.1211  1.0912 -0.3642
18939TIP3    H278309   2.168   5.819   1.448  0.7855 -1.2974  1.6226
18940TIP3   OH278310   3.196   4.491   5.630  0.2414 -0.6343 -0.1363
18940TIP3    H178311   3.236   4.443   5.703 -0.1860 -0.6931  0.0589
18940TIP3    H278312   3.112   4.448   5.616 -0.6551  0.7362  0.7796
18941TIP3   OH278313   2.389   0.710  12.187  0.3042  0.1466 -0.0878
18941TIP3    H178314   2.399   0.774  12.257  0.4972  0.1129 -0.0836
18941TIP3    H278315   2.298   0.682  12.192  0.5315 -0.4846  0.6971
18942TIP3   OH278316   3.494   6.001   5.198 -0.1645 -0.4508  0.6567
18942TIP3    H178317   3.521   6.001   5.106 -0.5383  1.2657  0.5211
18942TIP3    H278318   3.462   5.912   5.213  0.2829 -0.8764 -0.7535
18943TIP3   OH278319   3.295   4.981   2.700 -0.1113  0.0483  0.6527
18943TIP3    H178320   3.253   4.953   2.619  0.8376  1.3104 -0.3290
18943TIP3    H278321   3.225   5.025   2.749 -0.4351  0.3076 -0.0189
18944TIP3   OH278322   3.771   5.041  13.092 -0.0995  0.5127  0.5145
18944TIP3    H178323   3.770   4.959  13.141 -0.8507  1.2299  1.7665
18944TIP3    H278324   3.710   5.098  13.139  0.7110  1.9289 -0.0657
18945TIP3   OH278325   1.535   4.030  14.761  0.8485 -0.7178 -0.0400
18945TIP3    H178326   1.444   4.001  14.769  0.2043  1.4032  1.1477
18945TIP3    H278327   1.549   4.039  14.666 -0.7758  0.5712 -0.1977
18946TIP3   OH278328   5.749   2.527   1.470 -0.2688  0.6392 -0.1658
18946TIP3    H178329   5.825   2.504   1.525 -0.0013  0.0785 -0.7497
18946TIP3    H278330   5.787   2.545   1.384 -0.6889  1.4635 -0.1834
18947TIP3   OH278331   2.896   1.412  13.900 -0.5167  0.1799 -0.2216
18947TIP3    H178332   2.977   1.431  13.852 -1.1511  1.9194 -0.6717
18947TIP3    H278333   2.926   1.395  13.990  0.3863  0.5886 -0.4274
18948TIP3   OH278334   5.028   6.291  16.228 -0.0637 -0.0016 -0.7147
18948TIP3    H178335   4.933   6.280  16.224  0.0359 -1.8195  0.6648
18948TIP3    H278336   5.052   6.257  16.314  1.9333 -0.3404 -1.3582
18949TIP3   OH278337   0.634   2.808   5.480  0.0386 -0.3205 -0.2941
18949TIP3    H178338   0.728   2.827   5.485  0.0308 -0.2286 -0.4876
18949TIP3    H278339   0.595   2.890   5.448  0.2637 -1.2925 -3.3955
18950TIP3   OH278340   4.235   5.095   1.309  0.7167  0.2675  0.5102
18950TIP3    H178341   4.169   5.060   1.249  1.6478  1.0201 -1.0260
18950TIP3    H278342   4.303   5.027   1.312 -0.0930 -0.5263  2.1229
18951TIP3   OH278343   4.437   5.173  11.165 -0.0553  0.1378 -0.4019
18951TIP3    H178344   4.518   5.200  11.122  1.7593 -0.7767  2.1654
18951TIP3    H278345   4.414   5.246  11.222 -0.2547 -0.1398 -0.1191
18952TIP3   OH278346   5.503   6.225  16.879 -0.5888  0.3143 -0.4394
18952TIP3    H178347   5.448   6.204  16.954 -1.8804 -0.5504 -1.5861
18952TIP3    H278348   5.590   6.239  16.916 -1.1577 -0.2572  1.1858
18953TIP3   OH278349   4.170   0.004   2.898  0.0592 -0.3876  0.3643
18953TIP3    H178350   4.234   0.065   2.859  1.1547 -2.0435 -0.5554
18953TIP3    H278351   4.099   0.000   2.835  0.2153 -0.4269  0.1892
18954TIP3   OH278352   6.196   1.811  11.343  0.4069  0.0995 -0.2820
18954TIP3    H178353   6.176   1.786  11.433  0.7543 -2.3071 -0.7940
18954TIP3    H278354   6.166   1.902  11.335 -1.9647 -0.4363  1.5212
18955TIP3   OH278355   2.601   0.183  12.072  0.2997  0.2186 -0.8915
18955TIP3    H178356   2.665   0.203  12.141  1.9128  2.4619 -2.8842
18955TIP3    H278357   2.651   0.136  12.006 -0.9615 -0.9394 -1.0585
18956TIP3   OH278358   2.503   1.871  15.951 -0.1142  0.4696 -0.0369
18956TIP3    H178359   2.472   1.782  15.938  3.0691 -0.9583  1.2347
18956TIP3    H278360   2.435   1.912  16.005 -2.5463 -0.4620 -2.1494
18957TIP3   OH278361   0.296   2.416  15.418 -0.3676  0.4278 -0.7155
18957TIP3    H178362   0.227   2.415  15.485  1.4076  0.5049  1.2529
18957TIP3    H278363   0.287   2.333  15.373  0.1475 -1.0393  1.6779
18958TIP3   OH278364   5.203   1.592  17.282  0.1306 -0.3699 -0.9782
18958TIP3    H178365   5.159   1.507  17.284  0.6038 -0.7106  2.4452
18958TIP3    H278366   5.133   1.656  17.291 -0.0206 -0.7107  0.6818
18959TIP3   OH278367   2.617   4.551   0.361 -0.1655  0.6904 -0.7800
18959TIP3    H178368   2.661   4.466   0.361 -1.5722 -0.0761 -0.8178
18959TIP3    H278369   2.602   4.570   0.454 -2.6704 -0.7112 -0.7793
18960TIP3   OH278370   4.975   2.167  15.487 -0.3272 -0.4861 -0.0285
18960TIP3    H178371   4.995   2.238  15.427 -0.1604 -0.2698  0.2845
18960TIP3    H278372   4.952   2.210  15.569  1.3998 -0.8142  0.6777
18961TIP3   OH278373   1.307   6.009   4.400 -1.1171 -0.2495 -0.9171
18961TIP3    H178374   1.231   5.970   4.443 -0.2804  1.8875  3.0091
18961TIP3    H278375   1.295   6.104   4.413  2.9932  0.1587  1.7894
18962TIP3   OH278376   2.743   3.404   6.112 -0.1495 -0.0005  0.2097
18962TIP3    H178377   2.677   3.336   6.126 -0.8941  0.9026  1.3198
18962TIP3    H278378   2.748   3.414   6.017 -1.8470  0.1027  0.0981
18963TIP3   OH278379   2.636   0.369  13.889 -0.0941 -0.3935 -0.6354
18963TIP3    H178380   2.667   0.440  13.945 -1.1187 -0.2682 -0.1953
18963TIP3    H278381   2.656   0.290  13.937  3.5419 -0.6693 -2.3138
18964TIP3   OH278382   5.840   3.440   3.876  0.9335 -0.8419 -0.4805
18964TIP3    H178383   5.876   3.522   3.911 -1.6848  0.4657 -0.6129
18964TIP3    H278384   5.897   3.418   3.802  1.5046  1.0490 -0.6570
18965TIP3   OH278385   4.415   4.129   5.036  0.1148 -0.4478  0.0902
18965TIP3    H178386   4.503   4.126   5.073 -0.0694 -0.7250  0.5119
18965TIP3    H278387   4.357   4.123   5.112 -0.2671 -0.2123 -0.1800
18966TIP3   OH278388   5.621   4.780   0.961 -0.0283  0.0110 -0.2310
18966TIP3    H178389   5.563   4.722   0.912 -0.7998  0.4503  0.1345
18966TIP3    H278390   5.561   4.834   1.013  0.6935  0.8232 -0.2300
18967TIP3   OH278391   1.820   2.567   4.454  0.5624  0.1053  0.1660
18967TIP3    H178392   1.835   2.661   4.467 -0.8316  0.2156  1.3449
18967TIP3    H278393   1.732   2.563   4.415  0.9648 -0.6879 -0.6833
18968TIP3   OH278394   3.826   4.647  17.056 -0.0942 -0.1413  0.7247
18968TIP3    H178395   3.740   4.668  17.019  0.6147  0.9396 -0.3862
18968TIP3    H278396   3.887   4.703  17.009  1.4531 -2.0476  0.3068
18969TIP3   OH278397   1.523   5.833  13.214  0.1634  0.1433 -0.3227
18969TIP3    H178398   1.582   5.757  13.218  0.8994  0.7247  0.3054
18969TIP3    H278399   1.437   5.796  13.198  0.4839 -0.8502  0.1489
18970TIP3   OH278400   4.835   2.929  15.965 -0.4565  1.1125  0.4343
18970TIP3    H178401   4.793   2.971  15.890 -0.5937  1.0143  0.4551
18970TIP3    H278402   4.798   2.840  15.966 -0.9785  1.3234  1.0233
18971TIP3   OH278403   2.951   4.111   1.057 -0.2539  0.1399 -0.2472
18971TIP3    H178404   2.958   4.174   0.985  0.2169 -2.2844 -2.4994
18971TIP3    H278405   2.857   4.104   1.074 -0.3729  0.8066 -0.6005
18972TIP3   OH278406   2.995   1.438   0.536  0.0041 -0.5649  0.3854
18972TIP3    H178407   3.080   1.423   0.495  0.3103  0.6647  0.5249
18972TIP3    H278408   2.989   1.370   0.603  0.1029 -1.7267 -0.7585
18973TIP3   OH278409   4.537   0.339   3.769 -0.6694  0.0800  0.4364
18973TIP3    H178410   4.452   0.303   3.743  0.0027 -0.3779 -1.2650
18973TIP3    H278411   4.591   0.261   3.788 -0.4244  0.3485  0.8655
18974TIP3   OH278412   5.181   6.373  13.965  0.4494  1.0134 -0.1749
18974TIP3    H178413   5.153   6.363  14.056  1.5603 -0.4582  0.0439
18974TIP3    H278414   5.193   6.467  13.953 -0.7370  1.3226  0.8712
18975TIP3   OH278415   0.605   0.271   1.056 -0.1475 -0.0764 -0.2243
18975TIP3    H178416   0.599   0.323   1.136  1.3484  0.5296 -0.4872
18975TIP3    H278417   0.678   0.309   1.007  0.6954 -2.1273 -0.6476
18976TIP3   OH278418   4.659   6.327  15.147 -0.6213 -0.5168 -0.0272
18976TIP3    H178419   4.582   6.318  15.203  0.7483  0.0463  2.0663
18976TIP3    H278420   4.731   6.341  15.208  0.8289  1.1432 -1.9806
18977TIP3   OH278421   6.025   6.028  14.657  0.0139  0.2864 -0.1348
18977TIP3    H178422   6.029   5.989  14.570 -2.8450  1.5584 -0.9355
18977TIP3    H278423   5.934   6.056  14.667  0.7493  2.1180  2.4184
18978TIP3   OH278424   4.094   5.046   1.585 -0.4024  0.2010  0.2484
18978TIP3    H178425   4.143   5.080   1.511  1.4546  2.9655  2.5459
18978TIP3    H278426   4.022   5.108   1.597  0.3241  0.8052  1.7374
18979TIP3   OH278427   4.836   2.254  16.319  0.4573  0.2398  0.0843
18979TIP3    H178428   4.870   2.171  16.353  0.4873  0.6626  1.1308
18979TIP3    H278429   4.854   2.318  16.389 -1.3214  0.7319  0.1471
18980TIP3   OH278430   0.569   1.822  12.431 -0.1538  0.4832  0.3880
18980TIP3    H178431   0.563   1.732  12.399  3.9087  0.6096 -1.1964
18980TIP3    H278432   0.501   1.869  12.383 -1.5791 -1.4508  0.4040
18981TIP3   OH278433   4.974   5.977   3.103  0.6505 -0.2991  0.4080
18981TIP3    H178434   4.907   5.950   3.165 -1.6193 -0.4536 -1.9436
18981TIP3    H278435   5.026   5.898   3.088  0.3820 -0.6099  1.0898
18982TIP3   OH278436   4.808   0.645  15.844 -0.2387 -0.0395  0.0085
18982TIP3    H178437   4.727   0.615  15.802  0.5665 -2.6492  0.2061
18982TIP3    H278438   4.876   0.631  15.778  0.4447 -0.4189  0.7809
18983TIP3   OH278439   0.190   2.995  14.075 -0.2157 -0.0309 -0.3627
18983TIP3    H178440   0.222   2.910  14.043  1.8016  1.1303 -1.6846
18983TIP3    H278441   0.206   2.992  14.169  0.7862 -0.7700 -0.5279
18984TIP3   OH278442   2.959   3.767  11.319  0.0246  0.4595 -0.0881
18984TIP3    H178443   2.955   3.689  11.264 -0.2932  0.8452 -0.6156
18984TIP3    H278444   2.870   3.803  11.316 -0.0581  0.3781  0.8412
18985TIP3   OH278445   0.629   5.082  11.216 -0.0992  0.1598 -0.3295
18985TIP3    H178446   0.554   5.091  11.275 -0.7361  0.0045 -1.1055
18985TIP3    H278447   0.614   4.999  11.171 -0.2300  0.8263 -1.5534
18986TIP3   OH278448   5.391   0.537   3.279  0.4760 -0.0226 -0.5211
18986TIP3    H178449   5.413   0.630   3.287  0.9712  0.1240 -2.8597
18986TIP3    H278450   5.296   0.534   3.270  0.4364  0.2220 -0.1839
18987TIP3   OH278451   2.059   1.739  14.169 -0.6163 -0.4983 -0.0669
18987TIP3    H178452   2.096   1.708  14.251  1.1514  0.2162 -0.5353
18987TIP3    H278453   2.131   1.730  14.106 -2.0341 -1.3909 -1.6330
18988TIP3   OH278454   1.026   2.078   2.804  0.2010  0.7562 -0.3418
18988TIP3    H178455   1.067   2.035   2.729  1.0527  0.2973  0.3831
18988TIP3    H278456   1.033   2.172   2.784 -1.0199  0.6215 -1.5781
18989TIP3   OH278457   3.584   4.534  14.878  0.9933  0.0391 -0.1176
18989TIP3    H178458   3.538   4.455  14.908  2.3298 -0.5806  0.3750
18989TIP3    H278459   3.534   4.606  14.916 -1.1002 -0.4459 -1.7135
18990TIP3   OH278460   3.375   4.537  16.718 -0.0683  0.0352  0.0554
18990TIP3    H178461   3.327   4.594  16.657  2.0845  0.1919 -1.5969
18990TIP3    H278462   3.412   4.596  16.783 -1.8526 -0.0706  1.2519
18991TIP3   OH278463   4.502   1.387  13.727  0.6902 -0.1124 -0.2822
18991TIP3    H178464   4.569   1.320  13.739  0.9993  0.3958  0.9516
18991TIP3    H278465   4.479   1.415  13.816 -1.0309 -0.1288 -0.6748
18992TIP3   OH278466   3.280   0.533  16.891  0.0111 -0.7367  0.5390
18992TIP3    H178467   3.363   0.555  16.848 -0.5328  0.3116 -0.0213
18992TIP3    H278468   3.235   0.476  16.829 -0.0409 -0.6146  0.4625
18993TIP3   OH278469   6.072   4.850   1.849 -0.2514 -0.4799  0.3010
18993TIP3    H178470   6.142   4.836   1.786 -0.0558 -1.3816  0.6927
18993TIP3    H278471   6.054   4.943   1.845  1.3692 -0.1155  0.5922
18994TIP3   OH278472   1.575   1.902   3.744 -0.3208  0.2567 -0.1173
18994TIP3    H178473   1.654   1.849   3.733 -0.5070  0.0642 -0.5553
18994TIP3    H278474   1.604   1.992   3.732 -0.6157  0.0646 -3.1255
18995TIP3   OH278475   5.307   1.176   1.688 -0.0886  0.0342 -0.3168
18995TIP3    H178476   5.373   1.245   1.683 -0.1968  0.0714 -1.9212
18995TIP3    H278477   5.241   1.209   1.749  0.6503  0.6440  0.1572
18996TIP3   OH278478   3.860   0.040  14.237 -0.4997  0.2957  0.2368
18996TIP3    H178479   3.903  -0.046  14.240  0.0756  0.4757 -1.5928
18996TIP3    H278480   3.825   0.052  14.325 -1.1228 -2.0798  0.3932
18997TIP3   OH278481   1.107   5.254  11.120  0.6420  0.3239 -0.1631
18997TIP3    H178482   1.035   5.202  11.157  2.0373 -0.8916  0.9993
18997TIP3    H278483   1.115   5.329  11.179 -0.5252  1.2014 -1.0854
18998TIP3   OH278484   2.345   1.608   4.353 -0.7166  0.1714 -0.2938
18998TIP3    H178485   2.336   1.542   4.285 -0.5617 -0.0623 -0.0883
18998TIP3    H278486   2.439   1.619   4.365 -0.7326  0.8920 -0.7717
18999TIP3   OH278487   5.289   5.868   2.124  0.2686 -0.1654 -0.0282
18999TIP3    H178488   5.308   5.774   2.132  1.0602  0.0505  0.8828
18999TIP3    H278489   5.245   5.890   2.206 -3.3569 -0.4511 -1.7052
19000TIP3   OH278490   4.254   3.165  12.496  0.0602  0.1255  0.2882
19000TIP3    H178491   4.328   3.156  12.436  0.4389 -1.2287  0.9153
19000TIP3    H278492   4.190   3.218  12.448  0.8262  0.0523 -0.8468
19001TIP3   OH278493   4.904   4.186  11.349 -0.0299  0.7204 -0.8400
19001TIP3    H178494   4.819   4.202  11.391 -0.4788  1.4215 -1.9667
19001TIP3    H278495   4.884   4.182  11.255  0.8048 -1.7657 -0.9678
19002TIP3   OH278496   1.731   1.206  13.313 -0.2579  0.1070  0.5724
19002TIP3    H178497   1.783   1.273  13.357 -0.8883  0.9174  0.1210
19002TIP3    H278498   1.640   1.230  13.331 -0.5715  0.8551 -1.6718
19003TIP3   OH278499   5.460   5.743  17.110  0.3384  0.1202 -0.0414
19003TIP3    H178500   5.488   5.698  17.030  0.4226  1.4078 -0.7556
19003TIP3    H278501   5.382   5.792  17.084  0.9796  1.3920  0.3903
19004TIP3   OH278502   6.166   1.214  16.867 -0.4029  0.0709  0.3849
19004TIP3    H178503   6.207   1.129  16.853  0.4419  0.0039  2.7827
19004TIP3    H278504   6.193   1.267  16.792 -0.1044 -1.4437 -0.6236
19005TIP3   OH278505   3.684   4.366  15.248 -0.1285 -0.3138  0.2772
19005TIP3    H178506   3.633   4.285  15.245  1.9578 -1.7081  0.2678
19005TIP3    H278507   3.768   4.343  15.208  1.2516  1.2883  2.0194
19006TIP3   OH278508   5.146   6.316  12.757 -0.0280 -0.2675  0.7415
19006TIP3    H178509   5.231   6.353  12.734 -0.0255 -1.4987 -1.5036
19006TIP3    H278510   5.166   6.244  12.817  0.5954 -0.8420 -0.1279
19007TIP3   OH278511   6.314   4.300  14.137  0.0793  0.1567  0.0878
19007TIP3    H178512   6.295   4.353  14.060  1.8300  0.4718 -0.1752
19007TIP3    H278513   6.299   4.358  14.211  0.8510  0.6710 -0.1479
19008TIP3   OH278514   0.596   0.082   2.096  0.2774  0.1152  0.2591
19008TIP3    H178515   0.651   0.120   2.028  1.2286  0.7255  1.3343
19008TIP3    H278516   0.521   0.045   2.049  0.5496  1.1541 -1.0370
19009TIP3   OH278517   3.603   2.376  15.006  0.0757  0.3652 -0.0957
19009TIP3    H178518   3.674   2.424  14.964  1.3132 -2.1779 -1.1357
19009TIP3    H278519   3.583   2.304  14.946 -0.6405 -1.2899  1.9951
19010TIP3   OH278520   4.028   4.011  17.206  0.4721  0.7119  0.1396
19010TIP3    H178521   3.957   4.074  17.192  1.4900  1.9816  0.4170
19010TIP3    H278522   4.022   3.951  17.131 -0.4064  1.2582 -0.2480
19011TIP3   OH278523   4.450   2.147  14.584  0.1783 -0.1129 -0.5848
19011TIP3    H178524   4.507   2.215  14.546 -2.0091  1.0684 -1.9827
19011TIP3    H278525   4.442   2.081  14.515  0.2165 -0.4897 -0.2299
19012TIP3   OH278526   2.412   2.461  12.822 -0.3621 -0.1313 -0.0299
19012TIP3    H178527   2.499   2.473  12.784 -0.3784 -0.0726 -0.0480
19012TIP3    H278528   2.419   2.380  12.873 -0.1236  0.2092  0.4847
19013TIP3   OH278529   6.675   1.992   3.248  0.4552 -0.4887 -0.7716
19013TIP3    H178530   6.625   2.013   3.326  1.4739  0.1716 -0.2728
19013TIP3    H278531   6.729   2.069   3.232  1.4742 -1.2471 -1.1500
19014TIP3   OH278532   4.918   2.870   3.267  0.0662  0.4475  0.1550
19014TIP3    H178533   4.842   2.860   3.209 -0.3413  0.6371  0.6512
19014TIP3    H278534   4.936   2.781   3.298 -1.6106  0.7203  2.1072
19015TIP3   OH278535   1.020   2.923  11.875  0.2968  0.1447 -0.3033
19015TIP3    H178536   0.984   2.938  11.963 -1.1782  1.7020 -1.1165
19015TIP3    H278537   0.956   2.962  11.816  1.3607 -0.6912 -2.0820
19016TIP3   OH278538   0.940   3.674   4.604  0.2080 -0.2848 -0.3710
19016TIP3    H178539   0.951   3.701   4.695 -2.7219 -1.5439  0.4903
19016TIP3    H278540   1.014   3.617   4.586 -0.5566 -2.2971  2.2694
19017TIP3   OH278541   3.768   4.635   4.750  0.1772  0.1722 -0.2501
19017TIP3    H178542   3.782   4.577   4.825 -0.6458  1.3107  0.8266
19017TIP3    H278543   3.717   4.583   4.688 -2.2240  0.2888  1.5152
19018TIP3   OH278544   3.824   5.918  10.947 -0.3475  0.2845  0.4631
19018TIP3    H178545   3.877   5.995  10.971 -0.2188  0.2232  0.3753
19018TIP3    H278546   3.856   5.893  10.860 -3.1097  2.5769 -1.3850
19019TIP3   OH278547   2.716   6.181  15.499 -0.2513 -0.4139  0.0136
19019TIP3    H178548   2.735   6.185  15.593 -0.8244 -1.0805  0.1601
19019TIP3    H278549   2.636   6.231  15.488 -1.1774 -1.8127  0.1614
19020TIP3   OH278550   3.724   2.225   3.183  0.5941 -0.3052 -0.4201
19020TIP3    H178551   3.756   2.302   3.136  0.9784  0.0112  0.3363
19020TIP3    H278552   3.799   2.197   3.237  0.0952 -0.5202  0.1709
19021TIP3   OH278553   1.689   5.327   4.533  0.1002  0.0507 -0.1510
19021TIP3    H178554   1.756   5.273   4.490 -1.3445  0.2430 -2.8788
19021TIP3    H278555   1.618   5.266   4.552 -0.7681  0.5972 -1.5137
19022TIP3   OH278556   4.950   2.969  13.360 -0.1753 -0.1646 -0.3023
19022TIP3    H178557   5.035   2.955  13.401  0.6055 -0.3775 -1.9199
19022TIP3    H278558   4.890   2.986  13.433  1.2033 -0.2206  0.8727
19023TIP3   OH278559   0.370   5.955   3.747  0.1942  0.0829  0.1139
19023TIP3    H178560   0.435   6.016   3.712  0.2816 -0.1896 -0.1991
19023TIP3    H278561   0.411   5.869   3.739 -0.6443 -0.2215 -1.1227
19024TIP3   OH278562   5.981   0.576   5.273  0.2893 -0.4542 -0.3643
19024TIP3    H178563   5.959   0.483   5.264  0.7011 -0.3874 -2.3736
19024TIP3    H278564   5.969   0.594   5.367  1.8049 -2.9189  0.3975
19025TIP3   OH278565   3.947   6.076  16.336 -0.5983 -0.1218 -0.5813
19025TIP3    H178566   3.961   5.994  16.289 -0.0587  0.0076 -0.6653
19025TIP3    H278567   3.958   6.053  16.428 -0.6036 -0.1787 -0.5950
19026TIP3   OH278568   6.456   2.937   4.837  0.4046  0.5728 -0.2501
19026TIP3    H178569   6.482   2.966   4.750  1.2734  1.0564  0.1622
19026TIP3    H278570   6.369   2.974   4.850 -0.6458 -1.2088 -1.7095
19027TIP3   OH278571   1.930   0.034  12.982  0.6013 -0.0707 -0.2430
19027TIP3    H178572   1.865  -0.033  12.961  0.2650  0.4384 -0.8706
19027TIP3    H278573   1.920   0.049  13.076  0.4495 -0.6588 -0.1622
19028TIP3   OH278574   5.031   6.380   3.750 -0.1333  0.5245  0.0236
19028TIP3    H178575   5.077   6.380   3.834 -1.8949 -0.1702  1.0454
19028TIP3    H278576   5.071   6.452   3.701  1.5075  0.4124  1.1172
19029TIP3   OH278577   3.668   2.665  15.574  0.5379  0.8458  0.7547
19029TIP3    H178578   3.631   2.586  15.535  1.3298  0.9835 -0.3184
19029TIP3    H278579   3.674   2.645  15.667  0.0553 -0.0808  0.5995
19030TIP3   OH278580   2.821   0.548   3.442  0.3081 -0.4859 -0.4275
19030TIP3    H178581   2.775   0.469   3.415  1.3713 -0.7435 -1.5928
19030TIP3    H278582   2.792   0.564   3.532 -0.2132 -1.9705 -0.3140
19031TIP3   OH278583   2.161   6.191   3.632  0.2908  0.1519  0.1054
19031TIP3    H178584   2.108   6.206   3.553 -1.6777 -0.6962  1.1985
19031TIP3    H278585   2.120   6.245   3.699  1.3916  0.1740  0.7761
19032TIP3   OH278586   0.373   1.331  14.225 -0.0195  0.2597 -0.0586
19032TIP3    H178587   0.377   1.346  14.130  0.9387 -0.5528 -0.1520
19032TIP3    H278588   0.370   1.236  14.235  1.6660  0.2632  0.7712
19033TIP3   OH278589   2.515   1.733  16.616  0.1772  0.1919 -0.1930
19033TIP3    H178590   2.443   1.719  16.554  0.6357  1.9708 -1.1825
19033TIP3    H278591   2.585   1.677  16.584 -0.2281 -0.3650 -0.1325
19034TIP3   OH278592   4.552   5.294   1.404  0.0160 -0.5656  0.1007
19034TIP3    H178593   4.528   5.282   1.312  1.0378  0.4110 -0.3171
19034TIP3    H278594   4.618   5.226   1.421 -0.1555 -0.7309  0.1016
19035TIP3   OH278595   3.397   3.991  13.512  0.1722  0.2520  0.1446
19035TIP3    H178596   3.374   4.045  13.588 -0.5621 -0.5369  0.5023
19035TIP3    H278597   3.406   3.903  13.548  0.1542 -0.0741 -0.6305
19036TIP3   OH278598   2.393   1.810  15.133 -0.5421 -0.2764  0.0208
19036TIP3    H178599   2.359   1.761  15.208 -1.1175 -2.1153 -1.3818
19036TIP3    H278600   2.352   1.896  15.141  1.0359  0.3391  2.9384
19037TIP3   OH278601   5.095   2.256   6.284  0.0150  0.2939  0.0056
19037TIP3    H178602   5.084   2.200   6.360  0.6108 -2.3833 -1.7241
19037TIP3    H278603   5.019   2.238   6.229  0.8837  0.1157 -1.1913
19038TIP3   OH278604   4.652   0.228  16.148  0.6467  0.3518  0.2420
19038TIP3    H178605   4.734   0.255  16.106  1.2426 -0.3381  0.9342
19038TIP3    H278606   4.653   0.132  16.142 -0.1964  0.3434  0.1165
19039TIP3   OH278607   1.060   3.902  15.891 -0.6111 -0.7091 -0.8623
19039TIP3    H178608   0.973   3.936  15.912  0.2417  1.0590  0.0879
19039TIP3    H278609   1.050   3.860  15.806 -2.1254  0.5666 -1.3700
19040TIP3   OH278610   0.669   1.722  11.617 -0.3420 -0.0301  0.0270
19040TIP3    H178611   0.694   1.806  11.657 -0.2023 -0.4880  0.9359
19040TIP3    H278612   0.727   1.713  11.541  1.1757 -0.2914  1.1448
19041TIP3   OH278613   2.786   2.823   2.975 -0.3598 -0.0798  0.1161
19041TIP3    H178614   2.864   2.831   2.919 -0.9570  0.9777 -0.5970
19041TIP3    H278615   2.720   2.783   2.918 -0.3874 -0.8476  0.6796
19042TIP3   OH278616   6.413   2.524   1.390  0.1869 -0.1921  0.2409
19042TIP3    H178617   6.422   2.617   1.413  0.6514 -0.3050  0.5164
19042TIP3    H278618   6.325   2.517   1.354  0.1369  0.3525  0.2520
19043TIP3   OH278619   1.952   2.371  17.104 -0.3072 -0.2962 -0.3407
19043TIP3    H178620   2.022   2.390  17.166 -0.7620  0.8466 -0.1585
19043TIP3    H278621   1.912   2.290  17.137 -0.4489  0.2129  0.7746
19044TIP3   OH278622   4.003   0.376   5.103  0.2476  0.3430  0.5087
19044TIP3    H178623   3.987   0.345   5.014 -1.8895  0.7359  0.7225
19044TIP3    H278624   4.070   0.443   5.092  0.3688  0.0583 -0.7320
19045TIP3   OH278625   3.651   5.585   0.219  0.2358 -0.3923 -0.4124
19045TIP3    H178626   3.585   5.648   0.248  0.3548 -1.2779  1.9543
19045TIP3    H278627   3.711   5.637   0.165 -0.1961  1.3251  0.6691
19046TIP3   OH278628   2.373   4.896   0.361 -0.3441 -0.7461  0.4076
19046TIP3    H178629   2.355   4.970   0.303  1.7811 -0.5101 -0.0322
19046TIP3    H278630   2.380   4.934   0.448  0.2975 -0.4826  0.2453
19047TIP3   OH278631   2.352   3.819   5.867  0.4887 -0.3808  0.0552
19047TIP3    H178632   2.368   3.840   5.959  2.5324  0.1667 -0.3723
19047TIP3    H278633   2.284   3.752   5.869  0.1485 -0.0341  1.9265
19048TIP3   OH278634   2.503   2.082   4.353 -0.0762 -0.4284  0.4535
19048TIP3    H178635   2.424   2.085   4.300  0.9535  0.5604 -1.1299
19048TIP3    H278636   2.483   2.137   4.429 -1.0063 -0.4749  0.2546
19049TIP3   OH278637   1.845   3.321   4.664 -0.4775 -0.8266 -0.1081
19049TIP3    H178638   1.804   3.276   4.738  0.9222  1.0078  1.8913
19049TIP3    H278639   1.776   3.377   4.629 -0.6856 -0.3961  0.9620
19050TIP3   OH278640   4.300   5.579   2.127  0.3686  0.0287  0.1825
19050TIP3    H178641   4.307   5.616   2.039  1.2415  1.0983  0.6877
19050TIP3    H278642   4.281   5.654   2.183  0.6370 -0.5163  1.0178
19051TIP3   OH278643   0.267   6.210  13.149  0.3643  0.5571  0.4273
19051TIP3    H178644   0.237   6.301  13.150  0.3456  0.5506  0.4380
19051TIP3    H278645   0.309   6.200  13.064 -2.3922 -0.3306 -0.9466
19052TIP3   OH278646   0.102   2.294   2.955  0.0429 -0.0897 -0.0388
19052TIP3    H178647   0.036   2.314   3.022  0.0550  2.2857 -0.6399
19052TIP3    H278648   0.178   2.347   2.979 -0.6067  2.4223 -2.8626
19053TIP3   OH278649   4.072   2.829  16.671 -0.4116  0.2340  0.0479
19053TIP3    H178650   4.161   2.798  16.657 -0.8727 -1.0380 -0.1967
19053TIP3    H278651   4.025   2.753  16.706 -1.2830  1.0272  0.6435
19054TIP3   OH278652   4.057   1.651   6.334  0.5546 -0.3093 -0.5398
19054TIP3    H178653   4.020   1.738   6.346  0.2793 -0.6105  1.0765
19054TIP3    H278654   4.083   1.623   6.422 -0.6209 -2.3919 -0.7699
19055TIP3   OH278655   3.106   4.202  15.364 -0.7522  0.0316  0.3633
19055TIP3    H178656   3.014   4.207  15.386 -1.1427  0.2529 -1.1882
19055TIP3    H278657   3.109   4.156  15.280  0.5759 -0.2443  0.5257
19056TIP3   OH278658   2.770   3.725   3.420 -0.0857 -0.2043  0.0511
19056TIP3    H178659   2.692   3.726   3.475  0.2877  0.2937  0.5776
19056TIP3    H278660   2.759   3.648   3.364  0.0036 -1.2939  1.4917
19057TIP3   OH278661   2.504   5.741   5.145  0.2499 -0.7181  0.3317
19057TIP3    H178662   2.453   5.792   5.083  1.1301 -1.9525 -1.4807
19057TIP3    H278663   2.594   5.746   5.114  0.6087 -1.9524  1.0719
19058TIP3   OH278664   1.567   6.276  10.274  0.8748  0.6442  0.2035
19058TIP3    H178665   1.553   6.369  10.285  1.4888  1.1715 -2.5427
19058TIP3    H278666   1.480   6.237  10.279  0.2813  1.7311 -1.1145
19059TIP3   OH278667   2.221   1.013   1.747 -0.1570 -0.1103 -0.4527
19059TIP3    H178668   2.141   0.972   1.714 -0.2912 -0.2907  0.0835
19059TIP3    H278669   2.195   1.053   1.830  1.0080 -3.0880  1.5184
19060TIP3   OH278670   2.573   5.882   1.423  0.2185  0.1494 -0.1544
19060TIP3    H178671   2.490   5.905   1.380  0.4910  0.3433 -0.5913
19060TIP3    H278672   2.587   5.791   1.398  0.5059  0.3380 -0.7065
19061TIP3   OH278673   1.408   2.293   3.572 -0.1153  0.8900 -0.1000
19061TIP3    H178674   1.435   2.364   3.513 -0.0850  1.2437  0.3345
19061TIP3    H278675   1.347   2.241   3.520 -0.2522  1.3226 -0.3779
19062TIP3   OH278676   3.920   2.793   1.264  0.2600 -0.4571  0.1830
19062TIP3    H178677   3.856   2.731   1.230  1.5082 -0.8980 -1.5011
19062TIP3    H278678   3.996   2.740   1.286  0.2546  0.1182  1.6735
19063TIP3   OH278679   2.569   2.107  13.182 -0.1520 -0.4099  0.5174
19063TIP3    H178680   2.474   2.102  13.170 -0.0312 -1.8443  0.0828
19063TIP3    H278681   2.580   2.108  13.277 -0.6576  1.7837  0.6249
19064TIP3   OH278682   6.807   5.342  12.963 -0.2902  0.2857 -0.5360
19064TIP3    H178683   6.851   5.354  13.047 -1.8843  1.3203  0.1999
19064TIP3    H278684   6.736   5.281  12.981 -0.3165  0.0857 -1.2732
19065TIP3   OH278685   3.923   0.305  11.875  0.1294  0.0536  0.5342
19065TIP3    H178686   3.969   0.224  11.852  0.8012  0.8478 -1.1189
19065TIP3    H278687   3.865   0.321  11.800 -2.5074 -0.5928  2.2886
19066TIP3   OH278688   4.309   2.459  16.842 -0.2282  0.2437 -0.3108
19066TIP3    H178689   4.343   2.459  16.932  0.5397  0.0078 -0.5980
19066TIP3    H278690   4.372   2.407  16.793 -0.8743  0.0140 -0.9061
19067TIP3   OH278691   2.061   4.676  11.785 -0.1636 -0.3882  0.5886
19067TIP3    H178692   2.044   4.607  11.849  3.3019 -0.0619  2.1077
19067TIP3    H278693   2.083   4.753  11.838 -0.0564  0.7507 -1.0352
19068TIP3   OH278694   1.393   1.148  11.127 -0.1127  0.2264  0.6547
19068TIP3    H178695   1.318   1.197  11.160  0.8375  2.3546 -0.1306
19068TIP3    H278696   1.356   1.086  11.064 -1.3047  0.3266  1.2268
19069TIP3   OH278697   4.918   3.878   3.865 -0.4568  0.4001  0.0928
19069TIP3    H178698   4.911   3.919   3.951  1.4616  1.0232 -0.0209
19069TIP3    H278699   5.012   3.870   3.849 -0.7686  0.3541 -1.9872
19070TIP3   OH278700   5.226   4.190  14.429 -0.2104 -0.3110  0.0775
19070TIP3    H178701   5.307   4.219  14.471  1.1684 -1.2617 -1.7818
19070TIP3    H278702   5.206   4.258  14.365 -0.9299 -0.0520  0.5685
19071TIP3   OH278703   5.383   1.680   3.879  0.1991 -0.2471  0.0645
19071TIP3    H178704   5.465   1.640   3.909  0.6541  0.4651 -0.2196
19071TIP3    H278705   5.404   1.772   3.868 -0.5486 -0.1254 -0.3714
19072TIP3   OH278706   5.312   0.920  13.528  0.9299 -0.1281  0.0773
19072TIP3    H178707   5.285   0.852  13.590 -1.8421 -0.8466 -1.7504
19072TIP3    H278708   5.408   0.918  13.531  0.9620 -0.6984  3.6115
19073TIP3   OH278709   1.091   5.137  13.895 -0.2684 -0.8798 -0.4210
19073TIP3    H178710   1.103   5.102  13.806 -1.3550 -1.7640 -0.2443
19073TIP3    H278711   1.121   5.068  13.953  2.4441  0.4716 -0.0408
19074TIP3   OH278712   2.692   3.230   2.385 -0.0114 -0.4483  0.3501
19074TIP3    H178713   2.676   3.138   2.365  0.8129 -0.6647  0.6426
19074TIP3    H278714   2.698   3.234   2.480  0.6294 -0.2102  0.3022
19075TIP3   OH278715   3.673   6.211  16.970  0.0417 -0.2944 -0.7544
19075TIP3    H178716   3.612   6.206  17.044  0.2453 -2.3862 -0.6807
19075TIP3    H278717   3.645   6.289  16.922 -1.7918 -0.3893  0.0577
19076TIP3   OH278718   1.608   3.325   2.139 -0.1856 -0.1944  0.4358
19076TIP3    H178719   1.630   3.390   2.073 -1.3364 -0.6101 -0.3793
19076TIP3    H278720   1.514   3.311   2.130 -0.0187 -1.7549  0.7830
19077TIP3   OH278721   6.612   0.709  13.612 -0.0748  0.1541  0.0716
19077TIP3    H178722   6.543   0.732  13.550  0.7720  1.7985 -0.3213
19077TIP3    H278723   6.588   0.755  13.692  1.0781  1.6339 -0.3889
19078TIP3   OH278724   6.257   4.103  11.024  0.3118 -0.0393 -0.6355
19078TIP3    H178725   6.185   4.119  11.085 -0.1345  1.9291 -1.6133
19078TIP3    H278726   6.263   4.007  11.019 -0.0517 -0.2649  1.9527
19079TIP3   OH278727   1.481   3.776  10.401 -0.4039  0.0661 -0.6080
19079TIP3    H178728   1.442   3.856  10.367 -2.1633  0.1413  1.3872
19079TIP3    H278729   1.540   3.806  10.471 -0.9421 -0.3359  0.0347
19080TIP3   OH278730   4.907   3.002   5.177 -0.4011 -0.4026 -0.0744
19080TIP3    H178731   4.883   3.041   5.093  0.0914  0.7175  0.2860
19080TIP3    H278732   4.830   3.016   5.233 -0.3184 -0.1844 -0.0176
19081TIP3   OH278733   0.806   4.203   0.693  0.2852  0.1068 -0.3230
19081TIP3    H178734   0.723   4.244   0.717  0.4933 -0.1443  0.8773
19081TIP3    H278735   0.873   4.264   0.725  0.6318 -1.5029  2.3757
19082TIP3   OH278736   1.233   3.315   0.725  0.7015 -0.1769 -0.2039
19082TIP3    H178737   1.317   3.342   0.686  1.5800 -2.8365 -0.3889
19082TIP3    H278738   1.189   3.267   0.655 -0.6669  0.5618  0.1322
19083TIP3   OH278739   3.886   5.503  14.246  0.8210  0.1658 -0.1427
19083TIP3    H178740   3.939   5.507  14.167  1.1456  1.1679  0.1125
19083TIP3    H278741   3.891   5.411  14.275  1.8263  0.1004 -0.5080
19084TIP3   OH278742   1.941   6.763   3.744 -0.1364 -0.3011  0.5761
19084TIP3    H178743   1.868   6.825   3.739 -1.1143 -1.4633  0.0420
19084TIP3    H278744   2.019   6.817   3.732 -0.8605  1.0343  1.5705
19085TIP3   OH278745   6.644   3.593   0.194 -0.3900 -0.5097  0.3698
19085TIP3    H178746   6.578   3.578   0.261  1.2755 -1.7881  1.8114
19085TIP3    H278747   6.634   3.518   0.135  0.1472 -1.0152  0.9158
19086TIP3   OH278748   2.566   6.684   3.746  0.0400 -0.0447 -0.3949
19086TIP3    H178749   2.481   6.712   3.780  0.3158  0.6947 -0.2806
19086TIP3    H278750   2.581   6.739   3.669 -0.1248 -1.0138 -1.1431
19087TIP3   OH278751   0.339   6.815  13.559 -0.3931  0.0567 -0.5224
19087TIP3    H178752   0.322   6.888  13.619  0.2264 -1.0570  1.0691
19087TIP3    H278753   0.410   6.847  13.503 -0.7442  0.9907 -0.4511
19088TIP3   OH278754   2.060   6.050   1.286  0.1604  0.0606  0.3545
19088TIP3    H178755   1.973   6.016   1.309  0.1512  0.8320  1.5261
19088TIP3    H278756   2.117   5.974   1.289 -0.3840 -0.3688  0.0622
19089TIP3   OH278757   1.485   6.447   1.870 -0.2105  0.2989  0.2813
19089TIP3    H178758   1.434   6.452   1.951 -0.5060 -0.2845  0.1376
19089TIP3    H278759   1.533   6.530   1.867 -2.8432  1.9179 -0.7299
19090TIP3   OH278760   1.914   2.473  14.682  0.0393 -0.4497  0.4006
19090TIP3    H178761   1.984   2.515  14.634  0.8282 -2.0382  0.0887
19090TIP3    H278762   1.847   2.541  14.692  1.6044  1.1020  0.7282
19091TIP3   OH278763   4.890   4.533  16.334 -0.4364 -0.6521  0.1922
19091TIP3    H178764   4.827   4.555  16.403  0.1005  0.8991  0.2244
19091TIP3    H278765   4.943   4.463  16.372 -1.9342 -1.8121  0.2586
19092TIP3   OH278766   2.327   1.658   5.630  0.9319 -0.5151 -0.1118
19092TIP3    H178767   2.382   1.635   5.556  1.2495  3.6685 -1.4853
19092TIP3    H278768   2.387   1.696   5.694  0.1510  0.3615  0.1330
19093TIP3   OH278769   4.294   2.333  13.591 -0.0747  0.2263  0.0254
19093TIP3    H178770   4.312   2.310  13.682  2.3853  0.7287 -0.2764
19093TIP3    H278771   4.273   2.427  13.594 -0.1129  0.2163  0.0822
19094TIP3   OH278772   2.475   5.107  13.406  0.3455 -0.4105  0.1691
19094TIP3    H178773   2.539   5.177  13.392  0.8963 -0.5085  2.0152
19094TIP3    H278774   2.396   5.152  13.435 -0.0193 -0.3986 -0.8120
19095TIP3   OH278775   3.146   2.131  14.529  0.0235  0.1883 -0.1450
19095TIP3    H178776   3.239   2.112  14.516 -0.1976 -1.8601  0.8246
19095TIP3    H278777   3.109   2.127  14.441  0.9468  1.9422 -0.6678
19096TIP3   OH278778   4.698   3.093   5.621  0.0779 -0.3558  0.1279
19096TIP3    H178779   4.783   3.127   5.651 -0.9487  0.0819  2.8784
19096TIP3    H278780   4.705   2.998   5.630  0.2237 -0.3042  0.6140
19097TIP3   OH278781   0.358   5.579   2.560 -0.0480  0.1256 -0.2328
19097TIP3    H178782   0.371   5.524   2.483 -0.6273  0.9544 -0.9371
19097TIP3    H278783   0.303   5.526   2.618  2.3577 -1.5056  0.7347
19098TIP3   OH278784   0.756   0.461   3.773  0.3385 -0.2441  0.3539
19098TIP3    H178785   0.735   0.530   3.709  1.1353 -1.9071 -1.8000
19098TIP3    H278786   0.746   0.379   3.724 -0.2690 -1.6937  2.7531
19099TIP3   OH278787   6.198   6.073  13.861 -0.5022 -0.2285  0.5747
19099TIP3    H178788   6.240   6.131  13.798 -2.5936 -0.0225 -0.7001
19099TIP3    H278789   6.214   5.985  13.827 -1.8786 -0.1044 -0.4463
19100TIP3   OH278790   3.024   4.991   4.963 -0.3318  0.6570  0.0378
19100TIP3    H178791   2.964   5.036   4.904 -0.3025  0.2137 -0.3340
19100TIP3    H278792   3.099   5.051   4.970 -0.7136  1.1052  0.3214
19101TIP3   OH278793   3.266   1.135   2.322  0.4712 -0.1608  0.3175
19101TIP3    H178794   3.241   1.110   2.411  0.5526  0.2529  0.4628
19101TIP3    H278795   3.206   1.207   2.300  0.2959 -0.4208 -0.0525
19102TIP3   OH278796   6.317   2.948  11.588 -0.1191 -0.3100 -0.3330
19102TIP3    H178797   6.308   2.867  11.638 -2.4805  0.6431  0.9421
19102TIP3    H278798   6.227   2.971  11.563  0.3769  2.3575  0.1030
19103TIP3   OH278799   5.600   0.468  16.231 -0.4231  0.0775 -0.1619
19103TIP3    H178800   5.634   0.556  16.213  0.7391 -0.1863  0.6268
19103TIP3    H278801   5.598   0.463  16.327 -0.1262 -0.8909 -0.2003
19104TIP3   OH278802   1.872   5.484  14.828 -0.3739 -0.1322 -0.4171
19104TIP3    H178803   1.793   5.491  14.775 -0.6134 -0.3403 -0.0994
19104TIP3    H278804   1.932   5.549  14.792 -0.7652  0.1660 -0.5363
19105TIP3   OH278805   6.724   5.392   6.447 -0.0858  0.0895 -0.1960
19105TIP3    H178806   6.710   5.371   6.540 -2.4163 -1.9598 -0.8785
19105TIP3    H278807   6.806   5.349   6.425  0.2556  0.2014  0.7919
19106TIP3   OH278808   6.499   1.026   2.917  0.5574  0.1989  0.0334
19106TIP3    H178809   6.558   0.952   2.934  0.1598 -0.6982 -2.1516
19106TIP3    H278810   6.554   1.091   2.874  0.2104 -0.2207 -1.0756
19107TIP3   OH278811   2.992   1.295  13.132 -0.1665 -0.1813 -0.6746
19107TIP3    H178812   2.905   1.334  13.121 -0.9233 -0.4149  3.2467
19107TIP3    H278813   3.048   1.369  13.153 -0.3136 -0.4519  0.7460
19108TIP3   OH278814   1.442   3.629   6.585  0.2792  0.2869 -0.2700
19108TIP3    H178815   1.440   3.666   6.497  0.4289 -0.2553 -0.5090
19108TIP3    H278816   1.350   3.618   6.609  0.1991 -1.4074 -1.1706
19109TIP3   OH278817   1.212   5.436  16.378 -0.2182  0.0538 -0.3053
19109TIP3    H178818   1.156   5.364  16.406  0.6405  0.1997  1.9636
19109TIP3    H278819   1.205   5.501  16.448  0.7337  1.2328 -1.2561
19110TIP3   OH278820   3.502   3.054  13.807 -0.3103  0.0798  1.3083
19110TIP3    H178821   3.512   3.059  13.902  2.3560  1.1812  1.0402
19110TIP3    H278822   3.494   3.145  13.779 -0.0735 -0.1765  0.3857
19111TIP3   OH278823   0.888   1.978  11.935 -0.2243 -0.5110 -0.6596
19111TIP3    H178824   0.859   2.065  11.910  1.6224  0.2663 -0.2913
19111TIP3    H278825   0.849   1.963  12.021 -0.0655  0.2159 -0.4584
19112TIP3   OH278826   0.176   6.029   2.612 -0.6090 -0.3807 -0.4311
19112TIP3    H178827   0.113   6.020   2.683 -1.6452  2.6047 -0.8426
19112TIP3    H278828   0.249   6.078   2.651 -0.9018  0.7140 -1.2132
19113TIP3   OH278829   1.174   0.226  13.804  0.4744 -0.3666 -0.0202
19113TIP3    H178830   1.126   0.151  13.770  1.8243 -0.4234 -1.9449
19113TIP3    H278831   1.204   0.197  13.891  0.0156 -1.6233 -0.2580
19114TIP3   OH278832   5.461   0.952  12.198 -0.1918  0.2903  0.2912
19114TIP3    H178833   5.477   0.864  12.232  1.6576  0.2957 -0.4236
19114TIP3    H278834   5.371   0.950  12.167  0.3985 -2.0104 -1.5350
19115TIP3   OH278835   3.736   3.240   5.181  0.3093 -0.0399 -0.7978
19115TIP3    H178836   3.649   3.280   5.184 -0.3254 -1.3209 -1.7669
19115TIP3    H278837   3.774   3.260   5.267 -1.1317  0.0860 -0.1702
19116TIP3   OH278838   6.403   0.478  15.280 -0.1574  0.3187 -0.1310
19116TIP3    H178839   6.424   0.399  15.229  0.7877  1.3432 -1.3868
19116TIP3    H278840   6.476   0.537  15.265 -0.7143  1.3456  1.0255
19117TIP3   OH278841   4.224   5.855  17.251  0.3841  0.0303 -0.3546
19117TIP3    H178842   4.161   5.840  17.181 -1.7996  1.5225  1.1675
19117TIP3    H278843   4.283   5.779  17.247  0.3936  0.0862 -3.7559
19118TIP3   OH278844   4.613   2.904  11.538  0.0938 -0.0133 -0.5121
19118TIP3    H178845   4.556   2.863  11.603  0.4527  0.3566  0.0378
19118TIP3    H278846   4.636   2.832  11.479  1.0594 -0.7245  0.6840
19119TIP3   OH278847   1.403   0.689  12.755 -0.5301  0.1959 -0.2333
19119TIP3    H178848   1.316   0.659  12.727 -0.3647 -1.9373  1.2253
19119TIP3    H278849   1.390   0.715  12.847  0.4191 -0.5195  0.1184
19120TIP3   OH278850   4.133   6.368  14.179  0.0404  0.7779 -0.4844
19120TIP3    H178851   4.051   6.382  14.226 -0.7001 -1.0820 -1.1204
19120TIP3    H278852   4.113   6.389  14.088 -0.6623 -2.2874 -1.1799
19121TIP3   OH278853   6.081   2.687  12.453 -0.1547 -0.4578 -0.0653
19121TIP3    H178854   6.112   2.618  12.511 -0.9382 -1.9140 -1.3127
19121TIP3    H278855   5.988   2.668  12.441 -1.5108  3.1903  2.7892
19122TIP3   OH278856   6.078   6.052   2.635 -0.2208  0.4267 -0.0289
19122TIP3    H178857   6.080   6.038   2.730 -0.3785  0.2226 -0.0546
19122TIP3    H278858   6.077   5.964   2.598 -1.5293  0.4873 -0.1847
19123TIP3   OH278859   4.054   0.499   4.245  0.5849  0.3467  0.1298
19123TIP3    H178860   4.021   0.426   4.297 -1.3884  1.2310  0.2218
19123TIP3    H278861   4.149   0.496   4.256  0.5048 -1.8157  0.6119
19124TIP3   OH278862   5.601   6.168  11.048  0.0343 -0.2645  0.0123
19124TIP3    H178863   5.618   6.163  10.954  0.3587 -0.8151  0.1002
19124TIP3    H278864   5.686   6.187  11.087 -0.1913  0.4764  0.1543
19125TIP3   OH278865   5.604   5.611   1.415 -0.0378 -0.0830  0.2487
19125TIP3    H178866   5.677   5.573   1.464  0.5577  0.2266 -0.3770
19125TIP3    H278867   5.586   5.694   1.459  1.2688  0.7540 -0.7060
19126TIP3   OH278868   1.216   2.361   5.862  0.1228  0.2280  0.1331
19126TIP3    H178869   1.172   2.425   5.807  1.7337  1.2079 -0.0891
19126TIP3    H278870   1.263   2.304   5.801 -0.3681 -0.4445  0.3783
19127TIP3   OH278871   2.178   5.743  11.896 -0.2005  0.9487 -0.4759
19127TIP3    H178872   2.094   5.778  11.867 -0.8237 -1.4270 -1.8233
19127TIP3    H278873   2.158   5.692  11.974  0.5995  3.0092  1.1457
19128TIP3   OH278874   6.659   3.462   6.344  0.3105 -0.0137 -0.5134
19128TIP3    H178875   6.687   3.458   6.436 -1.2623 -0.2438 -0.0078
19128TIP3    H278876   6.685   3.378   6.307  0.8141  0.0165 -0.2467
19129TIP3   OH278877   0.137   6.276   3.282  0.3116  0.0353 -0.1224
19129TIP3    H178878   0.104   6.187   3.295  0.9062  0.0330  1.6772
19129TIP3    H278879   0.229   6.271   3.307  0.1543  1.3267  0.8335
19130TIP3   OH278880   1.879   3.996   2.720  0.7287 -0.3240  0.1060
19130TIP3    H178881   1.825   3.996   2.640 -0.5327  0.4952  0.9237
19130TIP3    H278882   1.850   3.919   2.769 -0.7756  0.8726  1.1981
19131TIP3   OH278883   4.791   6.001  11.829 -0.1121 -0.3418  0.3639
19131TIP3    H178884   4.830   6.000  11.742 -1.8790  1.5742 -0.5490
19131TIP3    H278885   4.865   6.010  11.889  1.0414  0.2568 -1.0796
19132TIP3   OH278886   5.545   5.962   3.795  0.1458  0.2514  0.4260
19132TIP3    H178887   5.510   5.896   3.855  1.7442  1.0416  2.3509
19132TIP3    H278888   5.477   6.029   3.790 -0.8882 -0.8177 -0.4079
19133TIP3   OH278889   1.524   6.272  12.119 -0.4651 -0.0771  0.1263
19133TIP3    H178890   1.430   6.268  12.138 -0.4960 -0.2249 -0.0529
19133TIP3    H278891   1.536   6.212  12.046 -0.3054  0.2787 -0.1459
19134TIP3   OH278892   3.229   6.709   2.818 -0.1555 -0.0473  0.2039
19134TIP3    H178893   3.223   6.711   2.914 -2.6504  0.1552  0.1041
19134TIP3    H278894   3.289   6.780   2.797 -0.6832  0.8611  1.5910
19135TIP3   OH278895   2.678   4.424  11.521 -0.3013 -0.2422  1.0898
19135TIP3    H178896   2.641   4.512  11.529  0.2192  0.1139 -0.2059
19135TIP3    H278897   2.621   4.370  11.576 -1.5967  0.6285  0.6633
19136TIP3   OH278898   2.277   0.957  11.978  0.3209  0.2075 -0.3639
19136TIP3    H178899   2.257   1.032  12.034 -0.0646 -1.4349  1.8472
19136TIP3    H278900   2.364   0.929  12.007 -1.6567 -3.4630  2.9894
19137TIP3   OH278901   2.107   1.513   1.225 -0.1658 -0.0659  0.2866
19137TIP3    H178902   2.080   1.538   1.313 -0.2677  1.1622 -0.0727
19137TIP3    H278903   2.050   1.565   1.167  0.3943 -0.3034 -0.4922
19138TIP3   OH278904   1.469   2.165   4.907 -0.8418 -0.2623 -0.2382
19138TIP3    H178905   1.482   2.088   4.852 -0.0219 -0.8587  0.7456
19138TIP3    H278906   1.539   2.225   4.882 -1.3769  0.1024 -0.8838
19139TIP3   OH278907   0.047   1.469   1.827  0.3322  0.2439  0.3997
19139TIP3    H178908   0.003   1.398   1.874  0.4008 -1.7867 -2.3302
19139TIP3    H278909  -0.021   1.505   1.769  0.7324  1.2758  0.5583
19140TIP3   OH278910   2.436   3.657   6.317 -0.0113  0.0148  0.1550
19140TIP3    H178911   2.502   3.706   6.366  0.8873 -0.5698 -0.4172
19140TIP3    H278912   2.361   3.715   6.311  0.4238  0.6659  0.9152
19141TIP3   OH278913   1.882   5.816   1.799  0.0490  0.3190  0.1926
19141TIP3    H178914   1.977   5.823   1.800  0.0206  0.8758  1.2057
19141TIP3    H278915   1.852   5.896   1.842 -0.9035  0.4229 -0.6243
19142TIP3   OH278916   2.403   1.903   3.984 -0.1303 -0.2298 -0.0199
19142TIP3    H178917   2.318   1.941   4.006  0.4598 -0.5699  3.4413
19142TIP3    H278918   2.428   1.945   3.902 -3.7551 -0.4174 -1.3709
19143TIP3   OH278919   5.444   5.618   2.735 -0.0491  0.2118 -0.0375
19143TIP3    H178920   5.530   5.600   2.697 -0.7424  0.4532 -1.8221
19143TIP3    H278921   5.388   5.549   2.700 -0.3308 -0.7970  2.2511
19144TIP3   OH278922   6.201   5.204   0.112  0.4590  0.3166  0.4731
19144TIP3    H178923   6.210   5.186   0.205 -1.0613  2.4131  1.1089
19144TIP3    H278924   6.171   5.122   0.074 -2.2150  0.2240  2.4680
19145TIP3   OH278925   2.624   5.285  14.362  0.3496  0.3660 -0.5391
19145TIP3    H178926   2.643   5.295  14.455 -0.8589 -3.0912  0.2367
19145TIP3    H278927   2.698   5.234  14.328  0.4321  0.9951 -1.3390
19146TIP3   OH278928   6.613   5.761   3.322 -0.4327  0.4541 -0.0701
19146TIP3    H178929   6.586   5.685   3.373  1.4274 -0.2870 -0.1067
19146TIP3    H278930   6.665   5.814   3.383 -0.2088  0.7680 -0.5241
19147TIP3   OH278931   0.774   4.361   3.959 -0.1908 -1.2688 -0.0190
19147TIP3    H178932   0.786   4.267   3.946 -0.8973 -1.3136 -0.4265
19147TIP3    H278933   0.819   4.380   4.041  1.4506 -1.6375 -0.7829
19148TIP3   OH278934   0.547   4.309  16.200 -0.1548 -0.0141 -0.4595
19148TIP3    H178935   0.558   4.246  16.271 -3.2582  0.4503  0.5655
19148TIP3    H278936   0.606   4.278  16.131  0.8982 -2.0646  1.2536
19149TIP3   OH278937   0.639   4.009  15.296 -0.2704 -0.6515  0.3431
19149TIP3    H178938   0.587   3.936  15.329 -4.2946  0.7213 -2.2381
19149TIP3    H278939   0.646   3.993  15.202  1.0110  1.0460  0.1010
19150TIP3   OH278940   0.229   1.235  15.982 -0.2065  0.2172  0.4056
19150TIP3    H178941   0.222   1.185  15.901 -0.1116  2.5802 -1.1786
19150TIP3    H278942   0.159   1.300  15.976 -1.1517 -0.4484  2.9681
19151TIP3   OH278943   0.908   3.211   3.206 -0.4209 -0.0518 -0.3861
19151TIP3    H178944   0.997   3.175   3.211 -0.0350  0.9325  0.3210
19151TIP3    H278945   0.886   3.232   3.297  0.1626  3.2113 -0.8698
19152TIP3   OH278946   1.635   2.413   5.788  0.8353  0.2973  0.2538
19152TIP3    H178947   1.606   2.432   5.877  2.0882 -0.3892  0.8399
19152TIP3    H278948   1.562   2.440   5.732 -0.8780 -1.2171  1.6157
19153TIP3   OH278949   4.218   0.769   4.335  0.5742  0.5709  0.2791
19153TIP3    H178950   4.262   0.713   4.398 -0.7012  1.1486  1.7357
19153TIP3    H278951   4.203   0.712   4.259  2.4416 -0.0326  0.3014
19154TIP3   OH278952   2.631   0.522  12.246  0.0363  0.7575  0.0485
19154TIP3    H178953   2.643   0.588  12.315 -0.9331  0.1640  0.8145
19154TIP3    H278954   2.579   0.565  12.179 -3.8186 -0.1899  2.1671
19155TIP3   OH278955   3.928   1.757   1.946 -0.1719 -0.6039 -0.4396
19155TIP3    H178956   3.910   1.738   1.854  1.7067 -0.4539 -0.8809
19155TIP3    H278957   3.975   1.680   1.977  0.2225 -0.1655  0.0650
19156TIP3   OH278958   5.744   1.678   4.809 -0.3948 -0.6185 -0.8664
19156TIP3    H178959   5.680   1.678   4.738 -1.2332  0.4576 -0.1497
19156TIP3    H278960   5.695   1.706   4.886  0.9416  0.3431 -0.3072
19157TIP3   OH278961   4.649   5.668  17.040 -0.1365 -0.0307 -0.2266
19157TIP3    H178962   4.585   5.736  17.061 -0.6509 -0.4442 -0.4203
19157TIP3    H278963   4.596   5.596  17.004  0.5041 -0.1558 -0.9264
19158TIP3   OH278964   4.000   3.731  16.103  0.2774 -0.3255  0.1897
19158TIP3    H178965   4.056   3.702  16.031 -0.4272 -0.4468 -0.3197
19158TIP3    H278966   3.968   3.817  16.076  2.2584  0.9565  1.6353
19159TIP3   OH278967   2.252   3.467   3.366  0.1171  0.0462 -0.0357
19159TIP3    H178968   2.279   3.392   3.420 -0.9539 -0.6006 -0.3729
19159TIP3    H278969   2.253   3.434   3.277 -0.1688  0.4975 -0.2063
19160TIP3   OH278970   6.676   1.550   2.475 -0.1427 -0.1180 -0.1611
19160TIP3    H178971   6.674   1.463   2.437 -0.9014  0.2797 -1.0773
19160TIP3    H278972   6.655   1.537   2.567  1.6242 -1.0932  0.1368
19161TIP3   OH278973   1.354   1.290  12.522 -0.4250 -0.2817  0.1359
19161TIP3    H178974   1.441   1.329  12.523 -0.7579  0.5457  1.8983
19161TIP3    H278975   1.353   1.233  12.446  2.1234 -1.3976  0.8507
19162TIP3   OH278976   2.551   2.701   1.341 -0.2503 -0.0839  0.3585
19162TIP3    H178977   2.493   2.763   1.384  0.2274  0.6782 -0.0746
19162TIP3    H278978   2.636   2.745   1.338  0.2257 -0.9626  0.4986
19163TIP3   OH278979   5.312   2.667  17.001 -0.1194 -0.0792  0.3480
19163TIP3    H178980   5.316   2.760  17.020 -0.1642 -0.0384  0.1628
19163TIP3    H278981   5.393   2.631  17.037 -0.5264 -0.1257  1.2482
19164TIP3   OH278982   6.384   4.085   1.837 -0.3650  0.0565 -0.7810
19164TIP3    H178983   6.448   4.102   1.768  0.6408  1.6422  0.4445
19164TIP3    H278984   6.419   4.010   1.884 -0.0326  0.1570 -0.8597
19165TIP3   OH278985   1.038   0.857   2.425 -0.1577  0.8126 -0.5238
19165TIP3    H178986   1.099   0.785   2.409 -0.2893  0.3436  0.9111
19165TIP3    H278987   0.962   0.836   2.370 -0.4802 -0.5508  0.3796
19166TIP3   OH278988   4.176   4.957   5.900  0.2619  0.7449 -0.1532
19166TIP3    H178989   4.134   4.950   5.985 -0.2607 -0.5128 -0.4869
19166TIP3    H278990   4.267   4.930   5.915  0.0817  0.1869 -0.0558
19167TIP3   OH278991   2.384   5.287   3.924 -0.1806 -0.0294 -0.2138
19167TIP3    H178992   2.327   5.214   3.896 -0.0437 -0.9440  1.7134
19167TIP3    H278993   2.323   5.360   3.937 -0.4947 -0.1402 -0.9694
19168TIP3   OH278994   4.488   3.720  13.056  0.6020 -0.0916  0.1061
19168TIP3    H178995   4.484   3.815  13.066 -0.1744 -0.3674  3.1768
19168TIP3    H278996   4.578   3.697  13.078  0.5497 -0.1597  0.2460
19169TIP3   OH278997   0.598   4.488  13.416  0.1412  0.2651  0.1674
19169TIP3    H178998   0.596   4.405  13.368  3.0158  1.3026 -2.0145
19169TIP3    H278999   0.525   4.538  13.380  0.0790 -0.3087 -0.5375
19170TIP3   OH279000   0.516   3.765  16.200  0.1848 -0.3351 -0.9112
19170TIP3    H179001   0.598   3.737  16.240  0.2254 -0.2750 -0.9539
19170TIP3    H279002   0.540   3.793  16.112 -0.0685 -1.6021 -1.4071
19171TIP3   OH279003   4.793   0.484  14.026  0.2530  0.7544  0.3572
19171TIP3    H179004   4.844   0.527  14.095 -1.3650  2.4119  0.5835
19171TIP3    H279005   4.832   0.516  13.944 -0.0842  1.5955  0.5233
19172TIP3   OH279006   6.725   5.599  11.748 -0.2712  0.1615  0.7890
19172TIP3    H179007   6.803   5.648  11.722 -0.2223 -0.6164 -0.5978
19172TIP3    H279008   6.755   5.508  11.753 -0.8412 -0.0011  1.3314
19173TIP3   OH279009   5.946   2.371   5.298  0.2364  0.2080 -0.1832
19173TIP3    H179010   5.889   2.306   5.338  1.7447 -0.5057  0.8856
19173TIP3    H279011   5.956   2.438   5.366  1.4454 -0.1658  0.0174
19174TIP3   OH279012   4.611   5.203   4.952  0.1449  0.3914 -0.0888
19174TIP3    H179013   4.608   5.113   4.983  0.4001  0.5322  0.3552
19174TIP3    H279014   4.705   5.219   4.937  0.3752  1.3160  2.0489
19175TIP3   OH279015   4.632   3.368   0.302  0.4216  0.6809 -0.2149
19175TIP3    H179016   4.557   3.312   0.323  0.7441  0.5981  0.7770
19175TIP3    H279017   4.696   3.349   0.371  2.3714 -1.0783 -2.2989
19176TIP3   OH279018   2.943   6.186  12.241  0.0083 -0.4002 -0.1564
19176TIP3    H179019   3.009   6.220  12.301  0.5609 -1.0525 -0.3737
19176TIP3    H279020   2.885   6.132  12.295 -1.2650  1.3551  0.3117
19177TIP3   OH279021   2.585   2.660  11.575  0.2488  0.2181  0.2480
19177TIP3    H179022   2.569   2.620  11.489  1.4880 -0.6644  0.4099
19177TIP3    H279023   2.654   2.724  11.560  1.8427 -1.2822  0.9012
19178TIP3   OH279024   3.808   0.035   4.828 -0.1528 -0.4017 -0.0786
19178TIP3    H179025   3.751   0.048   4.904  0.1730  1.5713 -0.1023
19178TIP3    H279026   3.748   0.033   4.753 -0.3453 -0.4224  0.0763
19179TIP3   OH279027   4.383   6.202   0.284  0.3948 -0.1813 -0.1544
19179TIP3    H179028   4.316   6.265   0.256 -0.3990 -0.1926  1.5629
19179TIP3    H279029   4.345   6.116   0.265  1.3387 -0.2093 -2.1878
19180TIP3   OH279030   3.487   3.521   3.783  0.0951  0.0770 -0.0407
19180TIP3    H179031   3.498   3.591   3.720 -0.0028 -1.4994 -1.9062
19180TIP3    H279032   3.418   3.552   3.842 -1.0797  0.9168 -1.7647
19181TIP3   OH279033   6.639   0.580  13.366 -0.2659 -0.3090  0.0709
19181TIP3    H179034   6.641   0.651  13.431 -1.1258 -0.9751  0.8632
19181TIP3    H279035   6.696   0.512  13.403 -3.3162 -2.1140  1.9456
19182TIP3   OH279036   0.509   3.825  15.510 -0.1358  0.0645 -0.2913
19182TIP3    H179037   0.482   3.896  15.567 -0.6902 -0.2320 -0.1766
19182TIP3    H279038   0.505   3.747  15.566 -1.5723 -0.3711 -0.9629
19183TIP3   OH279039   3.385   3.919  12.683 -0.5220  0.1308  0.2721
19183TIP3    H179040   3.466   3.962  12.708  1.4150 -1.8442 -2.1487
19183TIP3    H279041   3.378   3.844  12.742 -0.1084 -0.2022 -0.1028
19184TIP3   OH279042   5.788   4.276   0.755 -0.4843 -0.6743 -0.5085
19184TIP3    H179043   5.788   4.288   0.660  0.2859 -0.0974 -0.4412
19184TIP3    H279044   5.765   4.362   0.790  2.4480  0.0495 -0.0933
19185TIP3   OH279045   1.388   3.200   3.455  0.1975  0.3701  0.8548
19185TIP3    H179046   1.472   3.227   3.494  0.2521 -0.6072  1.4413
19185TIP3    H279047   1.413   3.150   3.378  0.2508 -1.3580  1.9282
19186TIP3   OH279048   3.782   4.689   3.204 -0.2741  0.4948 -0.1545
19186TIP3    H179049   3.845   4.725   3.141  0.3777  0.1285  0.2665
19186TIP3    H279050   3.784   4.751   3.277  0.8549 -0.3377  0.5750
19187TIP3   OH279051   4.594   2.539   0.364  0.6154  0.3236 -0.4408
19187TIP3    H179052   4.632   2.520   0.450  1.3926  0.7700 -0.6767
19187TIP3    H279053   4.641   2.483   0.303  0.9512  0.9309 -0.7449
19188TIP3   OH279054   2.033   1.659  17.276 -0.5380  0.0012  0.3410
19188TIP3    H179055   2.074   1.600  17.213 -0.0493  0.7888 -0.1019
19188TIP3    H279056   1.987   1.724  17.222  2.0654  2.2674  0.6388
19189TIP3   OH279057   4.307   0.443   5.755  0.5627  0.0492  0.1421
19189TIP3    H179058   4.398   0.457   5.781  1.1464 -2.0846 -0.6101
19189TIP3    H279059   4.288   0.353   5.781 -1.6787  0.7397  1.1644
19190TIP3   OH279060   0.671   5.682   0.734 -0.1589  0.2387 -0.6352
19190TIP3    H179061   0.656   5.770   0.701  0.9364  0.6991  0.0187
19190TIP3    H279062   0.761   5.684   0.766 -0.6528 -0.6277  0.9180
19191TIP3   OH279063   3.564   1.210  15.500 -0.7216 -0.1004  0.1456
19191TIP3    H179064   3.504   1.150  15.545 -1.5413  1.5979  1.4597
19191TIP3    H279065   3.513   1.244  15.427 -0.9770  0.4414  0.5626
19192TIP3   OH279066   3.727   3.993  10.774 -0.0840 -0.5871 -0.3842
19192TIP3    H179067   3.799   3.958  10.721  0.9992  0.2843  0.4770
19192TIP3    H279068   3.729   3.941  10.854 -0.9053 -1.0440 -0.6433
19193TIP3   OH279069   3.156   4.999  12.880  0.2052  0.4077  0.5213
19193TIP3    H179070   3.217   4.959  12.943 -1.4636 -1.7598  0.8757
19193TIP3    H279071   3.180   4.960  12.796  0.9686  1.5669  0.1866
19194TIP3   OH279072   4.090   6.510  11.751  0.4397 -0.0541  0.1029
19194TIP3    H179073   4.100   6.415  11.763  0.0018 -0.0543  0.4810
19194TIP3    H279074   4.126   6.527  11.664  0.4161 -0.5838 -0.0136
19195TIP3   OH279075   1.265   4.089  14.994 -0.8751 -0.2182 -0.3337
19195TIP3    H179076   1.315   4.009  14.978  0.0125  0.2976 -0.2225
19195TIP3    H279077   1.228   4.077  15.082  0.9262  0.3110  0.5384
19196TIP3   OH279078   5.029   1.031  15.106 -0.8831  0.2041 -0.4800
19196TIP3    H179079   5.037   1.048  15.199 -0.7835  1.6046 -0.7287
19196TIP3    H279080   4.972   1.101  15.073 -1.1690 -0.4461 -1.4248
19197TIP3   OH279081   2.252   2.345   2.095  0.1908  0.0062 -0.6556
19197TIP3    H179082   2.317   2.368   2.030 -2.0627  2.0491 -2.3640
19197TIP3    H279083   2.257   2.414   2.161  1.0154 -0.9066  0.2846
19198TIP3   OH279084   4.153   4.268  11.419  0.4828  0.2199 -0.7041
19198TIP3    H179085   4.234   4.314  11.399  1.0472 -0.8710 -1.0145
19198TIP3    H279086   4.181   4.180  11.446 -0.5927 -0.1738 -0.8054
19199TIP3   OH279087   5.304   0.889  14.541 -0.2748 -0.3315 -0.7384
19199TIP3    H179088   5.252   0.911  14.464  0.1435 -1.4928 -1.3838
19199TIP3    H279089   5.395   0.888  14.510  0.0318  0.4139  0.0765
19200TIP3   OH279090   3.927   5.909  13.511  0.0055 -0.0652 -0.3221
19200TIP3    H179091   4.010   5.954  13.495 -0.4324  1.0350  0.3574
19200TIP3    H279092   3.924   5.898  13.606 -0.8522  0.3558 -0.2936
19201TIP3   OH279093   0.065   4.381  12.589 -0.5942  0.5643 -0.1983
19201TIP3    H179094   0.027   4.378  12.501  0.0796  1.1676 -0.5232
19201TIP3    H279095   0.035   4.300  12.631  0.2340 -0.4331 -1.4663
19202TIP3   OH279096   2.241   1.057   2.962 -0.2364  0.1163 -0.1691
19202TIP3    H179097   2.238   1.059   2.867  1.6097  0.3261 -0.2587
19202TIP3    H279098   2.165   1.108   2.990  0.6312  2.3734 -1.5891
19203TIP3   OH279099   6.718   0.118   3.358  0.1536 -0.9294  0.1484
19203TIP3    H179100   6.668   0.038   3.373  0.4767 -1.2307 -0.3660
19203TIP3    H279101   6.709   0.167   3.440 -1.4667 -0.7039 -0.1222
19204TIP3   OH279102   0.463   0.349  10.809  0.7875  0.0304  1.2401
19204TIP3    H179103   0.378   0.328  10.770  0.3470  0.7833  1.7721
19204TIP3    H279104   0.527   0.309  10.750  0.1902  1.9599 -0.8626
19205TIP3   OH279105   6.180   5.031   2.079 -0.0303  0.3315 -0.7536
19205TIP3    H179106   6.139   5.036   1.993 -0.0117 -0.5296 -0.8156
19205TIP3    H279107   6.254   4.972   2.067  0.3246  0.6703 -0.2800
19206TIP3   OH279108   3.685   0.574  12.302  0.5344  0.4510 -0.4869
19206TIP3    H179109   3.720   0.629  12.371 -2.4051  0.9912  0.7181
19206TIP3    H279110   3.695   0.625  12.222  2.2487  0.6093 -0.2081
19207TIP3   OH279111   4.469   4.285  13.133 -0.4528  0.6582  0.4082
19207TIP3    H179112   4.385   4.265  13.093  0.2925 -1.4703 -0.2314
19207TIP3    H279113   4.465   4.379  13.151 -3.2992  0.4595  1.3016
19208TIP3   OH279114   4.960   5.687  10.513  0.7797  0.1276 -0.0403
19208TIP3    H179115   4.917   5.605  10.488  0.6790 -0.0845  0.8162
19208TIP3    H279116   5.053   5.666  10.516  0.5928 -0.5328  2.2721
19209TIP3   OH279117   0.309   0.239  13.725  0.1731 -0.4598 -0.1415
19209TIP3    H179118   0.279   0.157  13.764  1.0102 -0.3102  0.8622
19209TIP3    H279119   0.315   0.300  13.799  1.1126  0.0415 -0.6203
19210TIP3   OH279120   5.009   0.374  16.530  0.3144 -0.1338  0.3739
19210TIP3    H179121   4.949   0.375  16.455  0.4723 -1.9956  0.1666
19210TIP3    H279122   5.090   0.411  16.497  0.6963 -1.8135 -0.7245
19211TIP3   OH279123   0.610   3.825  11.406  0.8635  0.4648  1.0743
19211TIP3    H179124   0.530   3.803  11.453 -0.7062  1.2000 -1.0658
19211TIP3    H279125   0.663   3.745  11.407 -0.6575 -0.5677  1.1134
19212TIP3   OH279126   3.515   5.370   5.102  0.6179 -0.1959 -0.1807
19212TIP3    H179127   3.465   5.374   5.021  0.8577 -0.5003 -0.3456
19212TIP3    H279128   3.561   5.286   5.098  0.8236 -0.1033  0.1560
19213TIP3   OH279129   5.468   0.030   3.161 -0.4504  0.5678  0.0149
19213TIP3    H179130   5.510   0.077   3.089  0.1104  1.2910  0.7970
19213TIP3    H279131   5.451   0.097   3.227 -0.1816 -0.2202  0.9044
19214TIP3   OH279132   1.217   0.389  14.622  0.1599  0.3066  0.4162
19214TIP3    H179133   1.144   0.413  14.679 -1.7612 -1.8571 -0.9564
19214TIP3    H279134   1.203   0.296  14.603  1.9880  0.3914 -1.7530
19215TIP3   OH279135   3.279   6.476   1.804  0.3387 -0.2450 -0.4433
19215TIP3    H179136   3.344   6.461   1.872  0.8371  0.6833 -0.6948
19215TIP3    H279137   3.224   6.398   1.805  1.5103 -1.0855 -0.2872
19216TIP3   OH279138   0.167   2.044   4.249  0.3894 -0.0187  0.1332
19216TIP3    H179139   0.225   1.983   4.202 -1.5096 -1.3297 -0.6359
19216TIP3    H279140   0.111   2.081   4.181  0.1650  1.0877  0.8863
19217TIP3   OH279141   0.948   6.140   4.379 -0.4524  0.2808  0.1083
19217TIP3    H179142   0.940   6.206   4.310 -0.6378 -0.5315 -0.6659
19217TIP3    H279143   0.861   6.139   4.421 -0.2645  0.9492  0.5260
19218TIP3   OH279144   4.281   3.856  11.909 -0.3872  0.5255  0.0630
19218TIP3    H179145   4.198   3.809  11.920  0.1162 -0.2398  0.7721
19218TIP3    H279146   4.346   3.786  11.896  0.0694  1.1412 -1.0669
19219TIP3   OH279147   3.260   1.024   3.990  0.6562 -0.0899  0.2121
19219TIP3    H179148   3.328   1.082   3.955 -1.1887  1.8303 -0.4096
19219TIP3    H279149   3.306   0.943   4.010  2.6237  0.1137 -2.8505
19220TIP3   OH279150   4.400   0.695  12.669 -0.8649  0.1590 -0.3285
19220TIP3    H179151   4.477   0.653  12.632 -0.4219 -0.1184  0.8570
19220TIP3    H279152   4.341   0.708  12.595 -0.1499 -0.6698 -1.0560
19221TIP3   OH279153   6.757   1.244   4.346 -0.0416  0.0999 -0.0452
19221TIP3    H179154   6.853   1.242   4.345  0.1024  2.8448  0.2227
19221TIP3    H279155   6.732   1.200   4.265  1.2733 -2.8124  0.9898
19222TIP3   OH279156   3.761   2.966   1.952  0.1588 -0.3774 -0.4833
19222TIP3    H179157   3.725   3.039   1.902  0.0401 -0.6998 -0.8687
19222TIP3    H279158   3.745   2.990   2.044  1.1154  0.6026 -0.5577
19223TIP3   OH279159   1.577   3.878   3.701  0.1631  0.1584 -0.2562
19223TIP3    H179160   1.575   3.958   3.648  2.0038  1.9267  2.1159
19223TIP3    H279161   1.657   3.833   3.674  0.6265  0.6001  0.3579
19224TIP3   OH279162   1.916   5.122  16.821  0.3716 -0.5559  0.8834
19224TIP3    H179163   1.952   5.049  16.872 -0.9940 -0.3476  2.2242
19224TIP3    H279164   1.840   5.151  16.871 -1.3676 -0.6305 -1.5273
19225TIP3   OH279165   3.328   3.771  16.971  0.2308  0.0818  0.3495
19225TIP3    H179166   3.397   3.707  16.955  0.7492  0.5433  0.6890
19225TIP3    H279167   3.267   3.727  17.029 -0.3247 -0.7065 -0.7900
19226TIP3   OH279168   2.854   5.445  11.251  0.8245 -0.2310  0.5678
19226TIP3    H179169   2.930   5.425  11.197  1.5992  0.9002  1.2135
19226TIP3    H279170   2.808   5.515  11.204  1.7022  1.0206  1.4997
19227TIP3   OH279171   1.402   5.364  11.751  0.2421  0.3862  0.3285
19227TIP3    H179172   1.487   5.405  11.739  1.5370 -1.7262  1.5948
19227TIP3    H279173   1.386   5.319  11.668  0.2625  0.9379  0.0202
19228TIP3   OH279174   4.783   0.500   0.491  0.1822 -0.4790 -0.1485
19228TIP3    H179175   4.797   0.487   0.585  1.2012 -0.2159 -0.2545
19228TIP3    H279176   4.848   0.565   0.465 -0.4521 -0.1346 -0.9366
19229TIP3   OH279177   4.613   6.011  16.535  0.0230  0.1734  0.8203
19229TIP3    H179178   4.587   6.000  16.626 -0.9539 -2.0365  0.3491
19229TIP3    H279179   4.628   5.922  16.503  2.2103  0.9934 -0.6950
19230TIP3   OH279180   0.494   5.448   1.349 -0.0493  0.2970  0.6308
19230TIP3    H179181   0.539   5.493   1.421  1.7397  1.3629 -1.0518
19230TIP3    H279182   0.534   5.361   1.347  0.2736  0.4414  0.6245
19231TIP3   OH279183   4.575   0.905   5.440  0.2850  0.1585 -0.5202
19231TIP3    H179184   4.644   0.966   5.413  0.1936  1.1777  1.4049
19231TIP3    H279185   4.562   0.849   5.363  2.3468  0.7486 -1.3778
19232TIP3   OH279186   6.347   5.259   1.381 -0.0969 -0.1330  0.9486
19232TIP3    H179187   6.420   5.304   1.338  0.7781 -1.2740  1.1970
19232TIP3    H279188   6.314   5.199   1.314  0.8917 -1.4937  1.6572
19233TIP3   OH279189   4.768   2.320   4.283  0.6815  0.3992  0.4297
19233TIP3    H179190   4.773   2.235   4.325  1.4945  0.7043  0.9727
19233TIP3    H279191   4.736   2.302   4.194  1.0474 -0.4892  0.4722
19234TIP3   OH279192   3.664   1.422  15.066  0.0370  0.5277  0.6508
19234TIP3    H179193   3.598   1.428  15.135 -0.3337  1.2062  0.2376
19234TIP3    H279194   3.619   1.449  14.986  0.6242  0.3220  0.2440
19235TIP3   OH279195   4.881   6.482  11.209 -0.0347  0.2348 -0.3393
19235TIP3    H179196   4.919   6.458  11.125 -1.2465 -0.4121 -0.7259
19235TIP3    H279197   4.837   6.565  11.193 -1.1253 -0.3806 -0.6290
19236TIP3   OH279198   0.903   0.280   5.284  0.0347 -0.7091  0.2663
19236TIP3    H179199   0.888   0.224   5.207 -1.5530 -0.8274  0.6296
19236TIP3    H279200   0.940   0.361   5.248  0.4609 -1.2159 -0.4734
19237TIP3   OH279201   1.334   4.990   1.434 -0.0970 -0.7222 -0.2621
19237TIP3    H179202   1.335   4.938   1.353 -1.1581 -1.2924  0.0575
19237TIP3    H279203   1.318   5.079   1.405 -0.9483 -0.9929 -0.6698
19238TIP3   OH279204   4.880   5.434   3.503  0.2651 -0.5041  0.6929
19238TIP3    H179205   4.798   5.412   3.547  0.1899 -1.8535 -0.0617
19238TIP3    H279206   4.853   5.490   3.430 -0.1683 -1.8603 -0.2379
19239TIP3   OH279207   1.043   0.417   2.342 -0.3012 -0.0268 -0.1489
19239TIP3    H179208   0.960   0.368   2.341  0.2792 -1.0499  0.2983
19239TIP3    H279209   1.056   0.445   2.252 -0.2847 -1.3411 -0.5665
19240TIP3   OH279210   1.137   2.202   5.495 -0.1349  0.4535  0.7873
19240TIP3    H179211   1.224   2.169   5.522  0.5121  1.5583  0.1006
19240TIP3    H279212   1.124   2.280   5.549  0.5717  1.9076 -1.0503
19241TIP3   OH279213   5.367   6.148  14.283 -0.0254 -0.2057 -0.0166
19241TIP3    H179214   5.390   6.097  14.361  0.4469 -4.7164 -2.7333
19241TIP3    H279215   5.277   6.125  14.264  0.5764 -1.1625 -2.0115
19242TIP3   OH279216   0.237   3.824  14.944  0.1230 -0.1597  0.1082
19242TIP3    H179217   0.286   3.776  15.011  0.6143  1.9489  1.3459
19242TIP3    H279218   0.160   3.858  14.989  0.1901  0.8647 -0.5188
19243TIP3   OH279219   5.844   5.425  10.307 -0.1157 -0.4302 -0.0775
19243TIP3    H179220   5.934   5.411  10.277 -0.0761  0.9698 -0.7063
19243TIP3    H279221   5.834   5.521  10.307 -1.6728 -0.5742 -0.2210
19244TIP3   OH279222   4.089   3.384  13.222 -0.2285 -0.2350 -0.1631
19244TIP3    H179223   4.059   3.335  13.145  1.7651 -0.2823 -0.9763
19244TIP3    H279224   4.108   3.472  13.189  0.4728 -0.2054  0.2879
19245TIP3   OH279225   5.991   5.539   4.800  0.2854  0.1308  0.0106
19245TIP3    H179226   5.898   5.545   4.779  0.3080 -2.1917 -1.1670
19245TIP3    H279227   5.999   5.456   4.849  1.9575 -0.7886 -1.6902
19246TIP3   OH279228   6.295   0.117   0.795 -0.0962  0.3626 -0.2137
19246TIP3    H179229   6.271   0.041   0.849  2.0031 -0.6624 -0.6108
19246TIP3    H279230   6.226   0.181   0.812 -0.5581 -0.6545  2.1611
19247TIP3   OH279231   6.722   1.414   5.207  0.9151 -0.0672 -0.2510
19247TIP3    H179232   6.652   1.416   5.142  0.0421  1.2995  0.6762
19247TIP3    H279233   6.761   1.327   5.198  0.5951 -0.0294 -2.3267
19248TIP3   OH279234   5.151   3.254  12.264 -0.3643 -0.2461 -0.0092
19248TIP3    H179235   5.115   3.256  12.175 -0.5091  0.8098  0.0651
19248TIP3    H279236   5.133   3.340  12.300 -1.7495 -1.1582  1.6377
19249TIP3   OH279237   1.296   5.831   2.374 -0.1810 -0.1556 -0.2288
19249TIP3    H179238   1.226   5.767   2.361 -1.1923  0.9829 -0.6008
19249TIP3    H279239   1.333   5.845   2.287 -1.1604  1.0558 -0.4772
19250TIP3   OH279240   3.248   5.633  14.263  0.0771  0.2410 -0.1563
19250TIP3    H179241   3.254   5.593  14.176  1.0774  0.7862 -0.3586
19250TIP3    H279242   3.291   5.571  14.321 -0.9161 -0.2965  0.0286
19251TIP3   OH279243   0.523   2.213   6.105  0.5041  0.4249 -0.1222
19251TIP3    H179244   0.535   2.138   6.046  1.5794  0.4747  0.0137
19251TIP3    H279245   0.432   2.206   6.134  0.2210 -0.0998 -1.1037
19252TIP3   OH279246   3.555   2.976  13.373 -0.6328 -0.1979  0.8044
19252TIP3    H179247   3.512   2.942  13.451 -0.8859  0.0962  0.7970
19252TIP3    H279248   3.526   3.068  13.368 -0.1992 -0.0698  0.6602
19253TIP3   OH279249   5.060   0.704  16.865  0.0606 -0.4579 -0.1042
19253TIP3    H179250   5.100   0.625  16.827 -0.1364 -0.6750  0.1342
19253TIP3    H279251   5.005   0.671  16.936  0.0173 -0.0988  0.0309
19254TIP3   OH279252   3.438   1.919  15.635  0.3817  0.2446 -0.3387
19254TIP3    H179253   3.386   1.969  15.572 -0.4295  0.4840  0.5024
19254TIP3    H279254   3.529   1.936  15.611  0.0844  0.0819 -1.6336
19255TIP3   OH279255   1.546   1.688  12.107  0.2772  0.2986 -0.7578
19255TIP3    H179256   1.484   1.616  12.115  0.5947  0.1853  0.9261
19255TIP3    H279257   1.557   1.699  12.012  1.1615 -2.6801 -1.1126
19256TIP3   OH279258   5.497   1.609  12.788 -0.1927 -0.4570  0.8020
19256TIP3    H179259   5.458   1.624  12.874 -1.8102 -0.0673  0.0511
19256TIP3    H279260   5.434   1.647  12.727  2.0292  1.4525 -0.4682
19257TIP3   OH279261   0.767   6.643  12.614  0.2444 -0.0152 -0.5889
19257TIP3    H179262   0.699   6.673  12.553 -0.8909 -1.8974 -0.3186
19257TIP3    H279263   0.828   6.593  12.559  0.1211 -0.3212 -0.4480
19258TIP3   OH279264   5.307   6.647  14.236 -0.0496  0.2027 -0.4816
19258TIP3    H179265   5.219   6.622  14.206 -0.6720 -0.1065  1.4691
19258TIP3    H279266   5.356   6.565  14.237  0.2356  0.3491 -1.4092
19259TIP3   OH279267   3.829   5.740   4.147 -0.0241  0.5249  0.3042
19259TIP3    H179268   3.818   5.832   4.172 -0.6953  0.3954  0.4987
19259TIP3    H279269   3.845   5.742   4.053 -1.5873  0.7508  0.0212
19260TIP3   OH279270   6.297   6.824  15.654  0.0410  0.1417 -0.4247
19260TIP3    H179271   6.325   6.752  15.597  0.3931 -0.5618  0.6053
19260TIP3    H279272   6.205   6.804  15.675  0.5473 -0.8232  1.0193
19261TIP3   OH279273   4.560   3.415  12.338 -0.2246  0.3889  0.0926
19261TIP3    H179274   4.578   3.482  12.271  2.1815  0.2267  0.4645
19261TIP3    H279275   4.567   3.462  12.421  0.3289 -0.0629  0.3142
19262TIP3   OH279276   1.349   5.626  16.089  0.7399  0.0063 -0.4684
19262TIP3    H179277   1.341   5.676  16.171 -1.4874  0.2651 -0.8008
19262TIP3    H279278   1.269   5.573  16.085  1.4322 -0.9921 -1.8570
19263TIP3   OH279279   5.138   6.569   3.550  0.0461  0.3987 -0.0258
19263TIP3    H179280   5.221   6.545   3.507  0.1566 -1.0917  0.9589
19263TIP3    H279281   5.138   6.665   3.549  0.6214  0.4464 -2.2040
19264TIP3   OH279282   2.716   0.201   1.802 -0.0440  0.3535 -0.1702
19264TIP3    H179283   2.658   0.229   1.731  1.5891  2.2697 -0.8672
19264TIP3    H279284   2.794   0.169   1.758 -0.2404 -1.5634  0.7639
19265TIP3   OH279285   1.565   4.493  13.106 -0.2805  0.7037 -0.4063
19265TIP3    H179286   1.580   4.430  13.036  1.0147  0.4404  0.0729
19265TIP3    H279287   1.539   4.440  13.181  0.9779  0.6779  0.0460
19266TIP3   OH279288   5.412   4.852   5.300 -0.1915 -0.0061  0.0981
19266TIP3    H179289   5.489   4.796   5.289  0.0373  0.2215  0.5337
19266TIP3    H279290   5.442   4.939   5.274 -0.2255  0.1342  0.5254
19267TIP3   OH279291   1.719   1.363  14.160 -0.3088 -0.2221 -0.2117
19267TIP3    H179292   1.784   1.433  14.158  1.4986 -1.8435 -1.6250
19267TIP3    H279293   1.761   1.292  14.208 -1.9885 -0.4894  0.9311
19268TIP3   OH279294   0.036   1.096  13.595  0.4061  0.6764 -0.3164
19268TIP3    H179295   0.124   1.060  13.604  1.2008  2.8318  1.1747
19268TIP3    H279296   0.019   1.141  13.678 -1.7428  1.1160 -0.9220
19269TIP3   OH279297   3.183   6.193  13.514  0.1445 -0.2095  0.2258
19269TIP3    H179298   3.121   6.241  13.460 -0.3811 -1.3483 -0.2245
19269TIP3    H279299   3.130   6.155  13.584  0.5991  0.1157  0.7585
19270TIP3   OH279300   2.177   4.049  15.211 -0.1435  0.5538 -0.0071
19270TIP3    H179301   2.114   4.068  15.142  1.6295  1.1793 -1.5498
19270TIP3    H279302   2.221   4.133  15.227 -0.0539  0.2600  1.4280
19271TIP3   OH279303   4.994   1.025   0.059 -0.4225 -0.7192  0.6059
19271TIP3    H179304   4.993   0.960   0.130  1.3816 -0.4548  0.9095
19271TIP3    H279305   5.034   0.979  -0.015 -1.3655 -0.6750  0.0489
19272TIP3   OH279306   2.101   2.032  12.425 -0.5101  0.5873  0.2704
19272TIP3    H179307   2.013   2.021  12.388 -0.4918  0.9280  0.1188
19272TIP3    H279308   2.102   1.977  12.503 -1.1453  1.2421  0.7516
19273TIP3   OH279309   0.406   2.400  15.064 -0.8113  0.2461  0.0448
19273TIP3    H179310   0.425   2.443  15.147 -2.9203  2.5502 -0.5640
19273TIP3    H279311   0.420   2.307  15.081 -1.1985  0.6484  2.9731
19274TIP3   OH279312   0.720   5.852   1.017  0.3884  0.2048 -0.1761
19274TIP3    H179313   0.783   5.893   1.075  0.6595  0.9597 -0.9785
19274TIP3    H279314   0.744   5.883   0.929 -0.2846 -0.5391 -0.6442
19275TIP3   OH279315   6.463   3.081   4.582  0.0025  0.5695 -0.2246
19275TIP3    H179316   6.542   3.048   4.538  0.2327  1.9824 -0.9379
19275TIP3    H279317   6.447   3.166   4.541 -2.0593  0.2005 -0.2877
19276TIP3   OH279318   5.743   1.356  14.675  0.3140  0.4508  0.2922
19276TIP3    H179319   5.703   1.326  14.593  1.1941  1.4624 -0.5327
19276TIP3    H279320   5.707   1.298  14.742 -0.5103 -0.3243 -0.7940
19277TIP3   OH279321   1.224   2.533   6.634 -0.1658 -0.0348 -0.6065
19277TIP3    H179322   1.223   2.614   6.684 -0.2799 -0.0590 -0.5698
19277TIP3    H279323   1.272   2.555   6.554 -0.2045  0.0713 -0.6007
19278TIP3   OH279324   3.463   6.286  12.258  0.1488 -0.3166 -0.3910
19278TIP3    H179325   3.524   6.268  12.186 -0.0350 -0.1600 -0.5860
19278TIP3    H279326   3.509   6.350  12.313 -1.2117  2.6546 -2.4412
19279TIP3   OH279327   5.647   4.838   0.050  0.2861  0.5414 -0.0235
19279TIP3    H179328   5.724   4.895   0.042  1.4501 -1.0752 -1.0878
19279TIP3    H279329   5.662   4.790   0.131  0.4666  0.1433 -0.2909
19280TIP3   OH279330   2.819   3.657  15.978  0.1413 -0.1931  0.4572
19280TIP3    H179331   2.868   3.739  15.984  2.7031 -1.3571 -2.2707
19280TIP3    H279332   2.744   3.678  15.921  1.2960  0.1321 -1.0101
19281TIP3   OH279333   2.902   4.533  13.446 -0.3967 -0.0196  0.2189
19281TIP3    H179334   2.985   4.576  13.425 -0.6383  0.0654 -0.5716
19281TIP3    H279335   2.906   4.450  13.400 -0.9820  0.2182 -0.2628
19282TIP3   OH279336   2.315   0.733   1.629  0.2613 -0.1161  0.7072
19282TIP3    H179337   2.238   0.763   1.678  0.6326 -0.3744  1.4724
19282TIP3    H279338   2.388   0.781   1.669  0.3210  1.4650 -1.1682
19283TIP3   OH279339   5.191   2.319  12.089  0.3635  0.2171 -0.6266
19283TIP3    H179340   5.144   2.390  12.132 -1.2667 -1.0670 -0.1512
19283TIP3    H279341   5.183   2.337  11.996  1.1971  1.3781 -0.4868
19284TIP3   OH279342   4.702   4.386  14.167  0.1774 -0.0700  0.0234
19284TIP3    H179343   4.723   4.411  14.257 -0.7116  1.3440 -0.1352
19284TIP3    H279344   4.774   4.329  14.141  1.2041  0.6556  1.1415
19285TIP3   OH279345   4.998   1.118  11.647 -0.5372  0.2204 -0.1925
19285TIP3    H179346   4.993   1.064  11.726 -1.5003 -2.1646 -1.7496
19285TIP3    H279347   4.926   1.179  11.654 -0.3519  0.3181  0.9616
19286TIP3   OH279348   4.247   1.155   5.561 -0.6646  0.0009 -0.3237
19286TIP3    H179349   4.184   1.083   5.571 -0.5089  0.0934  1.8439
19286TIP3    H279350   4.220   1.220   5.625  1.6695 -0.0352  0.8410
19287TIP3   OH279351   0.483   2.443   1.549  0.2086 -0.2048  0.0701
19287TIP3    H179352   0.535   2.377   1.504 -0.8691 -0.5128 -0.7728
19287TIP3    H279353   0.401   2.399   1.570  0.3920  0.1620  1.6947
19288TIP3   OH279354   1.386   5.723  11.156  0.3238  0.3707  0.0742
19288TIP3    H179355   1.416   5.805  11.197  0.0348  0.8774 -0.7022
19288TIP3    H279356   1.359   5.749  11.068 -0.9265 -0.3498  0.2236
19289TIP3   OH279357   0.750   3.213   1.764  0.0706 -0.5233  0.3365
19289TIP3    H179358   0.716   3.138   1.716 -1.8159  0.0879  0.6246
19289TIP3    H279359   0.777   3.179   1.849 -2.1039 -0.7072  1.0093
19290TIP3   OH279360   0.565   4.947  11.549 -0.0255 -0.0127  0.6343
19290TIP3    H179361   0.497   5.011  11.572 -0.4074 -0.6347  1.2776
19290TIP3    H279362   0.533   4.906  11.469 -0.1795  0.0284  0.6734
19291TIP3   OH279363   4.679   6.147   4.041 -0.3642 -0.7029 -0.5243
19291TIP3    H179364   4.732   6.068   4.037  1.5217  0.5396 -1.7949
19291TIP3    H279365   4.642   6.157   3.953  0.6817  0.6104 -0.8456
19292TIP3   OH279366   4.235   1.639  13.484  0.1856  0.0717  0.0644
19292TIP3    H179367   4.248   1.733  13.471 -2.2167  0.6754  1.3647
19292TIP3    H279368   4.184   1.610  13.408 -0.6856  0.2699  0.5541
19293TIP3   OH279369   2.108   4.951   3.345 -0.5196 -0.1285  0.8312
19293TIP3    H179370   2.140   4.999   3.422 -1.5690 -1.7060  2.3464
19293TIP3    H279371   2.155   4.868   3.347  0.8927  0.5418 -1.4405
19294TIP3   OH279372   1.359   4.262  16.033  0.8134  0.1365 -0.2362
19294TIP3    H179373   1.406   4.232  15.955  0.5104  1.0366 -0.7855
19294TIP3    H279374   1.331   4.351  16.011  1.9998  0.9892  1.4593
19295TIP3   OH279375   4.580   5.388  16.234 -0.1383  0.4851  0.3981
19295TIP3    H179376   4.674   5.381  16.252 -0.1705 -0.5107  0.2309
19295TIP3    H279377   4.547   5.299  16.246 -1.1109  0.8769  0.7194
19296TIP3   OH279378   5.017   6.531   4.789  0.2233  0.5055 -0.0395
19296TIP3    H179379   4.959   6.542   4.714  0.3571  2.4720  0.1080
19296TIP3    H279380   5.099   6.574   4.764  1.0295 -0.6880  0.4369
19297TIP3   OH279381   4.488   1.133   0.715  0.8710 -0.7758  0.3268
19297TIP3    H179382   4.406   1.137   0.666  0.0697  1.2141  1.6781
19297TIP3    H279383   4.532   1.215   0.695  2.9125 -2.1027 -0.8969
19298TIP3   OH279384   0.703   3.534  16.299 -0.0748 -0.5396 -0.8419
19298TIP3    H179385   0.762   3.609  16.312  1.8745 -2.4452  2.8165
19298TIP3    H279386   0.645   3.535  16.375  0.5199 -3.0792 -0.2519
19299TIP3   OH279387   2.788   2.705   0.255  0.3379 -0.0128 -0.1709
19299TIP3    H179388   2.802   2.770   0.185  1.1151  0.5848  0.5188
19299TIP3    H279389   2.693   2.707   0.270  0.3105  0.7298 -0.3792
19300TIP3   OH279390   5.805   4.090  16.270  0.1092 -0.6580 -0.5413
19300TIP3    H179391   5.744   4.041  16.214 -2.0017  2.2209 -1.0022
19300TIP3    H279392   5.757   4.103  16.351  0.7804  0.2737 -0.2813
19301TIP3   OH279393   0.695   3.179  14.161  0.0497 -0.1165  0.1508
19301TIP3    H179394   0.622   3.217  14.112  0.9677  2.7174  0.7461
19301TIP3    H279395   0.654   3.116  14.221 -1.4715 -0.9573 -1.6912
19302TIP3   OH279396   1.739   2.862  11.069 -0.2712  0.5518 -0.3302
19302TIP3    H179397   1.825   2.832  11.097 -1.0112 -1.6950 -0.3220
19302TIP3    H279398   1.713   2.926  11.136 -0.0373 -1.2741  1.6004
19303TIP3   OH279399   5.781   0.658  16.168  0.3740 -0.3984  0.0255
19303TIP3    H179400   5.832   0.700  16.099  0.3547 -1.2162 -0.5043
19303TIP3    H279401   5.842   0.597  16.209  0.1895 -0.4156  0.2768
19304TIP3   OH279402   5.434   3.827   4.095  0.1880 -0.4494  0.0502
19304TIP3    H179403   5.504   3.776   4.136  0.8617  0.2493 -0.2057
19304TIP3    H279404   5.479   3.884   4.033 -0.4766  0.7904  0.6583
19305TIP3   OH279405   1.304   5.995   0.751  0.3430 -0.0825 -0.2975
19305TIP3    H179406   1.325   6.088   0.748 -0.5161  0.1372  0.2600
19305TIP3    H279407   1.389   5.952   0.760  0.9353  0.5159 -2.4511
19306TIP3   OH279408   6.821   6.015  13.601  0.1904  0.0179 -0.4912
19306TIP3    H179409   6.827   6.075  13.527  0.3399  0.4711 -0.1168
19306TIP3    H279410   6.891   5.952  13.586  1.0468  0.8467 -0.0888
19307TIP3   OH279411   2.142   3.646   5.306 -0.8044 -0.3511 -0.0633
19307TIP3    H179412   2.060   3.695   5.312  0.3063  1.5396  0.5577
19307TIP3    H279413   2.135   3.579   5.374 -1.4410  0.4596  0.7048
19308TIP3   OH279414   5.992   4.206  16.560  0.0790  0.1202 -0.8280
19308TIP3    H179415   5.975   4.136  16.622 -1.1817 -0.7224 -2.0541
19308TIP3    H279416   5.933   4.277  16.586  1.0284  0.5657  0.1410
19309TIP3   OH279417   2.583   5.482   2.769 -0.0262  0.4467  0.1825
19309TIP3    H179418   2.661   5.453   2.817  1.1962  2.5967 -0.3795
19309TIP3    H279419   2.600   5.455   2.678  0.1737  1.0785  0.0259
19310TIP3   OH279420   3.513   0.883  17.234  0.1697 -0.4310 -1.1838
19310TIP3    H179421   3.462   0.834  17.169 -1.4938 -0.4696  0.0949
19310TIP3    H279422   3.551   0.956  17.185 -2.0997  0.2956 -1.9824
19311TIP3   OH279423   5.518   3.228  13.346 -0.6980 -0.2688  0.0628
19311TIP3    H179424   5.597   3.222  13.294 -0.9217  1.5964 -0.5600
19311TIP3    H279425   5.480   3.140  13.343  1.1100 -1.0823  0.0426
19312TIP3   OH279426   1.157   5.005  11.953  0.0720  0.3266  0.2991
19312TIP3    H179427   1.142   5.092  11.917  4.1371  1.3128  0.4815
19312TIP3    H279428   1.140   4.945  11.881  0.0577  1.5506 -0.7470
19313TIP3   OH279429   3.251   0.966  16.915  0.4140 -0.4984  0.0832
19313TIP3    H179430   3.200   0.981  16.995 -3.3825  0.5067 -2.2923
19313TIP3    H279431   3.273   1.054  16.884  0.8915 -0.8297 -0.5385
19314TIP3   OH279432   0.907   0.079   1.389 -0.2752  0.7205  0.1862
19314TIP3    H179433   0.874   0.166   1.413 -4.3943 -0.0106 -2.0030
19314TIP3    H279434   0.945   0.091   1.302  1.2028  0.6389  0.7829
19315TIP3   OH279435   2.929   6.006  14.560  0.2809  0.5322 -0.0043
19315TIP3    H179436   3.021   5.999  14.535  0.1263 -1.0479 -0.2822
19315TIP3    H279437   2.881   5.985  14.479 -0.2775 -0.6819  0.6157
19316TIP3   OH279438   0.603   3.273   2.026 -0.5711  0.4180 -0.4055
19316TIP3    H179439   0.628   3.275   2.118  1.6898  0.8362 -0.9680
19316TIP3    H279440   0.629   3.186   1.996 -5.1190 -1.4035  0.2108
19317TIP3   OH279441   1.212   3.386  14.070  0.0913 -0.2136 -0.2444
19317TIP3    H179442   1.150   3.455  14.091 -0.9155 -0.9702 -0.6532
19317TIP3    H279443   1.244   3.408  13.983 -0.8182 -0.6646 -0.7035
19318TIP3   OH279444   1.732   4.206   1.391  0.0668  0.4056 -0.6984
19318TIP3    H179445   1.642   4.197   1.421  0.3481  2.4111  1.0057
19318TIP3    H279446   1.764   4.117   1.381 -1.0493 -0.4000  2.0936
19319TIP3   OH279447   4.099   3.271   1.699  0.5615 -0.5253 -0.0630
19319TIP3    H179448   4.144   3.337   1.646 -0.4343 -0.2656 -0.6200
19319TIP3    H279449   4.028   3.239   1.643 -0.2258 -0.5928  0.9298
19320TIP3   OH279450   2.362   3.903   2.280 -0.4874  0.1965 -0.0304
19320TIP3    H179451   2.414   3.827   2.306 -0.2392  0.9062  1.7614
19320TIP3    H279452   2.284   3.866   2.237  0.2401 -0.9895 -0.3658
19321TIP3   OH279453   3.098   2.728   0.826 -0.2675  0.3886  0.1065
19321TIP3    H179454   3.016   2.768   0.797  0.5833  0.2971 -2.8090
19321TIP3    H279455   3.089   2.635   0.802  0.7862  0.4519 -0.6390
19322TIP3   OH279456   3.620   0.747   3.930  0.0491 -0.1850  1.0357
19322TIP3    H179457   3.668   0.829   3.942  0.4110 -0.4433  1.3623
19322TIP3    H279458   3.631   0.726   3.838 -1.0424  0.7512  0.6714
19323TIP3   OH279459   1.628   0.039  14.258 -0.3348  0.5618  0.5998
19323TIP3    H179460   1.634  -0.047  14.298  0.1987  0.3417  0.0624
19323TIP3    H279461   1.719   0.070  14.254 -0.4458  0.8371  0.1310
19324TIP3   OH279462   2.883   4.076   6.389 -0.4402  0.4856 -0.3304
19324TIP3    H179463   2.962   4.106   6.434 -0.4842  1.9038 -1.1315
19324TIP3    H279464   2.889   3.980   6.392  1.8353  0.5148 -1.1972
19325TIP3   OH279465   0.061   1.813   4.861 -0.3169 -0.4746 -0.4366
19325TIP3    H179466   0.052   1.737   4.918 -1.5652  0.2754  0.4109
19325TIP3    H279467   0.019   1.885   4.909  1.5305  0.9591 -0.8554
19326TIP3   OH279468   2.012   1.204   2.972 -0.6096 -0.5504  0.4478
19326TIP3    H179469   1.952   1.276   2.952 -1.6400 -1.4819  0.0923
19326TIP3    H279470   1.959   1.141   3.022  0.7738 -0.2112  2.4949
19327TIP3   OH279471   1.944   4.498  14.902 -0.3341  0.3971 -0.0103
19327TIP3    H179472   1.989   4.414  14.900 -1.9541 -0.4985 -0.7149
19327TIP3    H279473   2.013   4.563  14.885  1.0211 -0.7208  1.0314
19328TIP3   OH279474   1.323   5.628   5.356  0.1904 -0.1403 -0.7585
19328TIP3    H179475   1.333   5.641   5.262 -1.3606  2.7851 -0.6404
19328TIP3    H279476   1.239   5.584   5.366  0.8988 -1.5475 -0.7307
19329TIP3   OH279477   1.264   1.000  12.602 -0.1544  0.1882  0.8772
19329TIP3    H179478   1.302   1.059  12.667  1.9995 -0.3907  0.2212
19329TIP3    H279479   1.337   0.945  12.574 -1.7040 -1.5908  0.1503
19330TIP3   OH279480   3.509   4.626  10.931 -0.1212 -0.1766 -0.7266
19330TIP3    H179481   3.479   4.630  11.021 -0.8132 -1.8498 -0.8473
19330TIP3    H279482   3.431   4.599  10.881  0.8139 -1.6188 -1.4705
19331TIP3   OH279483   2.744   4.080  15.182 -0.2915  0.4263 -0.5032
19331TIP3    H179484   2.818   4.040  15.135 -2.0720 -1.4365 -1.8846
19331TIP3    H279485   2.784   4.149  15.235  2.1925  0.9497 -2.8150
19332TIP3   OH279486   1.995   0.883  10.846  0.0464 -0.7340  0.6425
19332TIP3    H179487   2.022   0.791  10.856  0.1190 -0.6891  0.8657
19332TIP3    H279488   2.064   0.922  10.791  1.1801 -0.2932  2.3020
19333TIP3   OH279489   0.984   6.683   3.287 -0.2644  0.0759  0.4771
19333TIP3    H179490   0.917   6.744   3.317 -0.1972  2.1983 -3.1324
19333TIP3    H279491   0.936   6.602   3.267 -1.0756  0.2973  1.4730
19334TIP3   OH279492   2.361   4.150   3.902 -0.5854 -0.1524  0.1906
19334TIP3    H179493   2.352   4.243   3.922 -0.8513 -0.5987  2.3415
19334TIP3    H279494   2.289   4.109   3.949 -0.1017 -1.5177 -0.2257
19335TIP3   OH279495   6.563   5.696  13.029 -0.0190 -0.0779 -0.0150
19335TIP3    H179496   6.498   5.647  13.079  0.2542  0.0120  0.4359
19335TIP3    H279497   6.522   5.781  13.013  0.7060  0.7238  1.9880
19336TIP3   OH279498   1.798   5.929   1.270  0.1957  0.3913  0.1079
19336TIP3    H179499   1.716   5.943   1.317  0.2108  1.6419 -0.1948
19336TIP3    H279500   1.775   5.871   1.197 -0.0820 -0.5389  0.9176
19337TIP3   OH279501   5.009   1.959  14.284  0.1454  0.7336 -0.4253
19337TIP3    H179502   4.952   1.915  14.221  1.9716 -0.2437 -1.4570
19337TIP3    H279503   5.006   2.051  14.259 -2.1012  0.9746  0.4810
19338TIP3   OH279504   3.776   3.900  11.087  0.2676 -0.1660  0.1820
19338TIP3    H179505   3.724   3.841  11.140 -0.4805 -1.3002 -1.7039
19338TIP3    H279506   3.850   3.846  11.057 -0.0675  0.0187 -1.0244
19339TIP3   OH279507   4.536   5.504  15.515 -0.0818 -0.1867 -0.1095
19339TIP3    H179508   4.565   5.584  15.557 -0.0393  1.6614 -3.2906
19339TIP3    H279509   4.445   5.494  15.543  0.9152 -1.2420  3.2026
19340TIP3   OH279510   3.155   1.416  16.603 -0.4082 -0.3095 -0.0797
19340TIP3    H179511   3.126   1.478  16.537  0.7641  0.6038  0.2394
19340TIP3    H279512   3.164   1.467  16.684  0.5572 -0.8722  0.1931
19341TIP3   OH279513   5.056   2.342  13.474 -0.2066 -0.3930 -0.1828
19341TIP3    H179514   5.025   2.431  13.460  0.8971 -0.0657 -0.6059
19341TIP3    H279515   5.010   2.290  13.408 -1.8794 -0.4026  0.9127
19342TIP3   OH279516   6.252   0.042   1.842  0.5329 -0.0369 -0.0888
19342TIP3    H179517   6.202  -0.012   1.904 -0.6387  3.3747  2.2438
19342TIP3    H279518   6.331   0.067   1.891  0.8887  0.6561 -0.9932
19343TIP3   OH279519   4.613   5.658  10.420  0.0646  0.1348  0.7941
19343TIP3    H179520   4.659   5.692  10.343  1.6165 -1.0222  1.1594
19343TIP3    H279521   4.642   5.716  10.491 -1.3033  1.1521  0.5554
19344TIP3   OH279522   3.483   1.929  12.011  0.1745  0.5624  0.8888
19344TIP3    H179523   3.493   1.994  12.082  0.7690 -0.1374  1.4633
19344TIP3    H279524   3.452   1.850  12.055  1.1505 -0.0744  0.4776
19345TIP3   OH279525   1.508   5.901   1.016  0.3744  0.3774 -0.2553
19345TIP3    H179526   1.423   5.944   1.021 -0.6628 -1.3034 -1.8556
19345TIP3    H279527   1.571   5.973   1.006 -0.8766  1.6375  0.5728
19346TIP3   OH279528   1.087   4.718  17.005  0.0220 -0.6955 -0.0830
19346TIP3    H179529   1.136   4.796  17.028  0.0593 -1.0754  1.2248
19346TIP3    H279530   1.143   4.672  16.942  0.2374  0.0530 -0.4508
19347TIP3   OH279531   4.550   6.142  11.759 -0.5683  0.5639  0.1872
19347TIP3    H179532   4.572   6.234  11.743  1.1627  0.1444 -0.0404
19347TIP3    H279533   4.631   6.103  11.793 -1.4426 -0.7500  0.8348
19348TIP3   OH279534   3.191   2.070   3.015 -0.0931 -0.5204 -0.0544
19348TIP3    H179535   3.175   2.108   3.101 -1.6456  0.8056 -0.8654
19348TIP3    H279536   3.196   2.145   2.956  1.9897 -1.3316 -1.0036
19349TIP3   OH279537   6.117   4.400  17.089  0.1179 -0.3108  0.0342
19349TIP3    H179538   6.130   4.486  17.130  2.4622 -0.0969 -1.0011
19349TIP3    H279539   6.163   4.339  17.146 -0.8874 -0.8008  0.3517
19350TIP3   OH279540   5.171   5.842   1.890 -0.0488  0.1186  0.5070
19350TIP3    H179541   5.202   5.869   1.977  2.2261 -1.2839  0.2010
19350TIP3    H279542   5.141   5.923   1.849  3.6944  1.8150  0.7261
19351TIP3   OH279543   3.255   3.221  14.584  0.3717  0.2007 -0.2899
19351TIP3    H179544   3.221   3.248  14.670  0.5633  0.4890 -0.3026
19351TIP3    H279545   3.323   3.157  14.604 -0.8876 -1.2030 -0.2962
19352TIP3   OH279546   1.690   3.073  12.309 -0.4026  0.3178 -0.3356
19352TIP3    H179547   1.624   3.005  12.300  1.4447 -1.4406 -1.7069
19352TIP3    H279548   1.766   3.027  12.345  0.7240  1.7623 -0.7927
19353TIP3   OH279549   0.094   4.436   1.341 -0.4157  0.6515  0.6882
19353TIP3    H179550   0.180   4.414   1.306  1.1776 -1.9404  5.3114
19353TIP3    H279551   0.096   4.531   1.354  1.4455  0.7371 -0.0025
19354TIP3   OH279552   2.263   5.220   5.699  0.9024 -0.2647  0.1837
19354TIP3    H179553   2.244   5.195   5.789 -0.3943  2.1939  0.6818
19354TIP3    H279554   2.356   5.242   5.698  0.4486  2.1244  1.6684
19355TIP3   OH279555   3.833   1.737   6.533  0.3679  0.0489 -0.6111
19355TIP3    H179556   3.797   1.770   6.451 -1.1044 -1.6561 -0.7124
19355TIP3    H279557   3.868   1.651   6.511 -1.8255 -1.3183  0.8674
19356TIP3   OH279558   5.095   1.761   0.621  0.2352  0.1932  0.0559
19356TIP3    H179559   5.139   1.731   0.542 -1.2209 -0.2102 -0.6343
19356TIP3    H279560   5.133   1.708   0.692  1.9162  0.9193 -0.2613
19357TIP3   OH279561   0.140   0.086  11.789 -0.2934  0.4555  0.8101
19357TIP3    H179562   0.186   0.162  11.753  1.8327 -1.2808 -0.3784
19357TIP3    H279563   0.150   0.095  11.884 -0.5121  1.9003  0.7103
19358TIP3   OH279564   6.780   5.139   2.593 -0.4805  0.6145 -0.7392
19358TIP3    H179565   6.777   5.234   2.609 -2.3302  0.6607 -1.0739
19358TIP3    H279566   6.815   5.131   2.504  1.3798  0.8545 -0.0637
19359TIP3   OH279567   6.303   2.777  11.097 -0.3730 -0.1833  0.6458
19359TIP3    H179568   6.271   2.856  11.141 -0.4903  0.4025 -0.4530
19359TIP3    H279569   6.357   2.810  11.026  0.4050 -1.1251  0.7813
19360TIP3   OH279570   4.707   2.912   2.639 -0.1108 -0.0225  0.3560
19360TIP3    H179571   4.650   2.882   2.568 -0.0427 -1.9481  1.0622
19360TIP3    H279572   4.652   2.972   2.690 -0.8430 -0.2947 -0.1008
19361TIP3   OH279573   1.695   0.114  12.787  0.1027  0.7237  0.0455
19361TIP3    H179574   1.750   0.036  12.800  1.0676  0.8753 -2.5335
19361TIP3    H279575   1.744   0.185  12.827  1.3374  0.6672 -1.2893
19362TIP3   OH279576   0.176   0.951  12.482 -0.2591 -0.5726  0.3350
19362TIP3    H179577   0.083   0.929  12.472 -0.5066  0.7377 -0.3781
19362TIP3    H279578   0.177   1.032  12.533  0.6089 -1.6325  2.1155
19363TIP3   OH279579   2.009   3.799   2.458 -0.0781 -0.1626  0.5796
19363TIP3    H179580   1.932   3.777   2.406  0.1000  1.0923 -0.2491
19363TIP3    H279581   2.083   3.768   2.406  0.0221 -0.5213  0.9337
19364TIP3   OH279582   1.690   3.724  11.625  0.2995  0.0736 -0.2814
19364TIP3    H179583   1.651   3.719  11.538 -1.6383  1.4646  0.4381
19364TIP3    H279584   1.748   3.799  11.622  0.0524  0.2631 -0.3055
19365TIP3   OH279585   2.128   2.723  13.673 -0.4075 -0.2226  0.0964
19365TIP3    H179586   2.048   2.695  13.718  0.8311 -0.8017  2.0392
19365TIP3    H279587   2.199   2.692  13.728  1.1649  1.6619 -0.7314
19366TIP3   OH279588   0.329   1.417   1.692 -0.2357  0.6654  0.3032
19366TIP3    H179589   0.247   1.376   1.718 -0.5591  0.7518 -0.5537
19366TIP3    H279590   0.388   1.343   1.675 -0.3064  0.5919  0.3765
19367TIP3   OH279591   2.256   4.470   3.466 -0.0903  0.0983  0.5202
19367TIP3    H179592   2.252   4.402   3.533  0.0035  0.3417  0.7709
19367TIP3    H279593   2.345   4.466   3.433  0.2845  0.9372  1.4040
19368TIP3   OH279594   3.250   6.559  11.221  0.6045 -0.4974  0.7110
19368TIP3    H179595   3.298   6.627  11.268 -0.7323  0.8238  0.2362
19368TIP3    H279596   3.158   6.572  11.245  0.1380 -1.1370 -0.6064
19369TIP3   OH279597   4.954   6.221   4.469 -0.0952  0.6531  0.1700
19369TIP3    H179598   5.025   6.268   4.512 -0.0554  1.3104 -0.5923
19369TIP3    H279599   4.965   6.241   4.376 -1.4100  0.9289  0.0626
19370TIP3   OH279600   0.092   5.141  11.463  0.2048  0.4880 -0.4505
19370TIP3    H179601   0.010   5.127  11.417 -0.6666  1.8412  0.5998
19370TIP3    H279602   0.069   5.132  11.556  1.2737  0.7448 -0.1437
19371TIP3   OH279603   4.287   2.980  15.000 -0.4041 -0.6790 -0.2118
19371TIP3    H179604   4.212   3.032  14.972 -0.4433 -0.9750 -0.6693
19371TIP3    H279605   4.335   2.962  14.919  0.3651 -0.1791  0.1163
19372TIP3   OH279606   0.788   3.448   1.434 -0.2189 -0.9077  0.0433
19372TIP3    H179607   0.725   3.380   1.411 -0.1178 -1.6787  1.8962
19372TIP3    H279608   0.748   3.496   1.506 -0.2896  1.0500 -1.2329
19373TIP3   OH279609   5.278   6.397  16.755  0.3326 -0.0970 -0.6409
19373TIP3    H179610   5.260   6.407  16.849  0.6495 -0.8692 -0.4901
19373TIP3    H279611   5.364   6.354  16.752  0.0383 -0.6463 -1.2721
19374TIP3   OH279612   4.716   2.693  12.805 -0.1942  0.2503 -0.0336
19374TIP3    H179613   4.804   2.673  12.837 -0.8101 -1.5225  0.6882
19374TIP3    H279614   4.658   2.647  12.866 -1.6991  2.2965  0.1796
19375TIP3   OH279615   4.201   5.266   4.477 -0.1290 -0.3363  0.2663
19375TIP3    H179616   4.230   5.189   4.427 -1.6217 -0.0649 -1.1104
19375TIP3    H279617   4.280   5.297   4.522  1.4773 -0.2920 -2.3753
19376TIP3   OH279618   4.926   6.104  13.408 -0.5160 -0.4458  0.5606
19376TIP3    H179619   5.008   6.090  13.362 -0.8400  0.2404 -0.2501
19376TIP3    H279620   4.860   6.108  13.339 -1.3687 -1.8494  1.2480
19377TIP3   OH279621   1.256   0.119   2.430  0.0911  0.5274 -0.1765
19377TIP3    H179622   1.213   0.137   2.513 -0.3108 -0.8626 -0.0571
19377TIP3    H279623   1.349   0.131   2.448  0.0875 -0.6553  0.7484
19378TIP3   OH279624   6.783   2.971  13.350  0.1773  0.2156 -0.2126
19378TIP3    H179625   6.733   3.003  13.425 -0.7453 -0.1157 -0.6717
19378TIP3    H279626   6.744   3.015  13.274  0.6503  0.0269 -0.5726
19379TIP3   OH279627   3.888   5.677   4.521  0.5570  0.6408  0.2287
19379TIP3    H179628   3.953   5.615   4.489 -0.2926 -0.5943  0.8348
19379TIP3    H279629   3.931   5.721   4.594  2.1906  2.8606 -1.8975
19380TIP3   OH279630   0.865   4.038   0.975 -0.3034 -0.3860  0.0588
19380TIP3    H179631   0.911   4.001   1.050  0.2948 -0.9471 -0.5659
19380TIP3    H279632   0.902   4.126   0.965  0.4719 -0.7416 -0.2839
19381TIP3   OH279633   3.060   5.137   0.429 -0.0490  0.2746  0.1691
19381TIP3    H179634   3.023   5.209   0.378  1.3354  1.1538  0.3648
19381TIP3    H279635   3.027   5.149   0.517  1.1157  1.4182  0.4855
19382TIP3   OH279636   5.979   2.940   4.221  0.1103 -0.3962  0.0309
19382TIP3    H179637   5.937   2.955   4.136  1.5563  1.6746 -0.4194
19382TIP3    H279638   5.926   2.989   4.283 -0.0350 -0.5519  0.0274
19383TIP3   OH279639   0.122   5.636  15.180 -0.1041  0.0597 -0.4557
19383TIP3    H179640   0.195   5.678  15.226  1.4548 -0.0506 -2.6923
19383TIP3    H279641   0.110   5.552  15.225  0.3264  0.5964  0.6932
19384TIP3   OH279642   0.743   4.411   1.054 -0.0422 -0.1648 -0.1545
19384TIP3    H179643   0.666   4.354   1.046 -0.2358  0.1140 -0.3518
19384TIP3    H279644   0.715   4.493   1.013 -0.0533  0.3492  0.8700
19385TIP3   OH279645   1.068   4.099  14.538 -0.2302 -0.4265 -0.1092
19385TIP3    H179646   1.137   4.077  14.475 -0.5287 -0.3567 -0.4597
19385TIP3    H279647   1.028   4.179  14.504  0.4179  0.3129  0.8176
19386TIP3   OH279648   3.511   1.832  15.091 -0.4270  0.2290  0.5896
19386TIP3    H179649   3.535   1.774  15.018 -1.1250 -0.0039  0.5421
19386TIP3    H279650   3.417   1.845  15.081 -0.3281  1.1362  0.7768
19387TIP3   OH279651   4.318   6.109  13.821 -0.0030 -0.1277  0.2749
19387TIP3    H179652   4.367   6.071  13.749  3.2509 -1.4881  2.9192
19387TIP3    H279653   4.230   6.072  13.814  1.0762 -2.5859 -1.2701
19388TIP3   OH279654   0.535   4.169   4.708 -0.7788 -0.3042 -0.0175
19388TIP3    H179655   0.463   4.211   4.755 -1.4349 -1.5851  0.1735
19388TIP3    H279656   0.559   4.233   4.640 -1.0375  0.7953  0.8938
19389TIP3   OH279657   1.842   1.282  13.011  0.5073  0.2312 -0.7738
19389TIP3    H179658   1.858   1.377  13.009  0.0083  0.3341 -0.1903
19389TIP3    H279659   1.751   1.274  13.041  0.8513 -0.4485  0.1363
19390TIP3   OH279660   1.355   3.571  16.956  0.1198  0.3562  0.3653
19390TIP3    H179661   1.436   3.616  16.981 -0.4838  0.4438  2.3268
19390TIP3    H279662   1.378   3.523  16.876  2.1087  0.3412  0.8862
19391TIP3   OH279663   2.850   3.766   0.563 -0.5490  0.4565  0.2020
19391TIP3    H179664   2.859   3.803   0.475 -2.2111 -1.5632 -0.9248
19391TIP3    H279665   2.916   3.697   0.567 -1.8669 -0.8943 -0.3534
19392TIP3   OH279666   3.878   6.677  16.693 -0.3076 -0.4478  0.2499
19392TIP3    H179667   3.854   6.725  16.614 -2.2681 -1.6957  0.0127
19392TIP3    H279668   3.936   6.737  16.741  0.9914  0.3226 -2.1102
19393TIP3   OH279669   3.228   4.657  12.232 -0.5533 -0.9234  0.4737
19393TIP3    H179670   3.148   4.604  12.230 -2.8420  2.2559  0.1657
19393TIP3    H279671   3.210   4.726  12.297  2.0641 -0.2022  0.5693
19394TIP3   OH279672   5.923   1.725   6.351 -0.4618 -0.1670  0.1341
19394TIP3    H179673   5.936   1.656   6.286 -2.2860  0.5116 -1.0510
19394TIP3    H279674   5.980   1.701   6.424  0.7478 -1.6136 -1.2195
19395TIP3   OH279675   5.099   4.727  13.259 -0.1487 -0.1282 -0.4148
19395TIP3    H179676   5.147   4.647  13.237  0.4866 -0.2782  1.3722
19395TIP3    H279677   5.168   4.792  13.274 -0.3799 -0.3944  2.3807
19396TIP3   OH279678   5.156   4.314  16.232 -0.3342  0.8231  0.2028
19396TIP3    H179679   5.216   4.302  16.158  0.7945 -0.3245  1.2481
19396TIP3    H279680   5.105   4.233  16.234  2.2378 -0.9725  2.8501
19397TIP3   OH279681   5.961   3.149   2.369 -0.0509 -0.6708 -0.2698
19397TIP3    H179682   5.921   3.155   2.456  1.0322 -1.1787  0.2776
19397TIP3    H279683   5.889   3.121   2.312 -1.5958  2.6276 -0.1865
19398TIP3   OH279684   4.729   2.238  14.176  0.1086  0.6377  0.1470
19398TIP3    H179685   4.822   2.229  14.157 -0.0867  0.1216 -0.6087
19398TIP3    H279686   4.726   2.266  14.267  1.0709  3.2513 -0.5396
19399TIP3   OH279687   5.812   0.522  13.428  0.5255 -0.3318 -0.4487
19399TIP3    H179688   5.764   0.593  13.470 -0.0747 -0.0919 -1.4937
19399TIP3    H279689   5.866   0.485  13.497  0.1180  0.5141  0.3445
19400TIP3   OH279690   3.658   3.327  10.724 -0.3352 -0.5249 -0.0658
19400TIP3    H179691   3.574   3.354  10.686  0.2924  0.2121 -0.9632
19400TIP3    H279692   3.702   3.409  10.744  0.8288 -0.8781 -1.0845
19401TIP3   OH279693   4.569   4.221   3.484 -0.3362 -0.4466  0.4623
19401TIP3    H179694   4.611   4.181   3.560 -2.0617 -1.4726  0.9348
19401TIP3    H279695   4.641   4.257   3.433  0.9097  0.0737  2.4573
19402TIP3   OH279696   2.507   2.308   5.996  0.1279  0.5235  0.6068
19402TIP3    H179697   2.566   2.372   5.957  0.3374 -0.0741 -0.0844
19402TIP3    H279698   2.495   2.338   6.086  0.8449  1.0944  0.5223
19403TIP3   OH279699   0.877   6.280   4.748  0.3498  0.0445 -0.1166
19403TIP3    H179700   0.946   6.347   4.750  0.9197 -0.4636 -1.4231
19403TIP3    H279701   0.904   6.215   4.813  1.8528 -0.8252 -1.5456
19404TIP3   OH279702   6.630   2.230   4.905 -0.1455 -0.1467  0.5059
19404TIP3    H179703   6.545   2.191   4.921 -0.7019  0.5262 -0.6988
19404TIP3    H279704   6.622   2.272   4.820  1.3191  0.1363  0.4768
19405TIP3   OH279705   1.090   3.560   3.069 -0.4583  0.1745 -0.4088
19405TIP3    H179706   1.048   3.501   3.007  0.0544 -0.3535 -0.2658
19405TIP3    H279707   1.055   3.534   3.154  0.0023 -0.1383 -0.3108
19406TIP3   OH279708   0.945   5.909  12.666  0.7182 -0.2616 -0.0123
19406TIP3    H179709   1.001   5.906  12.589  1.3334  3.0293  0.1767
19406TIP3    H279710   0.998   5.952  12.733 -1.0952  0.5079  1.0161
19407TIP3   OH279711   5.682   6.815  12.047 -0.1355 -0.1970  0.1370
19407TIP3    H179712   5.738   6.861  12.110  0.9713 -2.6891  1.1062
19407TIP3    H279713   5.609   6.781  12.100 -1.1414  0.7094 -0.6248
19408TIP3   OH279714   3.736   2.994   3.250 -0.5473  0.3578  0.3158
19408TIP3    H179715   3.755   3.087   3.258  0.9472  0.2403 -1.1927
19408TIP3    H279716   3.656   2.990   3.198 -0.8444  0.7986  0.7339
19409TIP3   OH279717   3.597   1.582  10.529 -0.0167 -0.4660 -0.4003
19409TIP3    H179718   3.523   1.599  10.470  0.5888  1.2902 -0.7108
19409TIP3    H279719   3.672   1.572  10.471  0.5919  1.3128  0.0283
19410TIP3   OH279720   6.599   1.322  13.559  0.5917 -0.1776  0.2826
19410TIP3    H179721   6.641   1.262  13.620 -0.8348 -0.7151  0.7902
19410TIP3    H279722   6.534   1.269  13.514 -1.7137  1.1933  1.7396
19411TIP3   OH279723   3.508   3.132   4.591 -0.6447  0.3792 -0.2937
19411TIP3    H179724   3.440   3.176   4.641  0.3008 -1.8067  3.3262
19411TIP3    H279725   3.568   3.098   4.658  0.7299 -2.9385 -2.9448
19412TIP3   OH279726   4.740   2.918  14.566 -0.1207 -0.2116 -0.1448
19412TIP3    H179727   4.820   2.964  14.539  0.1262  0.1578  1.1272
19412TIP3    H279728   4.772   2.839  14.611 -0.4949 -0.4778 -0.3422
19413TIP3   OH279729   3.035   4.522  13.003  0.0980 -0.3365  0.7163
19413TIP3    H179730   3.073   4.435  13.004  1.0502 -0.0331 -1.7003
19413TIP3    H279731   3.109   4.581  13.017  0.1735  0.1596 -1.3863
19414TIP3   OH279732   2.520   2.770  13.744  0.1915  0.0244  0.0021
19414TIP3    H179733   2.464   2.790  13.669  0.4681  0.5242 -0.0811
19414TIP3    H279734   2.464   2.781  13.820  0.1924  0.5785 -0.0766
19415TIP3   OH279735   5.910   4.873   2.999  0.2204  0.4800  0.2158
19415TIP3    H179736   5.867   4.814   3.061  0.1283  0.6189  0.2857
19415TIP3    H279737   5.911   4.958   3.044  1.0008  0.3781  0.4197
19416TIP3   OH279738   6.672   1.112  13.082  0.1827 -0.5296  0.5023
19416TIP3    H179739   6.624   1.189  13.051 -0.0887 -1.3064 -1.0770
19416TIP3    H279740   6.714   1.141  13.163 -0.5604  1.0342  0.3573
19417TIP3   OH279741   1.302   4.798   1.243  0.6027 -0.1170  0.1952
19417TIP3    H179742   1.297   4.882   1.198  1.4687 -0.7268 -1.1107
19417TIP3    H279743   1.294   4.733   1.172 -0.4513 -1.1438  1.2072
19418TIP3   OH279744   5.243   2.077   5.612  0.1075 -0.1398 -0.0042
19418TIP3    H179745   5.271   1.989   5.637 -0.7539 -0.0534  1.4148
19418TIP3    H279746   5.306   2.135   5.655 -1.5291  0.0196  2.4213
19419TIP3   OH279747   5.618   2.566   3.969  0.2846 -0.1359  0.6166
19419TIP3    H179748   5.541   2.600   3.923 -0.6794 -0.5383  1.8615
19419TIP3    H279749   5.598   2.580   4.062  0.4373 -2.8329  1.1292
19420TIP3   OH279750   5.297   0.500  12.636 -0.5282  0.3651  0.2485
19420TIP3    H179751   5.297   0.490  12.541  0.1229  0.1719  0.2596
19420TIP3    H279752   5.260   0.418  12.670  2.6803 -1.2717  0.2633
19421TIP3   OH279753   2.932   0.329   2.244 -0.4870  0.7361  0.5506
19421TIP3    H179754   2.968   0.352   2.158  0.2607  1.1136  0.9602
19421TIP3    H279755   2.968   0.243   2.262  0.5188  1.2580  1.1140
19422TIP3   OH279756   1.251   2.799  16.924 -0.3062 -0.1408 -0.2976
19422TIP3    H179757   1.287   2.782  16.837  2.2786  1.7099  0.2858
19422TIP3    H279758   1.325   2.786  16.984 -1.1309  1.7356  1.2473
19423TIP3   OH279759   4.213   1.397  11.097 -0.1611 -0.1040  0.7614
19423TIP3    H179760   4.131   1.445  11.083 -0.2585 -0.1024  1.3246
19423TIP3    H279761   4.259   1.402  11.013 -0.7495 -0.1242  0.4345
19424TIP3   OH279762   1.678   1.518  15.957 -0.0039  0.3003 -0.1018
19424TIP3    H179763   1.587   1.527  15.985 -0.0755 -1.3103  0.2907
19424TIP3    H279764   1.697   1.425  15.967  1.9240  0.7155  0.5116
19425TIP3   OH279765   1.258   1.458   4.614  0.8180 -0.3277  0.4377
19425TIP3    H179766   1.224   1.545   4.637 -0.6903 -1.1590  1.5268
19425TIP3    H279767   1.344   1.476   4.576 -0.0692  1.7436 -0.7657
19426TIP3   OH279768   4.510   5.731   4.232 -0.4947  0.1098 -0.1161
19426TIP3    H179769   4.479   5.648   4.269 -0.9865 -0.6102 -1.9822
19426TIP3    H279770   4.437   5.791   4.243 -1.7590 -0.8960 -2.3078
19427TIP3   OH279771   0.748   5.079  12.774  0.1965 -0.2311  0.3130
19427TIP3    H179772   0.657   5.109  12.773 -0.1393 -1.2276  0.2033
19427TIP3    H279773   0.792   5.137  12.711 -0.2050  0.7009  0.8722
19428TIP3   OH279774   5.193   6.106  12.949 -0.2525  0.6962  0.1128
19428TIP3    H179775   5.170   6.016  12.926 -0.3526  1.0973 -1.4724
19428TIP3    H279776   5.120   6.137  13.003 -1.8920  0.8509 -2.0537
19429TIP3   OH279777   2.872   1.178  11.065 -0.2953 -0.2746 -0.5636
19429TIP3    H179778   2.938   1.113  11.041  1.2747  0.2778  1.9015
19429TIP3    H279779   2.858   1.165  11.159 -0.5367  2.3856 -0.1618
19430TIP3   OH279780   2.931   2.775  17.110  0.3693  0.0102 -0.4179
19430TIP3    H179781   2.854   2.776  17.167 -0.2365  3.1967 -1.0897
19430TIP3    H279782   3.003   2.751  17.168 -0.7108 -0.2815  0.8684
19431TIP3   OH279783   5.827   5.970  12.126 -0.1536  0.2258 -0.2998
19431TIP3    H179784   5.817   6.057  12.166  1.1770 -0.0891  0.7851
19431TIP3    H279785   5.863   5.916  12.196  0.4568 -0.8328 -1.4092
19432TIP3   OH279786   2.830   1.775  12.715 -0.7390 -0.1081 -0.2031
19432TIP3    H179787   2.926   1.775  12.724 -0.5298 -1.2674 -1.9593
19432TIP3    H279788   2.814   1.801  12.625 -2.0371 -0.7115 -0.1714
19433TIP3   OH279789   0.432   4.784  14.722 -0.7157 -0.6661 -0.1603
19433TIP3    H179790   0.458   4.871  14.693  1.7974 -1.0163  0.7462
19433TIP3    H279791   0.448   4.728  14.646  0.6071 -0.7440  0.1385
19434TIP3   OH279792   0.294   2.117  12.547 -0.6045 -0.0589  0.4662
19434TIP3    H179793   0.264   2.132  12.457 -1.4178  0.2055  0.7713
19434TIP3    H279794   0.264   2.029  12.568  1.2894 -0.9015 -0.1791
19435TIP3   OH279795   6.290   0.591   6.400 -0.4643  0.2845  0.0546
19435TIP3    H179796   6.216   0.652   6.402  0.4984  1.4959 -0.1524
19435TIP3    H279797   6.366   0.646   6.380  0.5074 -0.9199  0.3198
19436TIP3   OH279798   2.359   5.563   4.182 -0.0153  0.3742  1.1482
19436TIP3    H179799   2.427   5.497   4.194  0.5168  0.7476  0.3111
19436TIP3    H279800   2.342   5.563   4.087  0.0162  1.4447  1.1260
19437TIP3   OH279801   0.978   4.357   4.960 -0.3077 -0.2230 -0.2485
19437TIP3    H179802   0.921   4.414   4.908 -1.9034 -1.7814 -0.2902
19437TIP3    H279803   0.988   4.277   4.908  0.5166 -0.6632  0.5369
19438TIP3   OH279804   3.060   3.354   1.184  0.0503 -0.7926  0.4564
19438TIP3    H179805   3.031   3.376   1.096  0.7815 -0.9100  0.1850
19438TIP3    H279806   3.066   3.438   1.230 -2.1340 -0.8558  0.9816
19439TIP3   OH279807   1.132   1.923   3.000  0.1692  0.7755 -0.0494
19439TIP3    H179808   1.076   1.971   2.939  0.1600  0.4544 -0.3005
19439TIP3    H279809   1.118   1.831   2.977  0.6052  0.6798  0.0532
19440TIP3   OH279810   2.618   4.916  14.436  0.4768  0.8637  0.6054
19440TIP3    H179811   2.556   4.963  14.380 -1.0850  1.3710  2.6429
19440TIP3    H279812   2.654   4.848  14.380  1.5581  3.3545 -2.0030
19441TIP3   OH279813   1.104   2.126   5.991  0.1736  0.5822 -0.6591
19441TIP3    H179814   1.172   2.183   5.954 -0.1856  0.7463 -1.0673
19441TIP3    H279815   1.022   2.162   5.959 -0.2579  1.4910  1.3002
19442TIP3   OH279816   2.893   1.545   6.282 -0.8018 -0.1998  0.0936
19442TIP3    H179817   2.929   1.507   6.202  0.2731  1.1698 -0.1020
19442TIP3    H279818   2.964   1.597   6.318 -2.0353  1.2010  0.6152
19443TIP3   OH279819   4.058   2.471   3.333  0.4075 -0.0806 -0.4858
19443TIP3    H179820   4.082   2.517   3.253 -1.5396  0.4214 -0.8430
19443TIP3    H279821   4.017   2.390   3.303  1.1129 -0.6590  0.0667
19444TIP3   OH279822   3.801   1.341   3.090  0.3819  0.4282 -0.1321
19444TIP3    H179823   3.817   1.253   3.055  1.6019  0.0699  1.2138
19444TIP3    H279824   3.737   1.379   3.030  2.0013 -0.2841 -2.4864
19445TIP3   OH279825   6.814   0.050   2.572 -0.2614  0.5950  0.2761
19445TIP3    H179826   6.802   0.111   2.499  1.8774  1.9198  0.9304
19445TIP3    H279827   6.743   0.071   2.633 -1.5724  0.0348 -0.9918
19446TIP3   OH279828   1.885   3.797  13.971 -0.4297  0.4184 -0.0368
19446TIP3    H179829   1.906   3.704  13.971 -1.2461  0.2157  1.4552
19446TIP3    H279830   1.968   3.840  13.949  0.5610 -0.5541  1.6494
19447TIP3   OH279831   3.973   1.100  13.944 -0.2824 -0.4587 -0.1660
19447TIP3    H179832   4.015   1.185  13.950 -1.2164 -0.0295  0.4908
19447TIP3    H279833   4.030   1.049  13.886 -1.1675  1.4633 -2.9327
19448TIP3   OH279834   6.371   3.764   2.397 -0.0498  0.5630 -0.4899
19448TIP3    H179835   6.313   3.738   2.469  0.2600  1.6580  0.1886
19448TIP3    H279836   6.322   3.743   2.318 -0.6631 -0.0935  0.0453
19449TIP3   OH279837   6.766   1.446   3.638  0.2391  0.0463  0.0557
19449TIP3    H179838   6.773   1.388   3.714 -0.3923  0.3838  0.3854
19449TIP3    H279839   6.736   1.529   3.675 -0.0295  0.2255 -0.5592
19450TIP3   OH279840   3.508   4.383  12.884 -0.4727 -0.0222 -0.4776
19450TIP3    H179841   3.484   4.310  12.941  0.9865  0.5057  0.8697
19450TIP3    H279842   3.603   4.390  12.893 -0.5460  1.8515 -0.8125
19451TIP3   OH279843   6.017   2.564  15.307 -0.1307  0.2503  0.0256
19451TIP3    H179844   5.997   2.657  15.305  4.8244  1.6024  0.1437
19451TIP3    H279845   6.023   2.543  15.401  0.6957  0.3757  0.0065
19452TIP3   OH279846   4.620   2.238  13.082  0.0338  0.0114 -0.1542
19452TIP3    H179847   4.707   2.202  13.101 -0.5789 -1.2129  0.3957
19452TIP3    H279848   4.624   2.260  12.989  1.1381  0.5739  0.0049
19453TIP3   OH279849   2.645   0.936  14.643  0.0963 -0.0264 -0.7839
19453TIP3    H179850   2.702   0.916  14.568  0.6772  2.0490 -0.9759
19453TIP3    H279851   2.656   1.031  14.655 -0.7543 -0.1622  1.3174
19454TIP3   OH279852   0.369   0.667   0.059  0.3216 -0.0480  0.1024
19454TIP3    H179853   0.315   0.744   0.045  1.3750  0.4630 -1.5033
19454TIP3    H279854   0.339   0.604  -0.007 -0.1369 -0.8048  1.0117
19455TIP3   OH279855   4.832   4.894  15.337 -0.2635  0.2537 -0.5313
19455TIP3    H179856   4.921   4.869  15.313 -0.3086 -0.4047 -0.0410
19455TIP3    H279857   4.777   4.859  15.267 -0.3187 -1.0101  0.1147
19456TIP3   OH279858   6.806   1.992   5.907  0.1359  0.4190 -0.1369
19456TIP3    H179859   6.752   1.920   5.941  1.5539 -0.5621  0.1284
19456TIP3    H279860   6.745   2.046   5.857 -1.2637 -0.1531  0.8903
19457TIP3   OH279861   6.794   6.209  16.955 -0.1933  0.2063 -0.0389
19457TIP3    H179862   6.716   6.263  16.957 -0.9420 -0.8548  0.1076
19457TIP3    H279863   6.766   6.127  16.915  0.4696 -0.7245  1.3044
19458TIP3   OH279864   4.330   4.528  12.136  0.0995 -0.6233  0.0130
19458TIP3    H179865   4.258   4.468  12.155  0.5688 -1.7056 -1.4397
19458TIP3    H279866   4.300   4.578  12.061  0.8986 -1.1936 -0.7060
19459TIP3   OH279867   4.240   1.524   3.365  0.0674  0.1503  0.2244
19459TIP3    H179868   4.257   1.604   3.315 -0.0191  0.5882  0.8774
19459TIP3    H279869   4.153   1.496   3.336 -0.3136  0.8268  0.6667
19460TIP3   OH279870   5.981   2.716  12.194  0.1158  0.3211 -0.3718
19460TIP3    H179871   6.029   2.723  12.276 -0.0805 -0.3190 -0.1956
19460TIP3    H279872   5.962   2.622  12.185 -0.1697  0.4302 -0.9690
19461TIP3   OH279873   4.942   4.574   4.234  0.0959 -0.7757  0.2110
19461TIP3    H179874   4.930   4.561   4.140  1.6887  1.3025 -0.3423
19461TIP3    H279875   5.033   4.553   4.250 -0.2675 -1.5287  1.4025
19462TIP3   OH279876   5.083   0.300   3.902 -0.0813  0.0042 -0.5569
19462TIP3    H179877   5.084   0.306   3.806  1.0974  0.6454 -0.5303
19462TIP3    H279878   5.011   0.356   3.928 -0.5480 -0.3410 -1.0731
19463TIP3   OH279879   6.131   3.516   3.494  0.6931  0.0580 -0.2640
19463TIP3    H179880   6.061   3.463   3.456  0.6198  0.2877 -0.4527
19463TIP3    H279881   6.086   3.578   3.551  0.6974  0.5526 -0.7923
19464TIP3   OH279882   2.175   4.626  14.844  0.2719 -0.1734 -0.5100
19464TIP3    H179883   2.129   4.687  14.902 -0.1925 -1.7227  0.8250
19464TIP3    H279884   2.261   4.615  14.883  0.4387 -0.1856 -0.8775
19465TIP3   OH279885   0.388   4.664   5.999 -0.1911 -0.1422 -0.2776
19465TIP3    H179886   0.394   4.698   5.910  1.2318  0.9467  0.2085
19465TIP3    H279887   0.470   4.690   6.041 -1.2317  0.2276  1.6541
19466TIP3   OH279888   6.607   0.295   3.194 -0.5352 -0.3052 -0.0272
19466TIP3    H179889   6.617   0.226   3.260 -0.0553  0.0345  0.2532
19466TIP3    H279890   6.604   0.247   3.111 -2.0213 -0.8152  0.2737
19467TIP3   OH279891   4.351   0.246  13.016  0.3168  0.3899 -0.3666
19467TIP3    H179892   4.260   0.224  12.996  0.0056  0.4376  0.9371
19467TIP3    H279893   4.402   0.175  12.977 -0.2740  0.3876 -1.1447
19468TIP3   OH279894   2.931   3.858   1.171  0.1786  0.0003  0.8158
19468TIP3    H179895   2.973   3.942   1.151 -1.2435  0.9989  1.8520
19468TIP3    H279896   2.965   3.835   1.258 -0.1615 -0.0015  0.9501
19469TIP3   OH279897   2.554   0.948  16.163  0.0422 -0.1940 -0.1434
19469TIP3    H179898   2.561   1.008  16.089  2.9584 -0.8559 -0.5571
19469TIP3    H279899   2.559   1.004  16.240  1.2527  0.2412 -0.5143
19470TIP3   OH279900   4.570   6.710   1.928 -0.8258 -0.0738  1.0581
19470TIP3    H179901   4.494   6.741   1.878  0.8485  0.2323 -1.5385
19470TIP3    H279902   4.612   6.789   1.959  0.3350  0.0404 -0.6550
19471TIP3   OH279903   2.354   0.657   5.420 -0.1375 -0.5406 -0.1388
19471TIP3    H179904   2.382   0.568   5.441 -1.3320 -0.5214  1.8288
19471TIP3    H279905   2.356   0.703   5.504 -0.6986  0.9528 -0.9007
19472TIP3   OH279906   4.854   5.774  17.183 -0.3428  0.1186  0.7735
19472TIP3    H179907   4.797   5.712  17.138  2.0174 -0.3474 -1.8516
19472TIP3    H279908   4.839   5.857  17.138  0.4225  0.1605  0.5766
19473TIP3   OH279909   6.595   6.204   1.180  0.6904 -1.1322  0.0762
19473TIP3    H179910   6.623   6.130   1.126 -0.4176 -2.8199  1.7096
19473TIP3    H279911   6.520   6.171   1.229  1.7244  0.2524  2.7485
19474TIP3   OH279912   0.527   0.373  13.621 -0.5095 -0.6075  0.0157
19474TIP3    H179913   0.536   0.459  13.579  1.8745 -0.6695  0.2519
19474TIP3    H279914   0.443   0.377  13.666 -0.1853  1.8573  0.5367
19475TIP3   OH279915   3.269   2.687   4.563 -0.2419 -0.0267 -0.1678
19475TIP3    H179916   3.305   2.765   4.520 -0.5754  0.1486 -0.1284
19475TIP3    H279917   3.343   2.651   4.613 -0.5990  1.4811  1.5755
19476TIP3   OH279918   3.441   2.454   5.887 -0.3984  0.1534  0.5219
19476TIP3    H179919   3.499   2.378   5.887 -1.7748 -0.9751 -1.0517
19476TIP3    H279920   3.402   2.455   5.975  1.1192  0.2912  1.2323
19477TIP3   OH279921   0.751   0.877   6.432  0.5604 -0.1505  0.0781
19477TIP3    H179922   0.737   0.931   6.510 -0.6494  1.0349 -0.9242
19477TIP3    H279923   0.677   0.816   6.432  0.9824 -0.6748  0.2590
19478TIP3   OH279924   6.178   3.717  13.728  0.3879  0.2771 -0.4080
19478TIP3    H179925   6.179   3.699  13.634 -0.3174 -1.3908 -0.1305
19478TIP3    H279926   6.085   3.725  13.750  0.5158 -0.0463  0.2659
19479TIP3   OH279927   4.350   6.252   5.832  0.2474 -0.0228 -0.0738
19479TIP3    H179928   4.396   6.263   5.749 -0.3048 -2.2468 -0.7636
19479TIP3    H279929   4.412   6.205   5.888  0.2137  0.4594  0.3715
19480TIP3   OH279930   1.494   2.862  14.401  0.7710 -0.4257 -0.1564
19480TIP3    H179931   1.485   2.928  14.470  0.0348 -2.4768  1.8220
19480TIP3    H279932   1.528   2.911  14.326  0.3557  2.1669  1.2146
19481TIP3   OH279933   1.039   3.719  16.082 -0.0233 -0.1401  0.1225
19481TIP3    H179934   1.044   3.808  16.048  1.4112 -0.4555 -0.5838
19481TIP3    H279935   1.130   3.689  16.083 -0.2359 -0.8411  2.4335
19482TIP3   OH279936   1.087   6.342   0.505  0.1474 -0.5876 -0.3898
19482TIP3    H179937   1.067   6.269   0.446 -0.1416  0.8351 -2.1308
19482TIP3    H279938   1.146   6.398   0.455 -0.4379  0.8864  0.4919
19483TIP3   OH279939   1.362   0.591   0.476  0.1824  0.4708 -0.1754
19483TIP3    H179940   1.373   0.499   0.454 -0.6778  0.5782 -1.1254
19483TIP3    H279941   1.417   0.604   0.553  0.1314 -0.8852  0.1129
19484TIP3   OH279942   1.124   1.634  15.079 -0.4048 -0.3953 -0.0913
19484TIP3    H179943   1.086   1.622  15.166 -0.1281 -1.4399 -0.0949
19484TIP3    H279944   1.067   1.583  15.021  0.0256 -0.5750 -0.3557
19485TIP3   OH279945   4.500   2.269  10.911  0.2249  0.0303  0.3584
19485TIP3    H179946   4.484   2.347  10.858  2.4183  0.8153  0.7346
19485TIP3    H279947   4.513   2.199  10.847 -2.6775 -0.3234  0.0237
19486TIP3   OH279948   5.258   1.789  10.920 -0.0173  0.2092 -0.1234
19486TIP3    H179949   5.289   1.875  10.891  2.9383 -0.5079  0.5646
19486TIP3    H279950   5.171   1.805  10.957  0.1103  2.7279 -0.7750
19487TIP3   OH279951   5.318   2.073  17.009  0.4210 -0.2205 -0.3962
19487TIP3    H179952   5.389   2.023  16.969  1.5792 -2.4512  3.7835
19487TIP3    H279953   5.243   2.013  17.009 -0.4001  0.7579 -1.4971
19488TIP3   OH279954   5.454   3.333   2.476 -0.4469 -0.2370 -0.0312
19488TIP3    H179955   5.529   3.371   2.522  0.6575 -0.9154 -1.1882
19488TIP3    H279956   5.474   3.239   2.472 -1.1215 -0.3594 -0.7628
19489TIP3   OH279957   1.387   5.206   0.689  0.0592 -0.1546 -0.0576
19489TIP3    H179958   1.461   5.228   0.745 -1.8349  0.1638  2.4999
19489TIP3    H279959   1.361   5.289   0.648  0.2867 -0.0056  0.1019
19490TIP3   OH279960   6.201   0.341  12.558 -0.6505 -0.4494  0.8130
19490TIP3    H179961   6.112   0.345  12.521 -0.9730 -0.3237  1.5979
19490TIP3    H279962   6.197   0.394  12.637  0.4714  0.6294  0.1761
19491TIP3   OH279963   1.335   4.792  16.775  0.0185  0.2491  0.1610
19491TIP3    H179964   1.412   4.753  16.734  0.2684  2.2648 -1.3989
19491TIP3    H279965   1.359   4.801  16.867  0.3872 -2.0741  0.3616
19492TIP3   OH279966   4.641   6.495   1.015  0.2423 -0.0361 -0.8821
19492TIP3    H179967   4.693   6.476   1.093 -0.4621 -1.2422 -0.6799
19492TIP3    H279968   4.616   6.587   1.024  1.0505  0.1237 -0.2178
19493TIP3   OH279969   3.914   1.877   1.600 -0.1764 -0.2283 -0.7425
19493TIP3    H179970   3.941   1.800   1.650  1.5299  0.2932 -0.7970
19493TIP3    H279971   3.967   1.874   1.521 -0.5984  0.6359 -1.0682
19494TIP3   OH279972   4.208   1.305  15.160 -0.4424 -0.3412 -0.0566
19494TIP3    H179973   4.289   1.255  15.147 -0.0318  0.6628 -1.6912
19494TIP3    H279974   4.139   1.249  15.124 -0.0221  0.0857 -1.6197
19495TIP3   OH279975   3.191   1.952   0.589  0.1664  0.4701 -0.2772
19495TIP3    H179976   3.174   1.958   0.495  0.6505 -0.0156 -0.4000
19495TIP3    H279977   3.147   1.871   0.615  1.6590 -0.4263 -0.4623
19496TIP3   OH279978   3.246   3.122   3.249  0.0949 -0.1711 -0.3433
19496TIP3    H179979   3.216   3.211   3.265 -0.9876 -0.6325  0.2767
19496TIP3    H279980   3.198   3.094   3.171  2.2368  0.5999 -2.0409
19497TIP3   OH279981   0.666   5.045  14.147  0.1110  0.3692 -0.7814
19497TIP3    H179982   0.649   5.089  14.230 -2.5195  0.5027 -1.2927
19497TIP3    H279983   0.746   4.995  14.161  0.5422  1.5582  1.3358
19498TIP3   OH279984   3.329   5.679   0.576 -0.0502  0.0704  0.6322
19498TIP3    H179985   3.359   5.605   0.524 -2.3075 -0.2804 -0.3006
19498TIP3    H279986   3.249   5.708   0.532 -0.9930  1.0013  2.8003
19499TIP3   OH279987   2.046   5.049   0.341 -0.1868 -0.1166  0.6346
19499TIP3    H179988   2.107   5.068   0.412  0.2273 -0.3680  0.3529
19499TIP3    H279989   2.041   5.131   0.291  0.4164 -0.2832  0.2937
19500TIP3   OH279990   1.039   2.859   4.832 -0.5183 -0.2398  0.4075
19500TIP3    H179991   1.082   2.940   4.804 -0.6488 -0.2269  0.2468
19500TIP3    H279992   1.107   2.792   4.826 -0.4168 -0.1478  0.5180
19501TIP3   OH279993   1.766   4.534   6.212  0.4034  0.0856  0.1231
19501TIP3    H179994   1.772   4.569   6.301  0.8932 -0.8729  0.4817
19501TIP3    H279995   1.732   4.606   6.160  0.8989  0.9254  0.9352
19502TIP3   OH279996   5.503   1.608  15.218 -0.6534  0.6200  0.0771
19502TIP3    H179997   5.561   1.585  15.290 -2.2337 -0.4086  1.0854
19502TIP3    H279998   5.486   1.701  15.230 -1.0518  0.4235  1.1909
19503TIP3   OH279999   5.858   6.278   5.393 -0.1945 -0.2245 -0.7917
19503TIP3    H180000   5.937   6.223   5.394 -0.6220 -0.8404  0.0799
19503TIP3    H280001   5.810   6.253   5.472 -0.2608  1.6167 -0.1954
19504TIP3   OH280002   2.255   1.534   0.920 -0.1513  0.1837 -0.0168
19504TIP3    H180003   2.293   1.593   0.855  0.2327 -0.5250 -0.4577
19504TIP3    H280004   2.323   1.525   0.987 -0.0658 -0.0437 -0.1342
19505TIP3   OH280005   3.952   0.020  14.732 -0.0872  0.6058  0.1580
19505TIP3    H180006   4.004  -0.041  14.784  0.1107  1.2891  0.7756
19505TIP3    H280007   3.892   0.061  14.795 -0.3864  0.8709 -0.2887
19506TIP3   OH280008   3.705   6.651   1.927  0.1984 -0.4375  0.1739
19506TIP3    H180009   3.798   6.670   1.941 -0.2196  2.5895 -0.4911
19506TIP3    H280010   3.690   6.673   1.835 -1.3674  0.0961  0.5292
19507TIP3   OH280011   6.233   4.394  16.114  0.4428 -0.0565  0.0645
19507TIP3    H180012   6.228   4.478  16.067 -0.0852 -0.6917 -1.0605
19507TIP3    H280013   6.143   4.373  16.136  0.6488  0.0267  1.0259
19508TIP3   OH280014   0.346   4.179  10.627  0.3246  0.1307  0.5554
19508TIP3    H180015   0.392   4.262  10.615 -0.0173  0.1687 -0.6342
19508TIP3    H280016   0.253   4.202  10.623  0.2271 -0.2991  0.2785
19509TIP3   OH280017   2.319   5.410   2.303 -0.2189  0.1413  0.0277
19509TIP3    H180018   2.317   5.349   2.377 -0.8869  1.2994  1.0022
19509TIP3    H280019   2.361   5.489   2.338  1.8888 -0.1821 -1.5955
19510TIP3   OH280020   5.998   6.161   4.105 -0.6408 -0.0242  0.1513
19510TIP3    H180021   6.079   6.127   4.067 -0.8295 -0.1685 -0.1190
19510TIP3    H280022   5.928   6.116   4.058 -0.9182  1.3436 -0.7966
19511TIP3   OH280023   2.341   3.716   5.107 -0.5210  0.3685 -0.3398
19511TIP3    H180024   2.275   3.716   5.176 -2.5962  0.8628 -2.1882
19511TIP3    H280025   2.395   3.639   5.125 -0.3005  1.0605  2.3633
19512TIP3   OH280026   1.548   4.110   3.580 -0.5640  0.1955 -0.7915
19512TIP3    H180027   1.486   4.170   3.621  0.0129  1.0189 -1.1058
19512TIP3    H280028   1.561   4.145   3.492  1.1111  0.6355 -0.4071
19513TIP3   OH280029   1.313   0.231  15.878 -0.0218  0.0653  1.0524
19513TIP3    H180030   1.339   0.185  15.957 -0.0362  0.4743  1.2987
19513TIP3    H280031   1.395   0.267  15.843 -0.0738  0.2388  1.1087
19514TIP3   OH280032   5.461   1.483   1.831 -0.1510  0.4671  1.2092
19514TIP3    H180033   5.477   1.463   1.923  0.8080  3.5530  1.8428
19514TIP3    H280034   5.406   1.562   1.833  2.0366  2.2011 -0.7158
19515TIP3   OH280035   6.178   2.298   5.848 -0.0222 -0.0900  0.1544
19515TIP3    H180036   6.110   2.270   5.786  0.9035 -0.7005 -0.6014
19515TIP3    H280037   6.256   2.312   5.794  1.0302 -1.4010  1.2734
19516TIP3   OH280038   0.692   6.088   4.491 -0.1005 -0.5882  0.2131
19516TIP3    H180039   0.682   6.027   4.417  0.1706  0.9778 -1.1574
19516TIP3    H280040   0.607   6.131   4.498 -0.5453 -1.6191  1.6939
19517TIP3   OH280041   6.330   4.986   3.922 -0.0876  0.7595 -0.3243
19517TIP3    H180042   6.326   4.900   3.881 -1.2791  0.5467  0.2130
19517TIP3    H280043   6.393   5.035   3.869  2.7898 -1.2597  0.9632
19518TIP3   OH280044   6.561   5.111  17.282  0.0366  0.2506 -0.0884
19518TIP3    H180045   6.503   5.047  17.323  0.6479  0.2325  0.7685
19518TIP3    H280046   6.638   5.060  17.256 -0.3859  0.2408 -1.3707
19519TIP3   OH280047   0.952   2.684  15.523 -0.2238 -0.2038  0.4351
19519TIP3    H180048   0.995   2.769  15.512  2.3501 -1.4113  0.4018
19519TIP3    H280049   1.022   2.625  15.550 -2.0704 -2.1951  1.1765
19520TIP3   OH280050   3.092   2.617   3.008 -0.3908 -0.7250 -0.5243
19520TIP3    H180051   3.094   2.588   2.917  0.5376  1.1556 -1.1632
19520TIP3    H280052   3.140   2.549   3.056  0.5035 -0.9610 -1.7122
19521TIP3   OH280053   0.431   3.318   4.525  0.4185  0.7675 -0.0569
19521TIP3    H180054   0.441   3.247   4.588  0.7693 -2.1545 -3.1667
19521TIP3    H280055   0.513   3.367   4.532  0.1016  1.1064  2.2597
19522TIP3   OH280056   0.916   2.663   6.604 -0.1032 -0.2085 -0.2814
19522TIP3    H180057   1.011   2.656   6.594 -0.0905  0.0777 -0.3564
19522TIP3    H280058   0.883   2.576   6.581  0.0306  0.0685 -1.5738
19523TIP3   OH280059   5.185   0.993   6.012  0.6307  0.5082 -0.3009
19523TIP3    H180060   5.110   0.978   6.070  0.7723 -1.1769 -0.5084
19523TIP3    H280061   5.158   0.958   5.927  1.8238 -0.6274 -0.2440
19524TIP3   OH280062   6.607   6.120  10.786 -0.1281  0.0760 -0.3504
19524TIP3    H180063   6.689   6.072  10.798 -0.5495 -0.5404  0.1219
19524TIP3    H280064   6.539   6.059  10.813 -0.6922  0.8757  0.0853
19525TIP3   OH280065   4.403   2.959   0.809 -0.1215  0.1783 -0.5829
19525TIP3    H180066   4.361   3.033   0.852 -1.2536 -1.0942  0.6108
19525TIP3    H280067   4.335   2.892   0.806  1.1352 -1.1307 -0.7884
19526TIP3   OH280068   4.260   6.202  16.997 -0.3665  0.3207  0.4680
19526TIP3    H180069   4.279   6.294  16.978 -1.9224  0.5042 -0.2820
19526TIP3    H280070   4.324   6.179  17.065  0.1134  1.9117  0.6068
19527TIP3   OH280071   1.965   6.716  16.791  0.0692 -0.0318 -0.0634
19527TIP3    H180072   1.955   6.633  16.838  0.7988 -1.5971 -2.4471
19527TIP3    H280073   2.012   6.773  16.851  1.3335 -2.0386  0.9535
19528TIP3   OH280074   3.468   3.130  12.823  0.0774  0.0217 -0.6303
19528TIP3    H180075   3.424   3.070  12.884 -1.2489  1.0144 -0.5473
19528TIP3    H280076   3.522   3.186  12.879 -0.7477  0.6028 -0.3902
19529TIP3   OH280077   2.913   5.710   3.807  0.0544 -0.0457 -0.3687
19529TIP3    H180078   3.001   5.681   3.830 -0.1201 -0.5463 -0.3177
19529TIP3    H280079   2.916   5.805   3.816  0.0965 -0.1785  1.4467
19530TIP3   OH280080   5.329   2.388  11.071 -0.1198 -0.2669 -0.5389
19530TIP3    H180081   5.303   2.451  11.004 -1.6242 -0.9578 -0.6602
19530TIP3    H280082   5.333   2.304  11.026 -0.4247 -0.6243  0.0748
19531TIP3   OH280083   3.435   0.178  12.222  0.3408  0.1493 -0.5957
19531TIP3    H180084   3.449   0.092  12.263  0.9228  0.2078 -0.6636
19531TIP3    H280085   3.342   0.179  12.201 -0.3866  0.7441  2.1648
19532TIP3   OH280086   2.819   0.533   4.021  0.2148 -0.3189 -0.1545
19532TIP3    H180087   2.883   0.545   3.951  0.1757  0.5364 -0.0533
19532TIP3    H280088   2.858   0.467   4.078  1.2127  0.4983  0.1374
19533TIP3   OH280089   2.609   2.377  16.910 -0.4516 -0.2194 -0.1072
19533TIP3    H180090   2.616   2.356  17.003  0.5864  0.0744 -0.1088
19533TIP3    H280091   2.631   2.470  16.905 -0.8015 -0.1606 -0.6198
19534TIP3   OH280092   6.652   1.897  15.902 -1.0674 -0.5471  0.0405
19534TIP3    H180093   6.558   1.887  15.893 -1.3659 -1.6199  3.2107
19534TIP3    H280094   6.663   1.945  15.985  1.1633  0.8294 -0.9603
19535TIP3   OH280095   2.726   5.582  12.737 -0.2625  0.4516  0.5058
19535TIP3    H180096   2.807   5.538  12.712  0.5770  3.5060 -3.0493
19535TIP3    H280097   2.749   5.634  12.813  1.5726  2.0349 -1.0206
19536TIP3   OH280098   5.455   5.727   4.949  0.0712  0.3485 -0.4152
19536TIP3    H180099   5.427   5.711   4.859 -0.2776 -3.7298  0.2317
19536TIP3    H280100   5.377   5.713   5.002  0.5894  1.3112  0.6602
19537TIP3   OH280101   2.471   1.614  14.574 -0.9658  0.0603  0.2266
19537TIP3    H180102   2.432   1.534  14.609 -2.5214  0.3354 -0.7858
19537TIP3    H280103   2.556   1.587  14.540  0.3213 -0.3588  3.4239
19538TIP3   OH280104   3.529   0.980  13.369 -0.4486 -0.2923  0.2949
19538TIP3    H180105   3.515   0.900  13.318 -1.5857 -1.0060  1.6724
19538TIP3    H280106   3.623   0.998  13.359 -0.1686 -1.8000 -0.0419
19539TIP3   OH280107   4.571   1.695  11.896 -0.5486 -0.4585  0.1083
19539TIP3    H180108   4.625   1.755  11.948 -0.9445  1.1567 -1.2453
19539TIP3    H280109   4.482   1.725  11.910 -0.6997 -0.2770 -1.1231
19540TIP3   OH280110   3.949   6.255   0.834 -0.0784  0.1753 -0.1740
19540TIP3    H180111   4.043   6.273   0.828 -0.2917  2.8409  2.2500
19540TIP3    H280112   3.933   6.243   0.928 -2.2964  0.9566 -0.3962
19541TIP3   OH280113   3.206   5.519   3.486 -0.1740  0.4392 -0.2828
19541TIP3    H180114   3.135   5.583   3.488 -1.0914 -0.5554 -0.6217
19541TIP3    H280115   3.163   5.434   3.480  1.0318 -0.0818 -3.6251
19542TIP3   OH280116   0.712   5.038   1.125 -0.2716  0.5031 -0.1068
19542TIP3    H180117   0.759   5.078   1.199 -0.9921 -1.1474  1.3240
19542TIP3    H280118   0.697   4.948   1.153 -1.7063  0.1891 -1.7608
19543TIP3   OH280119   1.730   5.851  10.963 -0.1564  0.2673  0.0762
19543TIP3    H180120   1.729   5.929  11.019 -2.6698 -0.5526  1.3377
19543TIP3    H280121   1.660   5.867  10.899  0.3782 -0.2986 -0.6637
19544TIP3   OH280122   2.121   0.330   1.303 -0.2725  0.1866  0.5850
19544TIP3    H180123   2.099   0.423   1.297 -1.5597 -0.1238  0.1793
19544TIP3    H280124   2.210   0.324   1.268 -0.7511  1.0572 -0.8592
19545TIP3   OH280125   3.754   1.966  15.037 -0.0872  0.2051  0.4521
19545TIP3    H180126   3.708   2.023  14.976 -0.5594 -0.8337 -0.1875
19545TIP3    H280127   3.685   1.927  15.091  0.0015 -1.2847 -0.4482
19546TIP3   OH280128   2.580   3.456   1.093 -0.6889  0.2609  0.0902
19546TIP3    H180129   2.624   3.529   1.137  0.5424  0.5465 -1.4899
19546TIP3    H280130   2.554   3.397   1.163 -0.1164  1.3675  1.2772
19547TIP3   OH280131   6.615   3.745  11.656  0.1518 -0.5587 -0.2346
19547TIP3    H180132   6.624   3.802  11.732  0.2721 -0.3158 -0.4264
19547TIP3    H280133   6.705   3.719  11.634  0.0830 -0.9390 -0.0577
19548TIP3   OH280134   5.160   0.367  11.890 -0.3934  0.4269 -0.5047
19548TIP3    H180135   5.234   0.364  11.951 -1.4157  0.3998  0.7613
19548TIP3    H280136   5.152   0.277  11.858 -0.8818  0.0563  0.6119
19549TIP3   OH280137   4.415   0.513  13.415  0.2447  0.0385  0.2618
19549TIP3    H180138   4.342   0.451  13.428 -0.2394  0.4149 -0.5768
19549TIP3    H280139   4.438   0.504  13.323 -0.5426  1.8472 -0.1547
19550TIP3   OH280140   3.463   1.457  16.911 -0.1074  0.1764 -0.0624
19550TIP3    H180141   3.514   1.518  16.964  2.3126 -2.1489  0.5342
19550TIP3    H280142   3.519   1.437  16.836 -0.6975 -1.4561 -0.1181
19551TIP3   OH280143   6.537   2.055  15.129 -0.5217 -0.2097  0.0045
19551TIP3    H180144   6.491   2.054  15.213 -0.7783 -1.1862 -0.1273
19551TIP3    H280145   6.511   1.973  15.087  2.7047 -1.7788  0.6755
19552TIP3   OH280146   5.066   1.934  15.840  0.7008  0.1665  0.0090
19552TIP3    H180147   5.075   1.845  15.805 -0.6664  0.3346 -0.8154
19552TIP3    H280148   5.003   1.925  15.912  1.0917  0.3660  0.3833
19553TIP3   OH280149   0.049   6.618  14.598 -0.0518 -0.5317 -0.7265
19553TIP3    H180150  -0.030   6.669  14.615  1.0199  0.5955  1.3537
19553TIP3    H280151   0.043   6.544  14.659  0.8997  0.0624  0.1074
19554TIP3   OH280152   0.242   3.171   5.501  0.2118  0.7468 -0.0710
19554TIP3    H180153   0.325   3.124   5.508 -0.2923 -0.1456 -0.0181
19554TIP3    H280154   0.203   3.139   5.420 -0.1531  1.0528 -0.0187
19555TIP3   OH280155   1.133   6.487   5.893  0.2472  0.0514 -0.0771
19555TIP3    H180156   1.050   6.521   5.860 -1.1822 -1.7542  1.4051
19555TIP3    H280157   1.172   6.561   5.940 -1.6908  0.3212  1.2240
19556TIP3   OH280158   3.786   1.246  13.281 -0.2341  0.4521  0.1676
19556TIP3    H180159   3.802   1.339  13.296  0.9648  0.2688  0.1149
19556TIP3    H280160   3.737   1.244  13.199  2.3095  0.9296 -1.4782
19557TIP3   OH280161   2.549   6.213  16.844  0.2585 -0.1320  0.2427
19557TIP3    H180162   2.556   6.305  16.818 -0.4680 -0.8980 -3.1513
19557TIP3    H280163   2.634   6.176  16.823 -0.0752 -0.6233 -0.2577
19558TIP3   OH280164   0.191   3.051  15.137  0.3467  0.5127  0.3996
19558TIP3    H180165   0.145   3.015  15.212 -2.2632  0.3316 -1.1719
19558TIP3    H280166   0.278   3.012  15.141 -0.3633 -1.0401  2.2023
19559TIP3   OH280167   1.807   1.573  16.819 -0.1249  0.4378 -0.4533
19559TIP3    H180168   1.856   1.520  16.882 -0.9039  1.9317  1.5133
19559TIP3    H280169   1.842   1.547  16.733  3.0962  0.4068  0.7237
19560TIP3   OH280170   5.893   4.671  13.342  0.3719  1.1126  1.0980
19560TIP3    H180171   5.902   4.749  13.287 -0.7891  1.8684  1.9444
19560TIP3    H280172   5.822   4.692  13.402 -1.9995 -1.6515 -0.4848
19561TIP3   OH280173   2.097   1.813   5.862  0.2768 -0.0852 -0.4299
19561TIP3    H180174   2.089   1.759   5.941 -1.1411  0.5726 -0.0802
19561TIP3    H280175   2.046   1.767   5.796 -0.3646  0.4502 -0.3235
19562TIP3   OH280176   2.251   0.099  13.624 -0.1933 -0.0321  0.2148
19562TIP3    H180177   2.256   0.036  13.696 -1.5917 -0.2678  0.1231
19562TIP3    H280178   2.321   0.162  13.643  0.8670 -1.2773  0.6065
19563TIP3   OH280179   5.180   4.901   4.672 -0.0765 -0.1206  0.3171
19563TIP3    H180180   5.206   4.974   4.615 -0.1777  0.2305  0.7159
19563TIP3    H280181   5.195   4.934   4.761  3.2051 -1.7895  0.5190
19564TIP3   OH280182   1.649   2.714   4.760  0.5370 -0.2117 -0.4750
19564TIP3    H180183   1.584   2.785   4.759  0.6543  0.1779  3.6707
19564TIP3    H280184   1.731   2.757   4.736 -0.0625  0.0244 -2.3033
19565TIP3   OH280185   4.979   0.218   4.400  0.2700  0.5081 -0.1198
19565TIP3    H180186   5.001   0.278   4.330 -1.0852  0.9169 -0.2240
19565TIP3    H280187   5.063   0.188   4.434  0.9416  1.0718 -1.2504
19566TIP3   OH280188   2.373   0.427   2.814 -0.6451 -0.0150 -0.2300
19566TIP3    H180189   2.293   0.383   2.786 -0.1899 -0.2865 -1.1283
19566TIP3    H280190   2.357   0.520   2.795 -0.7468 -0.0669 -0.3976
19567TIP3   OH280191   2.756   6.570   1.434 -0.2741  0.0007 -0.2706
19567TIP3    H180192   2.699   6.594   1.507 -0.0343 -0.5542  0.1064
19567TIP3    H280193   2.775   6.653   1.390 -0.3413  0.3556  0.3575
19568TIP3   OH280194   0.422   1.712  11.954 -0.3581  0.1198 -0.1216
19568TIP3    H180195   0.468   1.796  11.946 -0.2246 -0.1098 -2.3684
19568TIP3    H280196   0.480   1.649  11.911 -0.0400 -1.3727  2.2775
19569TIP3   OH280197   5.169   6.309   6.471  0.9967 -0.0140  0.2444
19569TIP3    H180198   5.118   6.367   6.528  1.1029 -0.2307  0.5656
19569TIP3    H280199   5.156   6.344   6.383 -1.8072 -1.5253 -0.0652
19570TIP3   OH280200   2.565   5.411  13.007 -0.1291  0.4512  0.1945
19570TIP3    H180201   2.545   5.390  12.916  0.2802 -0.3641  0.2869
19570TIP3    H280202   2.491   5.376  13.057  0.6387 -0.9895  0.3662
19571TIP3   OH280203   4.842   5.277   1.532  0.2883  0.2951  0.5577
19571TIP3    H180204   4.906   5.315   1.472 -0.5370  0.9970  0.1022
19571TIP3    H280205   4.832   5.342   1.601 -2.0729  1.5956 -0.8750
19572TIP3   OH280206   2.156   5.876   5.116  0.0986  0.3485 -0.2699
19572TIP3    H180207   2.074   5.886   5.068 -1.0850 -2.9349  0.8500
19572TIP3    H280208   2.224   5.881   5.049 -1.0185  2.1823 -1.3452
19573TIP3   OH280209   0.855   0.798   4.695 -1.0017  0.9779 -0.1773
19573TIP3    H180210   0.769   0.762   4.719 -0.6704  0.7219  0.6439
19573TIP3    H280211   0.917   0.753   4.752 -0.1584  0.1989 -1.6549
19574TIP3   OH280212   4.908   4.562  10.905  0.1800 -0.4299 -0.2593
19574TIP3    H180213   4.991   4.550  10.860  1.0898 -0.0235  1.2676
19574TIP3    H280214   4.893   4.656  10.903 -0.8456 -0.5764 -1.4975
19575TIP3   OH280215   1.351   0.484  14.156 -0.7024 -0.3633 -0.3649
19575TIP3    H180216   1.284   0.416  14.164  0.7825 -1.8622 -0.0950
19575TIP3    H280217   1.332   0.526  14.072 -1.0808 -1.7829 -1.0240
19576TIP3   OH280218   1.039   5.289  16.992  0.3354  0.8789  0.3920
19576TIP3    H180219   1.108   5.343  16.954  1.1798  0.1509  0.8296
19576TIP3    H280220   1.019   5.224  16.924 -1.0368  2.0178 -0.3271
19577TIP3   OH280221   0.050   3.562  13.533  0.2823 -0.3419 -0.5552
19577TIP3    H180222   0.027   3.607  13.614  1.7491 -1.3640  0.4806
19577TIP3    H280223  -0.009   3.487  13.530 -0.9506  0.6334 -1.3589
19578TIP3   OH280224   1.198   5.796  12.179 -0.0771  0.5007 -0.5040
19578TIP3    H180225   1.255   5.867  12.208  0.1793  0.6252 -1.2807
19578TIP3    H280226   1.111   5.835  12.173 -0.4426  0.0987  1.5100
19579TIP3   OH280227   3.321   1.710  12.240 -0.1596 -0.7370 -0.2745
19579TIP3    H180228   3.412   1.705  12.268 -0.7657 -0.0229  2.0978
19579TIP3    H280229   3.297   1.802  12.253 -1.3168 -0.9910 -0.4836
19580TIP3   OH280230   5.627   0.585  11.772  0.8180  0.1371 -0.2947
19580TIP3    H180231   5.546   0.539  11.796  0.7613 -0.4265 -1.5263
19580TIP3    H280232   5.598   0.669  11.737  0.8603  0.5980  0.7362
19581TIP3   OH280233   6.334   2.614  15.805  1.1085  0.5729 -0.1048
19581TIP3    H180234   6.240   2.634  15.811  1.1910  0.4460  2.1693
19581TIP3    H280235   6.339   2.551  15.733 -0.8537 -0.8889  0.9279
19582TIP3   OH280236   2.193   2.734   4.351  0.5336 -0.2468 -0.0497
19582TIP3    H180237   2.213   2.680   4.427 -1.2798 -0.8586  0.0327
19582TIP3    H280238   2.262   2.800   4.350  0.9091 -0.5564  1.8093
19583TIP3   OH280239   4.998   3.612  10.798 -0.5798 -0.2375  0.2677
19583TIP3    H180240   5.089   3.597  10.771 -1.0420 -0.3585 -1.3368
19583TIP3    H280241   5.000   3.696  10.844  0.5071 -0.7589  1.2202
19584TIP3   OH280242   6.405   0.510   2.151 -0.2494  0.0189  0.1421
19584TIP3    H180243   6.427   0.421   2.175 -1.4562 -0.1704  0.6309
19584TIP3    H280244   6.442   0.564   2.221  1.1482 -0.0135 -0.5522
19585TIP3   OH280245   4.469   5.176  11.749 -0.2455 -0.2116  0.4939
19585TIP3    H180246   4.436   5.140  11.667 -3.5411  0.3272  1.4746
19585TIP3    H280247   4.550   5.127  11.764  0.1840 -0.7539 -2.7159
19586TIP3   OH280248   2.582   4.349  15.075 -0.3172 -0.1133  0.2769
19586TIP3    H180249   2.654   4.356  15.012  0.8249 -1.1719  1.4170
19586TIP3    H280250   2.600   4.269  15.123 -1.3117  0.5189  1.7750
19587TIP3   OH280251   1.532   6.184   2.490  0.2830  0.3466  0.0719
19587TIP3    H180252   1.597   6.157   2.426  0.8802 -0.7343  1.0940
19587TIP3    H280253   1.474   6.108   2.499  0.1201  0.5354  0.7057
19588TIP3   OH280254   6.368   3.384  14.945 -0.0231 -0.5756 -0.5521
19588TIP3    H180255   6.284   3.413  14.981  0.6274 -1.5681  1.9840
19588TIP3    H280256   6.377   3.293  14.975  1.4436 -0.8604 -1.7517
19589TIP3   OH280257   0.533   3.116   4.345  0.1925 -0.6257 -0.0027
19589TIP3    H180258   0.513   3.132   4.437  1.7616  0.6653  0.1575
19589TIP3    H280259   0.482   3.038   4.323 -2.1767  0.4606  1.2396
19590TIP3   OH280260   5.679   3.461   3.483 -0.6753  0.1020  0.5446
19590TIP3    H180261   5.772   3.475   3.503 -0.7538 -1.1463  1.8911
19590TIP3    H280262   5.676   3.377   3.438 -1.2015 -0.1457  1.0258
19591TIP3   OH280263   4.029   2.656   5.873 -0.6961  0.3303 -0.0731
19591TIP3    H180264   3.943   2.616   5.863  0.1835 -2.2592  1.7455
19591TIP3    H280265   4.016   2.725   5.937 -1.4237 -0.0623  0.2060
19592TIP3   OH280266   1.125   2.370  14.821 -0.0398 -0.3040  1.1809
19592TIP3    H180267   1.178   2.450  14.817 -0.4859 -0.0334  0.1447
19592TIP3    H280268   1.096   2.357  14.731 -2.6283  0.1823  1.8523
19593TIP3   OH280269   5.496   4.964  15.437  0.0758  0.7580  0.0321
19593TIP3    H180270   5.583   4.927  15.454  0.4837  1.2300 -0.9417
19593TIP3    H280271   5.494   5.046  15.487 -0.1062  0.3760  0.6616
19594TIP3   OH280272   4.588   0.753  15.585 -0.2467 -0.2322 -0.1388
19594TIP3    H180273   4.531   0.806  15.641  1.2263  1.5141 -0.1858
19594TIP3    H280274   4.532   0.726  15.512 -1.6135 -0.6461  1.0281
19595TIP3   OH280275   2.581   4.396  16.847 -0.1022 -0.3719 -0.2920
19595TIP3    H180276   2.634   4.387  16.927 -0.2000 -0.5829 -0.2515
19595TIP3    H280277   2.616   4.329  16.788  0.0497 -0.1351 -0.4711
19596TIP3   OH280278   6.650   6.688   4.616 -0.0099 -0.6287 -0.3760
19596TIP3    H180279   6.594   6.642   4.554  0.4651  1.3848 -2.4335
19596TIP3    H280280   6.707   6.742   4.562  1.6775 -0.0942  1.7784
19597TIP3   OH280281   0.942   6.185  17.152 -0.6324 -0.2302  0.1186
19597TIP3    H180282   1.038   6.191  17.156 -0.3909 -2.7508 -0.2511
19597TIP3    H280283   0.918   6.134  17.229 -1.4972 -0.9771 -0.6167
19598TIP3   OH280284   3.300   0.081  15.810  0.0635 -0.1968  0.0755
19598TIP3    H180285   3.377   0.108  15.759 -0.3056  0.3326 -0.2227
19598TIP3    H280286   3.226   0.113  15.758 -0.3096  1.1400  1.3604
19599TIP3   OH280287   1.133   1.755   1.177  0.0182 -0.3189 -0.0137
19599TIP3    H180288   1.117   1.703   1.256 -0.4419  0.7332  0.6029
19599TIP3    H280289   1.111   1.695   1.105  0.9469 -1.4629  0.6156
19600TIP3   OH280290   2.739   1.538   0.514 -0.3467 -0.4503 -0.1858
19600TIP3    H180291   2.824   1.500   0.539 -0.5863 -0.4112  0.7423
19600TIP3    H280292   2.677   1.501   0.577 -1.0070 -0.4089 -0.8002
19601TIP3   OH280293   5.445   1.987  12.874 -0.3830  0.4694  0.6672
19601TIP3    H180294   5.372   2.012  12.819 -1.3637  1.9107  2.5229
19601TIP3    H280295   5.437   1.892  12.883 -2.2925  0.6488  1.1723
19602TIP3   OH280296   2.963   4.782   4.006  0.0573 -0.0335 -0.1253
19602TIP3    H180297   2.975   4.712   3.943 -0.1261  0.7159 -1.0051
19602TIP3    H280298   2.896   4.839   3.968 -0.7284 -0.0564  1.1696
19603TIP3   OH280299   6.588   5.432  17.206  0.2632 -0.3115  0.5107
19603TIP3    H180300   6.656   5.470  17.261 -0.6578 -1.1023  2.2554
19603TIP3    H280301   6.611   5.460  17.117  1.6908  1.1447  1.2915
19604TIP3   OH280302   0.866   6.614   5.787  0.4087  0.2697 -0.1415
19604TIP3    H180303   0.888   6.573   5.704  0.3246 -0.5388  0.2264
19604TIP3    H280304   0.872   6.708   5.770 -0.2104  0.1281 -1.2195
19605TIP3   OH280305   0.703   2.311  15.107  0.4290 -0.1332  0.4759
19605TIP3    H180306   0.781   2.257  15.111 -0.1182 -0.8621  2.0636
19605TIP3    H280307   0.669   2.298  15.019  1.7726 -0.2373 -0.0537
19606TIP3   OH280308   3.303   5.463   2.219 -0.3273 -0.3505  0.6541
19606TIP3    H180309   3.392   5.451   2.185 -0.4572 -1.0727  0.5570
19606TIP3    H280310   3.288   5.558   2.213 -0.2589 -0.4173 -1.0681
19607TIP3   OH280311   2.699   3.320  17.063 -0.4287  0.3991  0.0823
19607TIP3    H180312   2.743   3.260  17.003  0.4931  1.0401  0.1044
19607TIP3    H280313   2.644   3.375  17.007 -0.8523 -0.0912  0.0080
19608TIP3   OH280314   1.221   5.668  13.710  0.3057  0.1772 -0.0149
19608TIP3    H180315   1.202   5.576  13.731  1.5303 -0.3936 -1.2622
19608TIP3    H280316   1.277   5.664  13.633 -0.6875  2.0384 -0.9086
19609TIP3   OH280317   5.902   2.421  11.938 -0.5318 -0.0598  0.8303
19609TIP3    H180318   5.985   2.468  11.925  0.4912 -1.9282  0.1305
19609TIP3    H280319   5.840   2.489  11.965  1.1805  1.4316  1.2419
19610TIP3   OH280320   6.818   2.735  16.025  0.3060  0.7482 -0.9671
19610TIP3    H180321   6.907   2.762  16.002 -0.4598  2.2552 -2.3468
19610TIP3    H280322   6.826   2.642  16.043  2.2776  0.9731 -0.4082
19611TIP3   OH280323   6.428   2.428  17.199 -0.4837 -0.0832 -0.6472
19611TIP3    H180324   6.417   2.384  17.284 -0.3386  1.0945  0.0167
19611TIP3    H280325   6.377   2.375  17.138 -0.1682 -1.2597  0.0684
19612TIP3   OH280326   0.564   0.214  12.252  0.1584 -0.0274  0.0141
19612TIP3    H180327   0.546   0.245  12.163 -0.4779 -0.4239  0.0024
19612TIP3    H280328   0.478   0.202  12.291  0.3918 -1.6459  0.0738
19613TIP3   OH280329   3.382   0.378   4.937 -0.4880 -0.0182 -0.0858
19613TIP3    H180330   3.380   0.291   4.898 -1.1923 -0.8933  1.7445
19613TIP3    H280331   3.314   0.375   5.005  2.0659  0.6123  2.6980
19614TIP3   OH280332   4.542   3.408   5.928 -0.2218 -0.9049 -0.1875
19614TIP3    H180333   4.446   3.410   5.932 -0.2586 -0.4583 -1.0002
19614TIP3    H280334   4.564   3.314   5.924 -0.7014 -0.9876 -1.2715
19615TIP3   OH280335   4.506   1.443   5.805 -0.0263  0.2839  0.3523
19615TIP3    H180336   4.430   1.414   5.755  0.4234  0.3563 -0.4023
19615TIP3    H280337   4.569   1.471   5.738  1.1542 -0.9784  0.8775
19616TIP3   OH280338   2.766   4.099  16.161 -0.2829  0.5614 -0.5996
19616TIP3    H180339   2.714   4.026  16.127  1.0298  0.3493 -2.2793
19616TIP3    H280340   2.726   4.177  16.124 -0.0100  0.4769 -1.0727
19617TIP3   OH280341   1.703   1.209   0.029  0.0449 -0.0159  0.3558
19617TIP3    H180342   1.671   1.189   0.117 -0.8250  0.4441  0.1511
19617TIP3    H280343   1.777   1.267   0.044 -0.2654  0.2781  0.7802
19618TIP3   OH280344   1.418   1.323  15.706  0.0009  0.5160 -0.0321
19618TIP3    H180345   1.333   1.302  15.747  0.8972  0.3045  1.8494
19618TIP3    H280346   1.426   1.261  15.634 -1.4484  0.5464 -0.2470
19619TIP3   OH280347   5.272   5.286  16.718 -0.1332 -0.0208  0.7347
19619TIP3    H180348   5.293   5.364  16.667  0.4165 -1.4596 -1.3864
19619TIP3    H280349   5.197   5.312  16.772  0.1867  2.0150  0.2974
19620TIP3   OH280350   4.543   2.313  16.474  0.0645  0.1591 -0.3871
19620TIP3    H180351   4.632   2.335  16.503  0.6225  0.7205 -2.3845
19620TIP3    H280352   4.556   2.259  16.396 -1.3680 -0.1404 -0.4377
19621TIP3   OH280353   3.848   6.152   0.566  0.2675  0.2180 -0.0894
19621TIP3    H180354   3.807   6.236   0.548  0.5372  0.4931  0.5520
19621TIP3    H280355   3.940   6.174   0.584 -0.1906  0.1172  2.7146
19622TIP3   OH280356   2.050   6.730   6.136 -0.2715 -0.2500  0.4914
19622TIP3    H180357   1.985   6.795   6.109  1.6814  1.5984  0.0470
19622TIP3    H280358   2.032   6.716   6.229 -1.8221 -0.4403  0.1925
19623TIP3   OH280359   0.302   1.851  12.678 -0.5245 -0.0746  0.3332
19623TIP3    H180360   0.228   1.878  12.733 -2.0628 -0.0910 -1.6093
19623TIP3    H280361   0.304   1.756  12.685 -0.7023 -0.0755  0.3813
19624TIP3   OH280362   0.901   3.215   3.484 -0.4587  0.3621 -0.3287
19624TIP3    H180363   0.859   3.131   3.503  1.7543 -1.9860 -4.3786
19624TIP3    H280364   0.829   3.276   3.470 -2.1538 -0.8816  2.1397
19625TIP3   OH280365   3.543   0.646   6.465  0.6858  0.1046  0.1652
19625TIP3    H180366   3.563   0.592   6.389  0.4567 -1.2883  1.0764
19625TIP3    H280367   3.621   0.701   6.476  0.8185  0.1686 -0.9139
19626TIP3   OH280368   5.008   1.997   0.711  0.5040  0.3078  0.1856
19626TIP3    H180369   5.027   1.992   0.805 -1.7922 -2.1124  0.6282
19626TIP3    H280370   5.019   1.908   0.679  0.9493  1.0173 -1.8433
19627TIP3   OH280371   1.173   5.400  14.785  0.6487  0.1110 -0.3085
19627TIP3    H180372   1.159   5.425  14.876  0.9436 -0.1061 -0.2037
19627TIP3    H280373   1.267   5.383  14.778  0.5225 -0.5351 -0.4896
19628TIP3   OH280374   4.855   5.443   1.292  0.0489 -0.6204  0.8402
19628TIP3    H180375   4.937   5.494   1.292 -0.5599  0.3845  0.7852
19628TIP3    H280376   4.786   5.509   1.304 -0.8753 -1.2536 -0.7290
19629TIP3   OH280377   5.272   3.210  15.120  0.2097 -0.5249 -0.1059
19629TIP3    H180378   5.182   3.185  15.101  0.9718 -2.6948 -1.1818
19629TIP3    H280379   5.281   3.298  15.082 -0.9083 -1.0452 -1.6776
19630TIP3   OH280380   5.495   3.630   3.275 -0.1466  0.0198 -0.1037
19630TIP3    H180381   5.411   3.584   3.271 -0.2219  0.1461  0.0002
19630TIP3    H280382   5.545   3.582   3.340 -0.2873  0.1852  0.1277
19631TIP3   OH280383   4.445   4.960  15.554  0.0911  0.2759  0.2076
19631TIP3    H180384   4.473   4.942  15.465  1.1627  2.3160  0.0782
19631TIP3    H280385   4.522   4.998  15.596 -0.7819  0.5360  1.6290
19632TIP3   OH280386   0.367   4.209  17.229  0.0186 -0.1273 -0.0671
19632TIP3    H180387   0.305   4.282  17.238 -0.1968 -0.3981  0.7987
19632TIP3    H280388   0.313   4.135  17.203 -0.5853 -1.0577  3.2974
19633TIP3   OH280389   1.303   4.478  15.863  0.3936  0.3395  0.1762
19633TIP3    H180390   1.260   4.561  15.839  0.3937 -0.1261 -1.5684
19633TIP3    H280391   1.268   4.415  15.800  1.5869 -0.6419  0.4784
19634TIP3   OH280392   2.408   4.885  12.121 -0.1796 -0.8753 -0.1317
19634TIP3    H180393   2.388   4.878  12.028  0.1094  0.1062 -0.2755
19634TIP3    H280394   2.413   4.794  12.151 -0.9892 -1.1945 -0.9142
19635TIP3   OH280395   4.283   2.478  14.053 -0.9216  0.2862  0.3067
19635TIP3    H180396   4.320   2.504  14.137 -1.6395 -1.7650  1.3513
19635TIP3    H280397   4.327   2.532  13.988  0.0004  1.5908  1.9666
19636TIP3   OH280398   6.457   3.991   1.370  0.0288 -0.5610  0.0564
19636TIP3    H180399   6.366   3.960   1.377  0.6286 -2.0684  1.9745
19636TIP3    H280400   6.508   3.913   1.351  1.0541  0.0829  0.0798
19637TIP3   OH280401   6.290   2.985   1.225  0.7904  0.3074 -0.1832
19637TIP3    H180402   6.235   3.004   1.301  0.9606  0.7589 -0.1676
19637TIP3    H280403   6.254   3.038   1.155  1.3095  0.7507 -0.1250
19638TIP3   OH280404   0.440   1.457   0.178 -0.1267  0.1279  0.6602
19638TIP3    H180405   0.401   1.515   0.112 -0.3955 -0.7003  0.0709
19638TIP3    H280406   0.498   1.400   0.128  0.1682 -0.0770  1.2379
19639TIP3   OH280407   1.239   0.204  12.163 -0.1133  0.4208 -0.5389
19639TIP3    H180408   1.200   0.122  12.133 -0.9624 -0.5267  2.7109
19639TIP3    H280409   1.327   0.205  12.125  0.4595 -2.7700  0.4064
19640TIP3   OH280410   1.952   4.077   1.947  0.4739  0.3731 -0.3853
19640TIP3    H180411   1.986   4.051   1.862  1.5781 -1.4480  0.5467
19640TIP3    H280412   2.028   4.111   1.994 -0.2592  2.0220 -0.3197
19641TIP3   OH280413   0.023   5.729   2.834 -0.1334  0.1192 -0.5092
19641TIP3    H180414  -0.029   5.809   2.829 -1.0860 -0.2094  2.2181
19641TIP3    H280415  -0.031   5.662   2.792  0.2794  0.6894 -2.0043
19642TIP3   OH280416   0.030   2.138   4.019  0.4881 -0.1944  0.0607
19642TIP3    H180417   0.078   2.221   4.013  1.2042 -0.2848  2.9000
19642TIP3    H280418  -0.060   2.160   3.997  0.6697  1.3691  0.7736
19643TIP3   OH280419   2.870   3.136  16.958 -0.1001  0.1709  0.6718
19643TIP3    H180420   2.884   3.052  16.915 -0.6078  0.5737 -0.3217
19643TIP3    H280421   2.920   3.130  17.039  0.5108 -0.7917  0.2463
19644TIP3   OH280422   6.029   2.750  10.996 -0.4648 -0.1518 -0.0868
19644TIP3    H180423   6.112   2.794  10.977 -1.3331  0.3758 -3.1947
19644TIP3    H280424   5.961   2.810  10.965 -2.1168 -0.3823  2.7667
19645TIP3   OH280425   5.440   6.687   1.387  0.5332 -0.5456 -0.1910
19645TIP3    H180426   5.373   6.667   1.322 -0.1867 -1.1070  0.7039
19645TIP3    H280427   5.471   6.775   1.363 -1.1751  0.1309 -0.0826
19646TIP3   OH280428   6.612   4.439   4.457  0.1141 -1.0238 -0.4319
19646TIP3    H180429   6.620   4.471   4.367  1.9617  0.0465  0.0616
19646TIP3    H280430   6.623   4.517   4.511 -0.3193 -1.7498  0.7376
19647TIP3   OH280431   5.519   4.693   1.552 -0.0354  0.1594  0.2544
19647TIP3    H180432   5.542   4.786   1.560 -0.8283  0.4164 -0.3421
19647TIP3    H280433   5.439   4.693   1.500  0.8769 -0.9652 -1.2027
19648TIP3   OH280434   2.535   2.096   3.439 -0.1355  0.0233 -0.5447
19648TIP3    H180435   2.508   2.116   3.349 -1.4726  1.1266  0.0702
19648TIP3    H280436   2.597   2.165   3.462  3.8954 -2.7104 -2.0868
19649TIP3   OH280437   2.201   5.039  15.689 -0.4834  0.4018 -0.2425
19649TIP3    H180438   2.217   5.020  15.597  2.9293 -1.5687  0.5910
19649TIP3    H280439   2.204   4.953  15.732  2.5078  1.5653  2.1816
19650TIP3   OH280440   2.626   1.112   4.001  0.2264 -0.1993  0.4311
19650TIP3    H180441   2.600   1.025   4.032  0.6929 -0.2390  0.7188
19650TIP3    H280442   2.686   1.095   3.929  1.1279 -0.1314  1.1516
19651TIP3   OH280443   2.094   3.185  16.951  0.8891 -0.3639 -0.3465
19651TIP3    H180444   2.095   3.272  16.989 -1.0215  0.0440 -1.1263
19651TIP3    H280445   2.180   3.176  16.909  1.5260  0.6777  0.6685
19652TIP3   OH280446   0.386   5.758   0.867 -0.1248  0.0269  0.0697
19652TIP3    H180447   0.374   5.818   0.941  0.9891  0.8538 -0.3810
19652TIP3    H280448   0.412   5.676   0.907 -1.6376 -0.1769  0.7003
19653TIP3   OH280449   4.982   5.105   3.248 -0.4928  0.1307  0.7685
19653TIP3    H180450   4.982   5.141   3.337 -0.2918 -0.0051  0.8249
19653TIP3    H280451   5.069   5.066   3.238 -0.7911 -0.5566  0.8012
19654TIP3   OH280452   1.848   4.888   0.484 -0.3142  0.1569 -0.6141
19654TIP3    H180453   1.908   4.952   0.445  0.2694  0.3483  0.5515
19654TIP3    H280454   1.763   4.911   0.448 -0.1553  1.7512 -0.0701
19655TIP3   OH280455   0.148   3.737   2.129  0.3184  0.1154  0.1493
19655TIP3    H180456   0.169   3.705   2.216  1.6170 -1.1263 -0.5951
19655TIP3    H280457   0.060   3.775   2.138  0.8677  1.0073  2.2241
19656TIP3   OH280458   0.654   1.290  16.373  1.1603 -0.8352  0.2210
19656TIP3    H180459   0.725   1.245  16.327  1.2784 -0.8441  0.4081
19656TIP3    H280460   0.623   1.227  16.438  2.0577 -0.2812  1.2223
19657TIP3   OH280461   6.591   6.035  16.472  0.5187 -0.4713 -0.0864
19657TIP3    H180462   6.645   5.985  16.533 -0.8866 -0.2424  1.4116
19657TIP3    H280463   6.625   6.125  16.478  0.3143 -0.4270  0.4549
19658TIP3   OH280464   4.842   6.090   0.513 -0.8900 -0.1400 -0.6433
19658TIP3    H180465   4.897   6.149   0.461 -0.8506  1.0398  0.6879
19658TIP3    H280466   4.904   6.044   0.570 -1.2042  0.9920  0.6662
19659TIP3   OH280467   4.088   3.365  12.410  0.3559 -0.3648  0.5956
19659TIP3    H180468   4.020   3.351  12.475  0.8533  1.4061  1.5473
19659TIP3    H280469   4.040   3.373  12.327 -0.5197  0.0595  1.1306
19660TIP3   OH280470   3.705   6.506   1.442 -0.1813  0.1219  0.5863
19660TIP3    H180471   3.785   6.454   1.450 -0.7299 -0.7028  0.8074
19660TIP3    H280472   3.709   6.566   1.517  0.9964  1.1920 -0.2840
19661TIP3   OH280473   5.723   0.394   1.457  0.1689  0.3602  0.0078
19661TIP3    H180474   5.750   0.303   1.444  1.5266  0.8440 -0.8626
19661TIP3    H280475   5.795   0.433   1.506  0.8182  1.5270 -1.7403
19662TIP3   OH280476   1.948   5.457   6.020  0.1627  0.0936 -0.2436
19662TIP3    H180477   1.881   5.398   6.055 -0.9143  0.4007 -1.7037
19662TIP3    H280478   2.030   5.422   6.054 -0.3439 -2.6904 -1.5925
19663TIP3   OH280479   5.949   6.207   5.939  0.2936 -0.9126  0.3486
19663TIP3    H180480   5.930   6.157   6.019  0.0963  0.9200  1.4938
19663TIP3    H280481   6.029   6.255   5.959  0.8008 -1.1831 -0.9449
19664TIP3   OH280482   3.850   5.196   2.644  0.0332 -0.4699 -0.3247
19664TIP3    H180483   3.788   5.269   2.633 -0.4389 -1.0921 -2.1665
19664TIP3    H280484   3.931   5.237   2.674 -0.6567  0.6109  0.1180
19665TIP3   OH280485   4.639   4.397  12.739 -0.0035 -0.1631 -0.2971
19665TIP3    H180486   4.706   4.405  12.671  0.8483  0.6996  0.6011
19665TIP3    H280487   4.559   4.374  12.692  0.7923 -0.6121 -1.4653
19666TIP3   OH280488   0.800   1.391  12.690 -0.4056 -0.7141  0.0310
19666TIP3    H180489   0.832   1.475  12.723 -1.6204  0.3072 -1.2902
19666TIP3    H280490   0.871   1.330  12.708  1.6730  1.1432 -1.4441
19667TIP3   OH280491   6.485   2.786  12.094 -0.2984 -0.2841 -0.6145
19667TIP3    H180492   6.445   2.781  12.181  0.2773 -3.0509 -0.3957
19667TIP3    H280493   6.410   2.783  12.033 -0.6385  0.2199 -0.2293
19668TIP3   OH280494   2.246   3.344  16.586  0.0235  0.1231  0.5078
19668TIP3    H180495   2.304   3.371  16.515  0.8746  0.7303  1.4284
19668TIP3    H280496   2.219   3.255  16.561  1.2509 -0.1331  0.0013
19669TIP3   OH280497   0.237   5.281   3.205 -0.5900 -0.3509  0.2519
19669TIP3    H180498   0.277   5.365   3.180  0.1470 -0.9295 -0.5828
19669TIP3    H280499   0.309   5.231   3.243 -1.0258 -0.6200  0.7372
19670TIP3   OH280500   0.716   0.623   0.985 -0.2563  0.3189  0.1240
19670TIP3    H180501   0.783   0.573   1.033 -1.3394 -2.3941 -0.9764
19670TIP3    H280502   0.766   0.678   0.925  1.1051 -1.8999 -0.9293
19671TIP3   OH280503   3.331   0.101  12.542  0.1772  0.2343  0.9721
19671TIP3    H180504   3.368   0.051  12.616  0.4331 -0.2240  0.5402
19671TIP3    H280505   3.393   0.172  12.528  1.3997 -1.0018 -0.2889
19672TIP3   OH280506   6.238   0.439   0.924  0.1774 -0.6781 -0.3310
19672TIP3    H180507   6.271   0.502   0.860  1.3536 -3.0012 -2.1270
19672TIP3    H280508   6.143   0.439   0.910  0.2881 -0.1962 -1.1381
19673TIP3   OH280509   4.167   1.407   4.210  0.2016 -0.2856  0.2754
19673TIP3    H180510   4.182   1.346   4.138 -0.6487  0.2975 -0.4119
19673TIP3    H280511   4.204   1.490   4.180  0.7861 -0.2894  0.9484
19674TIP3   OH280512   0.509   1.777   4.386  0.0437  0.4932 -0.0053
19674TIP3    H180513   0.551   1.717   4.448 -0.3064  0.4925  0.2308
19674TIP3    H280514   0.582   1.822   4.343  0.3830 -1.2058 -1.3026
19675TIP3   OH280515   1.491   1.958   6.626 -0.0139 -0.3987  0.0270
19675TIP3    H180516   1.472   1.868   6.600  0.8840 -0.2864 -1.0988
19675TIP3    H280517   1.411   1.988   6.670 -0.9194 -1.2124 -1.0160
19676TIP3   OH280518   0.829   4.226  13.719 -0.3330 -0.4596  0.0070
19676TIP3    H180519   0.747   4.219  13.671  0.5705 -0.6458 -1.6021
19676TIP3    H280520   0.884   4.157  13.682  0.7759  0.1062  0.5531
19677TIP3   OH280521   1.208   5.620   5.954 -0.4052 -0.1852  0.5242
19677TIP3    H180522   1.120   5.587   5.937 -0.6137  0.1161  0.9737
19677TIP3    H280523   1.196   5.715   5.961 -0.0885 -0.1692  0.8595
19678TIP3   OH280524   4.279   3.075   1.723  0.4178  0.0976  0.0216
19678TIP3    H180525   4.291   3.026   1.804  0.5709  1.1235  0.6350
19678TIP3    H280526   4.211   3.139   1.743 -1.1424 -1.0455 -1.3322
19679TIP3   OH280527   1.694   3.495  11.791  0.1189 -0.0786  0.5486
19679TIP3    H180528   1.704   3.413  11.743  0.4772 -0.2644  0.9358
19679TIP3    H280529   1.694   3.562  11.724 -1.5435 -0.4752  0.0874
19680TIP3   OH280530   2.315   6.615   1.291  0.4697  0.3848 -0.3622
19680TIP3    H180531   2.392   6.561   1.271 -0.8061 -1.8329  0.3318
19680TIP3    H280532   2.339   6.703   1.262  3.8114  0.1318  1.1940
19681TIP3   OH280533   1.201   0.934   1.909  0.1749 -0.0492  0.1256
19681TIP3    H180534   1.269   0.905   1.970  0.7867  1.4218  0.1787
19681TIP3    H280535   1.175   1.020   1.942 -2.0532 -0.7547  0.3645
19682TIP3   OH280536   5.657   5.625  14.646 -0.4154 -0.8854 -0.5575
19682TIP3    H180537   5.568   5.630  14.682 -0.5993  0.4945 -1.1584
19682TIP3    H280538   5.684   5.535  14.663 -2.3155 -1.6439 -1.2780
19683TIP3   OH280539   3.703   1.621  13.626  0.6169 -0.6116 -0.7175
19683TIP3    H180540   3.710   1.527  13.612 -2.3346 -1.2060  0.8954
19683TIP3    H280541   3.645   1.651  13.556 -0.0127 -0.3789 -0.1076
19684TIP3   OH280542   1.374   4.872  17.030 -0.2847  0.3359 -0.0454
19684TIP3    H180543   1.391   4.961  17.062  0.7418 -0.0571  0.5705
19684TIP3    H280544   1.378   4.817  17.108  0.9269 -0.4709 -0.6350
19685TIP3   OH280545   5.258   0.724  11.773  0.0304  0.3205 -0.1132
19685TIP3    H180546   5.272   0.639  11.813  0.8616 -0.3334 -1.7084
19685TIP3    H280547   5.274   0.787  11.844  1.0645 -0.8011  0.6840
19686TIP3   OH280548   5.888   6.311  14.031  0.8950  0.3026  0.1880
19686TIP3    H180549   5.839   6.350  14.104  0.5082  0.9898 -0.4209
19686TIP3    H280550   5.841   6.340  13.953  2.0130  0.5878 -0.3958
19687TIP3   OH280551   6.623   5.314   0.189  0.5507  0.7427  0.0163
19687TIP3    H180552   6.684   5.243   0.210  0.5912  0.3523 -1.3214
19687TIP3    H280553   6.586   5.289   0.104 -0.2943  1.7652  0.0671
19688TIP3   OH280554   1.011   1.993   1.212  0.0237  0.1457  0.3960
19688TIP3    H180555   0.957   2.013   1.136 -0.3356  0.6402  0.7719
19688TIP3    H280556   1.048   1.906   1.194 -1.0982 -0.3128  0.2375
19689TIP3   OH280557   4.780   0.422   4.002  0.3469 -0.3535  0.6227
19689TIP3    H180558   4.783   0.372   3.921  1.3540 -0.4329  0.6932
19689TIP3    H280559   4.740   0.362   4.065 -0.3021 -0.3453  0.2275
19690TIP3   OH280560   4.982   4.118  16.052  0.1128  0.3056  0.0367
19690TIP3    H180561   4.951   4.164  16.130  0.7042 -1.5112  1.3918
19690TIP3    H280562   4.906   4.067  16.023  0.8794 -1.8316  1.6071
19691TIP3   OH280563   3.372   2.453   6.659 -0.2666  0.0519 -0.0358
19691TIP3    H180564   3.325   2.502   6.727 -0.0753 -0.2776  0.3386
19691TIP3    H280565   3.309   2.444   6.588 -1.0720 -1.1248  0.7886
19692TIP3   OH280566   4.875   0.200   3.513 -0.4902 -0.9354  0.0651
19692TIP3    H180567   4.807   0.147   3.471 -1.2293  0.1845 -0.1718
19692TIP3    H280568   4.931   0.135   3.557 -0.0746 -2.1017 -2.0419
19693TIP3   OH280569   5.331   0.380   1.745  0.1413 -0.1857 -0.2266
19693TIP3    H180570   5.381   0.299   1.749 -1.4161 -1.1613  0.2485
19693TIP3    H280571   5.373   0.430   1.675  2.3323 -0.5363  0.7583
19694TIP3   OH280572   1.250   4.555   1.856  0.5096 -0.0974  0.6027
19694TIP3    H180573   1.164   4.568   1.816  1.3117 -3.5907 -2.8117
19694TIP3    H280574   1.235   4.491   1.925  0.2030  0.6583  1.2664
19695TIP3   OH280575   3.915   2.326   1.871 -0.0115  0.6859 -0.0351
19695TIP3    H180576   3.883   2.244   1.907 -0.1521  0.7574  0.0018
19695TIP3    H280577   3.843   2.388   1.884  0.5609  1.1384  1.0709
19696TIP3   OH280578   1.009   4.871   3.283 -0.0779  0.1854  0.0712
19696TIP3    H180579   1.099   4.870   3.250 -0.0510 -0.9721  0.1458
19696TIP3    H280580   1.006   4.946   3.342  1.2479 -0.5864  1.1538
19697TIP3   OH280581   5.326   3.281   1.018  0.0762 -0.1374 -0.1345
19697TIP3    H180582   5.335   3.188   1.035 -1.1534 -0.5173 -1.4529
19697TIP3    H280583   5.283   3.287   0.933 -1.0791  1.6141  0.5060
19698TIP3   OH280584   4.575   5.021   0.684 -0.2984 -0.2210  0.0924
19698TIP3    H180585   4.639   5.034   0.615 -0.7167 -0.2164 -0.3014
19698TIP3    H280586   4.608   4.947   0.735 -0.5214 -0.9220 -0.7562
19699TIP3   OH280587   2.173   5.013   2.959 -0.0759  0.1694 -0.3363
19699TIP3    H180588   2.132   5.042   3.041 -1.0059 -0.7316 -0.4602
19699TIP3    H280589   2.253   5.065   2.953 -0.4229  0.8720  0.7064
19700TIP3   OH280590   4.203   3.088  13.104 -0.1208  0.4278 -0.0592
19700TIP3    H180591   4.204   3.100  13.199 -0.1477 -0.9154  0.1379
19700TIP3    H280592   4.157   3.005  13.091  2.2981 -0.8799 -1.0254
19701TIP3   OH280593   5.932   4.468   0.317 -0.1157  0.5100 -0.0598
19701TIP3    H180594   5.879   4.434   0.389 -0.3754  0.3396 -0.3329
19701TIP3    H280595   5.883   4.446   0.238  0.1171  0.7905 -0.2842
19702TIP3   OH280596   1.905   2.210   0.186 -0.4123 -0.3291  0.0012
19702TIP3    H180597   1.850   2.198   0.109 -0.3037 -0.4070 -0.0659
19702TIP3    H280598   1.972   2.142   0.178 -1.0770 -1.0907  0.7781
19703TIP3   OH280599   2.754   2.664  16.604 -0.0882  0.0083 -0.1763
19703TIP3    H180600   2.668   2.691  16.637 -0.3988  0.1571 -1.0743
19703TIP3    H280601   2.776   2.587  16.656 -0.7564 -0.0199  0.0847
19704TIP3   OH280602   2.465   6.308   3.703 -0.2841 -0.2116  0.0789
19704TIP3    H180603   2.447   6.348   3.788 -0.9334  1.0100 -0.6010
19704TIP3    H280604   2.527   6.367   3.660 -1.9076  0.6030 -1.2854
19705TIP3   OH280605   2.818   6.198  16.761 -0.2147 -0.7131 -0.0651
19705TIP3    H180606   2.793   6.271  16.705 -1.1338 -0.5411  0.5475
19705TIP3    H280607   2.913   6.190  16.749 -0.3963 -0.8097 -1.7712
19706TIP3   OH280608   2.863   0.852  10.670  0.2725  0.2143  0.0580
19706TIP3    H180609   2.821   0.879  10.589  1.8041  0.4534 -0.6774
19706TIP3    H280610   2.939   0.801  10.643 -0.3887 -1.5739  1.3775
19707TIP3   OH280611   3.996   5.463   2.445 -0.4574  1.0337 -0.9372
19707TIP3    H180612   3.909   5.425   2.443 -0.2892  0.6196 -0.6508
19707TIP3    H280613   4.021   5.474   2.353 -0.4053  0.2013 -1.0307
19708TIP3   OH280614   0.078   3.297  10.513 -0.5137  0.8607 -0.3475
19708TIP3    H180615   0.131   3.249  10.576  0.0989  1.6704 -0.2241
19708TIP3    H280616  -0.006   3.250  10.511 -0.2304  0.3044  0.3967
19709TIP3   OH280617   4.537   2.080  11.332  0.6813  0.0240 -0.3718
19709TIP3    H180618   4.567   2.089  11.422  0.9537  1.8208 -0.6100
19709TIP3    H280619   4.444   2.057  11.340  0.5064  0.9234  0.3938
19710TIP3   OH280620   6.173   1.491   2.487 -0.0393 -0.0152 -0.2328
19710TIP3    H180621   6.079   1.476   2.477  0.0347 -1.7026  1.0511
19710TIP3    H280622   6.186   1.497   2.582  0.7948  3.1542 -0.4470
19711TIP3   OH280623   3.013   4.751   1.347 -0.5231 -0.2039  0.0064
19711TIP3    H180624   3.059   4.834   1.357 -0.7519  0.2377 -2.1574
19711TIP3    H280625   3.082   4.689   1.322 -0.3449 -0.7125  1.6639
19712TIP3   OH280626   1.673   0.733   2.803 -0.4063  0.2400  0.1583
19712TIP3    H180627   1.673   0.804   2.739 -2.5563  0.5175  0.4237
19712TIP3    H280628   1.659   0.776   2.887 -2.4699 -0.5027  0.2468
19713TIP3   OH280629   6.578   1.204   5.907 -0.3154  0.2199  0.3793
19713TIP3    H180630   6.600   1.194   5.815 -1.1850 -0.7508  0.2501
19713TIP3    H280631   6.658   1.180   5.954  0.5777  2.0576 -0.1046
19714TIP3   OH280632   3.046   1.671   6.035 -0.0053 -0.2169  0.2715
19714TIP3    H180633   3.127   1.718   6.016 -0.0517  0.1067  0.8233
19714TIP3    H280634   3.037   1.677   6.130 -0.6018 -0.3715  0.2295
19715TIP3   OH280635   3.894   4.782  16.287 -0.2164 -0.1095 -0.6969
19715TIP3    H180636   3.849   4.862  16.315 -0.5176 -0.4344 -0.2528
19715TIP3    H280637   3.823   4.721  16.266  0.0088 -0.1684 -1.3258
19716TIP3   OH280638   2.822   0.249   5.475  0.5263  0.3008  0.5285
19716TIP3    H180639   2.794   0.229   5.564 -0.4223  0.4983  0.2932
19716TIP3    H280640   2.801   0.342   5.464 -0.8723 -0.0914 -0.4105
19717TIP3   OH280641   4.096   3.831  11.551 -0.0067  0.7189  0.1838
19717TIP3    H180642   4.163   3.897  11.566 -0.1449  0.9538 -0.2132
19717TIP3    H280643   4.040   3.835  11.628  0.5251  0.4139  0.5881
19718TIP3   OH280644   0.067   6.507   0.857  0.4543 -0.1160  0.1247
19718TIP3    H180645   0.049   6.593   0.820 -0.4023 -0.0678  0.6522
19718TIP3    H280646   0.135   6.471   0.799  0.8872  0.9332 -0.0485
19719TIP3   OH280647   4.541   2.748  10.481  0.2304  0.3499  0.3753
19719TIP3    H180648   4.583   2.738  10.566 -1.5014 -0.1965  1.2052
19719TIP3    H280649   4.448   2.742  10.499 -0.2665  2.0236 -1.3283
19720TIP3   OH280650   6.159   2.487   2.862  0.1827 -0.4101 -0.0266
19720TIP3    H180651   6.100   2.444   2.800 -1.6393 -0.5097  1.6989
19720TIP3    H280652   6.232   2.425   2.871  0.1597 -0.6965 -1.5246
19721TIP3   OH280653   6.345   0.998  15.368 -0.1131 -0.2968  0.6724
19721TIP3    H180654   6.267   0.955  15.333 -1.3567  1.5856  0.9401
19721TIP3    H280655   6.317   1.034  15.452  0.7274  1.2471  0.3382
19722TIP3   OH280656   1.819   2.029  11.484  0.0359  0.3600  0.1136
19722TIP3    H180657   1.799   1.987  11.568  0.0593  0.5356  0.2084
19722TIP3    H280658   1.812   2.123  11.502  1.4554  0.4613  0.2978
19723TIP3   OH280659   4.179   1.105  16.404 -0.1355  0.3858 -0.5358
19723TIP3    H180660   4.095   1.060  16.393  0.6234 -0.8121 -1.7990
19723TIP3    H280661   4.167   1.189  16.359 -0.7285  0.3145 -0.5142
19724TIP3   OH280662   5.805   3.889  14.138 -0.0114 -0.1477 -0.0392
19724TIP3    H180663   5.886   3.926  14.173  0.5420  0.0929 -1.5136
19724TIP3    H280664   5.793   3.932  14.053  0.1387 -2.5987 -1.3973
19725TIP3   OH280665   6.488   4.780  14.449 -0.1658  0.4797 -0.4580
19725TIP3    H180666   6.582   4.776  14.463  0.1716  4.3004 -0.6460
19725TIP3    H280667   6.477   4.767  14.355 -0.3011 -3.3891 -0.0496
19726TIP3   OH280668   3.661   0.891   0.266 -0.1807  0.3634  0.6030
19726TIP3    H180669   3.744   0.917   0.306 -0.4464  1.0207  0.7293
19726TIP3    H280670   3.593   0.927   0.323 -0.5588  0.7131 -0.0486
19727TIP3   OH280671   4.756   6.486   2.152  0.5538 -0.4894  0.4509
19727TIP3    H180672   4.745   6.460   2.244  0.9064  1.2390  1.0244
19727TIP3    H280673   4.723   6.576   2.149 -0.5505 -0.9098 -1.3925
19728TIP3   OH280674   0.088   0.868  13.357 -0.0126 -0.0167  0.1617
19728TIP3    H180675   0.170   0.910  13.330  0.4253 -1.4050 -0.7962
19728TIP3    H280676   0.021   0.906  13.301  0.1361  0.4201  0.2782
19729TIP3   OH280677   4.763   0.661   3.853  0.4069 -0.4926 -0.0106
19729TIP3    H180678   4.854   0.666   3.827  1.0193  2.8574  2.0514
19729TIP3    H280679   4.756   0.579   3.902  1.9123 -1.4607 -1.3329
19730TIP3   OH280680   0.404   5.320   6.148 -0.1557 -0.6374  0.3413
19730TIP3    H180681   0.382   5.396   6.202  0.0785 -1.0947  1.1003
19730TIP3    H280682   0.471   5.351   6.089 -0.6117 -0.0521  0.1263
19731TIP3   OH280683   2.183   2.835  12.834 -0.1914 -0.1454  0.4410
19731TIP3    H180684   2.217   2.878  12.755 -0.0750 -1.9415 -0.5357
19731TIP3    H280685   2.260   2.794  12.873 -0.4107 -0.0220  1.0117
19732TIP3   OH280686   1.846   4.462  11.863  0.4023  0.7480 -0.3402
19732TIP3    H180687   1.847   4.407  11.942 -1.0379  0.5420 -0.4342
19732TIP3    H280688   1.811   4.546  11.893 -2.0426  0.0645 -1.0759
19733TIP3   OH280689   5.699   4.737  16.412  0.1252  0.2943 -0.5344
19733TIP3    H180690   5.699   4.642  16.407 -0.5908  0.2760 -0.3924
19733TIP3    H280691   5.788   4.761  16.438  1.0500 -0.1806 -3.0332
19734TIP3   OH280692   3.531   6.303  10.545  0.7068 -0.3385  0.0255
19734TIP3    H180693   3.486   6.387  10.546 -0.6669 -1.0317  1.6917
19734TIP3    H280694   3.596   6.309  10.615  0.1794 -0.8599  0.5701
19735TIP3   OH280695   2.185   0.920  12.789  0.1373 -0.4623  0.4909
19735TIP3    H180696   2.103   0.968  12.804  0.2038  0.8555 -2.6300
19735TIP3    H280697   2.163   0.855  12.722  1.2640 -1.3112  0.9210
19736TIP3   OH280698   6.124   0.150  14.318 -0.1748 -0.2094  0.0275
19736TIP3    H180699   6.113   0.103  14.235 -0.9346  0.6810 -0.3900
19736TIP3    H280700   6.050   0.210  14.321 -0.4445 -0.5938  1.6117
19737TIP3   OH280701   5.258   5.029  10.340  0.2772  0.4294 -0.2738
19737TIP3    H180702   5.221   4.962  10.397  1.2438  0.3755  0.3150
19737TIP3    H280703   5.313   4.981  10.278 -0.7443  0.4890 -1.2612
19738TIP3   OH280704   1.053   5.622   2.431  0.0917 -0.6745  0.5110
19738TIP3    H180705   0.978   5.679   2.451  1.5577  1.0370  1.4579
19738TIP3    H280706   1.022   5.564   2.362 -2.3938 -0.6671  1.5198
19739TIP3   OH280707   2.066   1.657  11.464 -0.3132 -0.1555  0.5881
19739TIP3    H180708   2.002   1.645  11.393 -0.0372  0.1702  0.2788
19739TIP3    H280709   2.024   1.618  11.540 -1.9939  2.2401  1.0241
19740TIP3   OH280710   1.060   2.030  12.383  0.4438  0.2532 -0.4917
19740TIP3    H180711   1.127   2.062  12.323  1.5364  0.4408  0.7737
19740TIP3    H280712   1.060   1.935  12.371  2.5549 -0.0217  1.0060
19741TIP3   OH280713   5.899   3.451   6.132  0.1038  0.0965  0.4414
19741TIP3    H180714   5.849   3.520   6.177  1.1572  2.1966 -1.3765
19741TIP3    H280715   5.982   3.494   6.108  0.7846 -1.8022 -0.8149
19742TIP3   OH280716   2.575   5.101  15.122 -0.1283  0.0795  0.4290
19742TIP3    H180717   2.663   5.126  15.092  0.0442  0.2103  1.0339
19742TIP3    H280718   2.590   5.036  15.191 -0.5249 -0.2895  0.1727
19743TIP3   OH280719   4.934   5.753  11.027 -0.0771 -0.2463  0.0632
19743TIP3    H180720   4.871   5.682  11.035 -0.6403 -0.0668 -2.2753
19743TIP3    H280721   4.893   5.815  10.966  0.4683  2.0425  1.8441
19744TIP3   OH280722   0.175   6.801  15.407 -0.4365 -0.2846 -0.0954
19744TIP3    H180723   0.182   6.826  15.315 -4.0055 -2.0226 -1.0364
19744TIP3    H280724   0.125   6.873  15.447  1.9866  0.9781  0.8630
19745TIP3   OH280725   5.386   2.434   0.009  0.6952 -0.0390  0.0827
19745TIP3    H180726   5.361   2.525   0.027 -0.2028 -0.3250  0.3309
19745TIP3    H280727   5.469   2.441  -0.037  1.5851  0.8458  1.7401
19746TIP3   OH280728   4.362   4.933  11.868 -0.5627  0.0738 -0.1410
19746TIP3    H180729   4.425   4.892  11.928 -1.9621 -1.1720  0.5258
19746TIP3    H280730   4.412   5.003  11.825  1.3220 -0.9912  0.2202
19747TIP3   OH280731   0.538   3.627   1.320  0.0112  0.3004  0.3094
19747TIP3    H180732   0.595   3.638   1.397  0.7169 -0.2668 -0.1257
19747TIP3    H280733   0.450   3.617   1.357  0.2470  0.7606  1.0098
19748TIP3   OH280734   6.805   2.226   3.216 -0.0062 -0.3667  0.0928
19748TIP3    H180735   6.743   2.289   3.250  0.8087  1.3783 -1.4677
19748TIP3    H280736   6.862   2.205   3.290 -0.8462  0.0333  0.8617
19749TIP3   OH280737   6.770   1.199  13.826 -0.2596 -0.0872  0.3143
19749TIP3    H180738   6.840   1.148  13.866  1.1381  0.5716 -1.1912
19749TIP3    H280739   6.784   1.288  13.858  0.8564  0.4427 -1.4826
19750TIP3   OH280740   3.435   4.830   4.076 -0.1587 -0.4937 -0.7322
19750TIP3    H180741   3.466   4.879   4.152 -0.7147 -1.3897  0.1076
19750TIP3    H280742   3.345   4.861   4.063 -0.6931 -1.6043  0.1208
19751TIP3   OH280743   1.156   3.335  15.526 -0.0787  0.1016 -0.5215
19751TIP3    H180744   1.173   3.360  15.617 -1.2141  1.9113 -0.7570
19751TIP3    H280745   1.095   3.401  15.494  0.6598 -0.2175 -2.7522
19752TIP3   OH280746   6.579   0.334  14.236 -0.1718  0.2573 -0.4766
19752TIP3    H180747   6.591   0.337  14.331  0.8673 -0.5350 -0.5667
19752TIP3    H280748   6.488   0.362  14.223 -0.4163  0.1196  0.7689
19753TIP3   OH280749   0.465   1.269  15.645 -0.0614  0.3160 -0.1604
19753TIP3    H180750   0.375   1.250  15.669  0.4431 -0.4347  1.2815
19753TIP3    H280751   0.485   1.352  15.687  0.0688  0.2234 -0.0359
19754TIP3   OH280752   1.089   5.148   6.187 -0.0542 -0.7412 -0.7213
19754TIP3    H180753   1.118   5.100   6.264 -1.5466 -0.4703  0.0330
19754TIP3    H280754   1.170   5.182   6.149  0.8233 -2.0169 -0.0577
19755TIP3   OH280755   5.757   5.367  14.713 -0.4248  0.2374  0.2295
19755TIP3    H180756   5.692   5.302  14.688  0.0777 -0.1947  0.0320
19755TIP3    H280757   5.841   5.328  14.688 -0.2058  1.5296 -1.1709
19756TIP3   OH280758   4.309   6.160   5.243 -0.0369 -0.6137  0.1611
19756TIP3    H180759   4.240   6.177   5.306  2.0891  1.5904  2.0739
19756TIP3    H280760   4.317   6.064   5.241 -2.4851 -0.8835  0.5175
19757TIP3   OH280761   6.170   5.563  13.543  0.7214 -0.5944  0.4519
19757TIP3    H180762   6.140   5.493  13.484 -0.3655 -1.7048  2.2341
19757TIP3    H280763   6.113   5.556  13.620  0.5642  2.3020  0.7050
19758TIP3   OH280764   2.829   0.082  16.422  0.0019 -0.3516  0.1624
19758TIP3    H180765   2.758   0.127  16.375 -0.1977 -0.2860  0.5223
19758TIP3    H280766   2.813  -0.011  16.406 -2.3370 -0.6197  3.1725
19759TIP3   OH280767   2.205   6.124  16.630 -0.0989  0.1389  0.2953
19759TIP3    H180768   2.248   6.197  16.584  2.7826 -0.6206  1.5317
19759TIP3    H280769   2.146   6.167  16.691  1.8068  1.5618  1.2690
19760TIP3   OH280770   5.853   3.073  11.272  0.2417 -0.2864  0.2956
19760TIP3    H180771   5.805   2.990  11.273 -0.0154 -0.1423 -0.0182
19760TIP3    H280772   5.934   3.053  11.226  0.0231 -0.2764 -0.0913
19761TIP3   OH280773   4.977   1.214   0.613  0.0242 -0.0484 -0.6005
19761TIP3    H180774   5.039   1.269   0.661 -0.0394  1.3389 -2.0211
19761TIP3    H280775   4.906   1.198   0.676  1.8233 -1.8108  1.1024
19762TIP3   OH280776   1.991   4.527  13.593  0.5567  0.3955  0.1280
19762TIP3    H180777   1.968   4.434  13.598  0.7212  0.3843  0.7719
19762TIP3    H280778   1.965   4.553  13.505  2.0170 -0.6604 -0.6523
19763TIP3   OH280779   0.341   0.306   5.263 -0.0085  0.3758 -0.2511
19763TIP3    H180780   0.424   0.350   5.247 -0.8874  1.7011 -1.4206
19763TIP3    H280781   0.360   0.242   5.332  1.2583  2.8186  1.8224
19764TIP3   OH280782   6.491   4.013   5.884  0.7966  0.4784 -0.0589
19764TIP3    H180783   6.435   4.086   5.856 -0.0846 -0.4083 -0.6702
19764TIP3    H280784   6.437   3.935   5.869  2.6117 -0.5225 -1.7515
19765TIP3   OH280785   0.286   3.973  11.289  0.1931 -0.5391 -0.8420
19765TIP3    H180786   0.233   3.946  11.364 -2.5200 -1.4035 -2.8797
19765TIP3    H280787   0.376   3.974  11.322 -0.8914 -0.1892  2.5406
19766TIP3   OH280788   6.386   0.832  13.497 -0.0613  0.4210 -0.3992
19766TIP3    H180789   6.387   0.927  13.506 -0.3253  0.4971 -1.0864
19766TIP3    H280790   6.316   0.803  13.555  1.9481  0.3495  2.1431
19767TIP3   OH280791   6.254   4.148   5.782 -0.0200 -1.0709  0.4089
19767TIP3    H180792   6.203   4.229   5.782  1.1804 -0.2652 -0.7948
19767TIP3    H280793   6.189   4.079   5.768 -0.9267 -0.1998  0.1760
19768TIP3   OH280794   3.651   5.522  16.602 -0.3698 -0.1794 -0.1726
19768TIP3    H180795   3.687   5.524  16.690 -0.1933 -2.6357 -0.1321
19768TIP3    H280796   3.711   5.467  16.552 -1.8081 -0.9098 -1.1685
19769TIP3   OH280797   4.616   3.763  13.670  0.8705 -0.1213 -0.2935
19769TIP3    H180798   4.573   3.684  13.702 -2.8044  0.9146 -2.1268
19769TIP3    H280799   4.601   3.762  13.575  2.3344  1.9008 -0.6147
19770TIP3   OH280800   0.509   5.798  12.940  0.2362  0.2119  0.5458
19770TIP3    H180801   0.586   5.832  12.895 -0.3602  1.6763  0.5513
19770TIP3    H280802   0.510   5.842  13.026 -2.1735  2.7266 -0.5408
19771TIP3   OH280803   6.325   5.170  15.903 -0.1036 -0.0518  0.4078
19771TIP3    H180804   6.351   5.095  15.850 -0.5066  0.3612 -0.4124
19771TIP3    H280805   6.229   5.169  15.900 -0.1182  0.3173  0.6429
19772TIP3   OH280806   1.456   2.483  13.979  0.4357  0.2115 -0.8960
19772TIP3    H180807   1.365   2.511  13.984  0.7994  1.2630  0.3039
19772TIP3    H280808   1.452   2.387  13.983 -0.5303  0.2882  1.2841
19773TIP3   OH280809   6.467   3.494   5.351  0.4327 -0.2465  0.1875
19773TIP3    H180810   6.437   3.404   5.348 -1.8977  0.4942 -1.5458
19773TIP3    H280811   6.549   3.493   5.301  1.0866 -1.5780  1.2411
19774TIP3   OH280812   0.635   0.289  17.012  0.3395  0.2590  0.0374
19774TIP3    H180813   0.636   0.289  16.916  0.8769  0.9677  0.0337
19774TIP3    H280814   0.578   0.363  17.035  0.5114  0.3222  0.2578
19775TIP3   OH280815   5.636   2.632   3.188 -0.2931 -0.9890  0.0267
19775TIP3    H180816   5.685   2.684   3.252  0.4755 -1.9505  0.2521
19775TIP3    H280817   5.638   2.683   3.108  1.0921 -0.9980  0.0350
19776TIP3   OH280818   0.265   1.348  15.271 -0.1960  0.2282 -0.0356
19776TIP3    H180819   0.255   1.285  15.342 -1.5843  1.6949  1.1319
19776TIP3    H280820   0.345   1.320  15.226  0.6367 -0.8513  1.9789
19777TIP3   OH280821   5.894   4.743   4.189  0.5762  0.1077  1.5113
19777TIP3    H180822   5.956   4.676   4.216  0.5191 -0.1015  1.1322
19777TIP3    H280823   5.945   4.803   4.133  0.3508 -0.2870  0.8707
19778TIP3   OH280824   3.972   5.965  14.238  0.7109 -0.1504 -0.5924
19778TIP3    H180825   3.951   6.041  14.184  1.9103  0.3811 -0.3397
19778TIP3    H280826   3.992   6.002  14.324 -0.7344 -0.9487  0.1199
19779TIP3   OH280827   6.197   0.056   0.010 -0.6496  0.8364 -0.0252
19779TIP3    H180828   6.221   0.102   0.091  0.6979 -0.0723  0.1091
19779TIP3    H280829   6.144  -0.018   0.040  0.0158  0.3852  0.0618
19780TIP3   OH280830   4.099   1.426   2.789 -0.1261  0.1100 -0.5089
19780TIP3    H180831   4.153   1.488   2.839 -1.8415 -0.8421  2.9060
19780TIP3    H280832   4.010   1.461   2.798 -0.7467 -1.2474 -1.1393
19781TIP3   OH280833   1.887   4.788  16.733  0.3298 -0.2034 -0.6527
19781TIP3    H180834   1.852   4.832  16.655 -0.6677 -0.4861 -0.3891
19781TIP3    H280835   1.844   4.831  16.806 -0.3944 -1.3399 -0.3695
19782TIP3   OH280836   2.747   3.611  13.356  0.1901 -0.0236  0.1449
19782TIP3    H180837   2.717   3.675  13.421 -0.9986 -1.4908  1.0984
19782TIP3    H280838   2.803   3.551  13.405 -1.0672 -1.4054 -0.0486
19783TIP3   OH280839   3.261   2.522  17.102  0.0751 -0.5975 -0.1200
19783TIP3    H180840   3.273   2.557  17.014  0.2275  0.8673  0.4618
19783TIP3    H280841   3.194   2.578  17.141  1.1728 -0.1866  1.2499
19784TIP3   OH280842   2.600   3.355   5.307 -0.3363  0.2537 -0.4090
19784TIP3    H180843   2.528   3.408   5.341 -0.3502 -0.6178  1.0359
19784TIP3    H280844   2.660   3.346   5.381 -0.3230 -1.6932 -0.5891
19785TIP3   OH280845   1.641   3.179  13.111 -0.0512 -0.2444  0.0701
19785TIP3    H180846   1.592   3.250  13.153  1.4706  0.2111  1.1701
19785TIP3    H280847   1.669   3.123  13.183  2.5631  0.5195 -0.2286
19786TIP3   OH280848   2.762   3.989   2.520  0.1774 -0.5667 -0.8171
19786TIP3    H180849   2.708   3.911   2.535 -1.2135  0.6272  0.7676
19786TIP3    H280850   2.699   4.060   2.509  1.4052  0.7757  0.4029
19787TIP3   OH280851   1.594   0.173  15.491  0.2405  0.1444  0.2496
19787TIP3    H180852   1.607   0.090  15.536 -0.6822 -0.3851 -0.4227
19787TIP3    H280853   1.638   0.163  15.407  1.5905  0.9725  0.8312
19788TIP3   OH280854   4.274   0.816   1.585  0.0843  0.3558  0.3718
19788TIP3    H180855   4.216   0.892   1.586 -0.3464  0.1717 -2.6409
19788TIP3    H280856   4.216   0.741   1.574  0.7055 -0.1042  0.1739
19789TIP3   OH280857   5.511   0.026  16.545  0.2070  0.0632  0.1042
19789TIP3    H180858   5.463   0.106  16.525  2.1973  1.1615 -0.6390
19789TIP3    H280859   5.444  -0.037  16.570 -1.9762  0.5500 -3.7082
19790TIP3   OH280860   6.035   1.525   4.961 -0.1994  0.3281  0.6628
19790TIP3    H180861   6.017   1.552   4.871  0.2038  0.4600  0.6230
19790TIP3    H280862   6.119   1.479   4.956  0.5578  1.6190  1.2167
19791TIP3   OH280863   3.260   2.759  13.893  0.4084  0.5750 -0.3295
19791TIP3    H180864   3.207   2.835  13.870 -0.9151  0.1417  1.1197
19791TIP3    H280865   3.276   2.715  13.809 -0.5588  1.3285 -0.9377
19792TIP3   OH280866   5.587   5.560  16.912 -0.2429 -0.0355  0.6104
19792TIP3    H180867   5.543   5.489  16.865  0.3269 -0.1734  0.2819
19792TIP3    H280868   5.671   5.524  16.938  0.6854  0.9619 -0.8590
19793TIP3   OH280869   4.565   2.486  11.481  0.2642 -0.0685 -0.5978
19793TIP3    H180870   4.585   2.395  11.501 -1.1945 -0.1574  0.7092
19793TIP3    H280871   4.493   2.482  11.419  0.1618  0.1852 -0.4980
19794TIP3   OH280872   1.593   0.032  11.184  0.5473 -0.0391 -0.3937
19794TIP3    H180873   1.527   0.094  11.215  0.1627 -0.8721  0.5003
19794TIP3    H280874   1.666   0.087  11.156 -0.0947  0.8494 -0.3760
19795TIP3   OH280875   5.188   6.760   3.104  0.0159 -0.5702 -0.0858
19795TIP3    H180876   5.151   6.824   3.165  0.9528  0.4818 -0.5856
19795TIP3    H280877   5.282   6.764   3.120  0.1483 -1.2700 -0.6686
19796TIP3   OH280878   4.826   5.950  15.222 -0.3353 -0.1685  0.4839
19796TIP3    H180879   4.882   6.016  15.180 -0.5005 -0.8526 -0.8887
19796TIP3    H280880   4.738   5.987  15.218 -0.6957 -1.1226 -1.8281
19797TIP3   OH280881   3.541   1.231   2.439 -0.4002  0.2642 -0.5782
19797TIP3    H180882   3.488   1.157   2.409 -1.1182  0.7941 -0.6395
19797TIP3    H280883   3.526   1.235   2.533  0.8818 -0.6294 -0.3093
19798TIP3   OH280884   6.258   4.712  15.792 -0.5555  0.1454 -0.2122
19798TIP3    H180885   6.291   4.624  15.773  1.0838  0.8502 -0.8290
19798TIP3    H280886   6.205   4.735  15.716  0.0972  0.1858 -0.6651
19799TIP3   OH280887   0.979   0.721   3.715 -0.0185 -0.2920  0.2311
19799TIP3    H180888   0.996   0.797   3.661 -0.6521 -0.4288 -0.1682
19799TIP3    H280889   0.977   0.755   3.805 -0.5805  0.2018  0.0323
19800TIP3   OH280890   4.429   1.229  10.679 -0.4521  0.3892  0.1406
19800TIP3    H180891   4.419   1.170  10.753 -1.2991  0.9724  0.5020
19800TIP3    H280892   4.450   1.171  10.605 -0.9050 -0.3209  0.5610
19801TIP3   OH280893   6.375   6.737  16.980  0.6543  0.2050 -0.1835
19801TIP3    H180894   6.460   6.733  17.024  0.3643 -0.4424  0.3344
19801TIP3    H280895   6.342   6.825  16.998  1.2519  0.4863 -0.4574
19802TIP3   OH280896   6.697   0.482   2.370 -0.0611 -0.2791 -0.3048
19802TIP3    H180897   6.644   0.557   2.340 -1.4649 -0.1718  2.1969
19802TIP3    H280898   6.655   0.455   2.451  1.5917 -2.6002 -0.1564
19803TIP3   OH280899   3.081   1.034  11.431 -0.0256 -0.3379  0.7139
19803TIP3    H180900   2.989   1.057  11.421  0.1896  0.0167 -0.7841
19803TIP3    H280901   3.081   0.940  11.449 -0.6797 -0.4271  0.3024
19804TIP3   OH280902   2.001   1.285  14.916  0.5612  0.2192 -0.0703
19804TIP3    H180903   1.943   1.350  14.956 -0.7280 -0.9983  0.1398
19804TIP3    H280904   2.079   1.286  14.971  0.8651  2.0239 -0.4580
19805TIP3   OH280905   4.984   1.378  15.528 -0.1405 -0.3240 -0.1261
19805TIP3    H180906   5.035   1.356  15.606  0.2869  0.7325 -0.0959
19805TIP3    H280907   5.031   1.451  15.488 -1.3027  0.2883 -0.4230
19806TIP3   OH280908   0.403   0.424  14.148  0.0798  0.3878 -0.0093
19806TIP3    H180909   0.360   0.425  14.063 -0.1194 -0.2630  0.0759
19806TIP3    H280910   0.372   0.503  14.192 -0.2480  0.4417 -0.3312
19807TIP3   OH280911   1.351   2.354   3.836  0.0173 -0.5825 -0.0133
19807TIP3    H180912   1.265   2.312   3.839 -0.0667 -0.3541  2.3555
19807TIP3    H280913   1.389   2.325   3.753 -2.7666  0.2373 -1.6766
19808TIP3   OH280914   4.123   5.738   6.270 -0.0687  0.4529 -0.2800
19808TIP3    H180915   4.141   5.651   6.233 -0.4657  0.6233 -0.9008
19808TIP3    H280916   4.085   5.720   6.356 -1.2382 -0.0338 -0.8745
19809TIP3   OH280917   6.773   5.354  11.029  0.0233 -0.8218 -0.6803
19809TIP3    H180918   6.838   5.315  10.971  0.2213  1.1729 -1.8860
19809TIP3    H280919   6.807   5.441  11.049 -1.2049 -0.5717  0.4991
19810TIP3   OH280920   3.370   4.793  12.037 -0.3527  0.2426 -0.5178
19810TIP3    H180921   3.335   4.741  12.109  0.1414 -0.1228 -0.5355
19810TIP3    H280922   3.465   4.783  12.043 -0.2830  0.6021 -0.9245
19811TIP3   OH280923   0.897   2.606  15.824  1.0849  0.2752 -0.0692
19811TIP3    H180924   0.909   2.701  15.817  0.1379  0.3973 -0.1563
19811TIP3    H280925   0.827   2.595  15.889 -0.3960 -0.2438 -1.6591
19812TIP3   OH280926   2.338   0.648   3.194 -0.3572 -0.5773 -0.2270
19812TIP3    H180927   2.425   0.679   3.169 -0.8916 -0.4948 -2.1193
19812TIP3    H280928   2.289   0.728   3.214  0.0182 -0.6322  0.9773
19813TIP3   OH280929   2.017   3.148  14.719 -0.0580 -0.1029 -0.2677
19813TIP3    H180930   2.043   3.203  14.794 -0.3111 -0.8529  0.3806
19813TIP3    H280931   2.047   3.060  14.743  1.6728 -0.0337 -1.9440
19814TIP3   OH280932   5.636   1.770  16.086  0.3639 -0.6049  0.1248
19814TIP3    H180933   5.614   1.780  15.993 -1.8520  2.0858  0.7669
19814TIP3    H280934   5.731   1.778  16.090  0.7698 -3.2262 -2.0705
19815TIP3   OH280935   0.789   6.693  15.805  0.4023  0.6904  0.1199
19815TIP3    H180936   0.785   6.705  15.900  2.7010  0.5857  0.2975
19815TIP3    H280937   0.736   6.763  15.769 -1.1350  0.2746  1.4706
19816TIP3   OH280938   2.191   5.653  11.543 -0.2771 -0.2207  0.3142
19816TIP3    H180939   2.253   5.719  11.575 -1.0084  0.4228  0.4561
19816TIP3    H280940   2.118   5.657  11.606 -0.4606 -0.9637  0.1541
19817TIP3   OH280941   2.732   0.622  14.034  0.2080 -0.5398  0.4829
19817TIP3    H180942   2.740   0.716  14.049  2.9642 -0.6273  0.0900
19817TIP3    H280943   2.804   0.583  14.084  0.5982 -2.1937 -1.2317
19818TIP3   OH280944   5.328   6.444  11.382  0.0729  0.4276 -0.2621
19818TIP3    H180945   5.405   6.490  11.414  0.9549 -0.1278 -1.5007
19818TIP3    H280946   5.363   6.374  11.327 -1.3090 -0.0475 -0.5847
19819TIP3   OH280947   0.745   3.412   1.120 -0.2188  0.0591  0.0527
19819TIP3    H180948   0.746   3.434   1.213  0.7035  0.2354  0.0059
19819TIP3    H280949   0.658   3.373   1.105  0.7835 -3.0774  1.6963
19820TIP3   OH280950   0.344   4.865  13.818 -0.0631  0.1422 -0.0274
19820TIP3    H180951   0.420   4.894  13.768  1.7740  1.0481  2.9829
19820TIP3    H280952   0.299   4.947  13.842 -1.7162 -0.3539 -1.2708
19821TIP3   OH280953   0.956   5.532   5.856  0.0323  0.1183 -0.2644
19821TIP3    H180954   0.898   5.559   5.927  0.8745  1.3430 -0.0108
19821TIP3    H280955   0.946   5.601   5.790 -0.0518 -0.5315 -0.9399
19822TIP3   OH280956   4.613   1.674  15.582  0.1027 -0.5855  0.3766
19822TIP3    H180957   4.673   1.693  15.511  0.5787 -1.6992  0.4592
19822TIP3    H280958   4.592   1.580  15.572  2.2761 -1.5188  3.2245
19823TIP3   OH280959   1.029   6.413  11.429 -0.4542  0.2261  0.2953
19823TIP3    H180960   0.970   6.365  11.488  0.2358 -1.2102 -0.1217
19823TIP3    H280961   1.057   6.489  11.480  1.0640 -1.5803  2.3511
19824TIP3   OH280962   5.358   6.789   2.744 -0.1586 -0.0695  0.0366
19824TIP3    H180963   5.415   6.717   2.718 -0.9643 -1.0144  0.8049
19824TIP3    H280964   5.385   6.863   2.689  1.6668 -0.5295  0.2693
19825TIP3   OH280965   3.782   3.325   6.362  0.0773 -0.2837  0.0612
19825TIP3    H180966   3.850   3.383   6.395 -0.2347 -0.0259  0.2577
19825TIP3    H280967   3.733   3.378   6.299  1.7546 -1.2749 -2.2314
19826TIP3   OH280968   5.102   5.240   0.963  0.3542 -0.3575 -0.0581
19826TIP3    H180969   5.142   5.154   0.969 -0.6297 -0.9931 -2.0053
19826TIP3    H280970   5.009   5.223   0.951 -0.0921  1.0269  1.1672
19827TIP3   OH280971   4.629   4.360  14.836 -0.6087  0.4042  0.3613
19827TIP3    H180972   4.657   4.366  14.928 -0.3647 -2.1970  0.5256
19827TIP3    H280973   4.586   4.274  14.830  0.5097 -0.0535 -2.2397
19828TIP3   OH280974   2.511   1.050   3.218 -0.8677  0.5647 -0.1973
19828TIP3    H180975   2.568   1.014   3.150  0.1478 -0.9021  1.3424
19828TIP3    H280976   2.433   0.995   3.216 -0.3600 -0.2064  0.5283
19829TIP3   OH280977   3.426   3.059   2.256  0.1457 -0.4828  0.2329
19829TIP3    H180978   3.391   3.143   2.226  1.1408 -0.2675 -0.3580
19829TIP3    H280979   3.349   3.005   2.271 -0.5119  0.5243  0.5899
19830TIP3   OH280980   1.425   1.023   5.456  0.0958 -0.1926  0.6287
19830TIP3    H180981   1.482   1.099   5.460  0.0522 -0.1972  2.3776
19830TIP3    H280982   1.336   1.060   5.458  0.0290 -0.2212 -1.0301
19831TIP3   OH280983   6.688   4.240  16.449 -0.2838 -0.1081  0.2037
19831TIP3    H180984   6.754   4.206  16.389  1.8571  2.1751  1.1309
19831TIP3    H280985   6.682   4.333  16.428 -2.0928  0.0429  1.2081
19832TIP3   OH280986   6.073   4.679   0.677 -0.4526 -0.3755  0.0375
19832TIP3    H180987   6.133   4.679   0.603 -0.2472 -0.0313  0.1976
19832TIP3    H280988   6.130   4.680   0.754 -0.6362  1.1631  0.1904
19833TIP3   OH280989   5.127   3.261   1.444 -0.4235  0.1423  0.1460
19833TIP3    H180990   5.179   3.184   1.420 -2.2830 -0.9431 -0.6915
19833TIP3    H280991   5.188   3.318   1.491  1.6814 -0.7031 -1.3724
19834TIP3   OH280992   4.273   3.346  15.774 -0.1542 -0.5054  0.0621
19834TIP3    H180993   4.300   3.287  15.703 -1.6874 -1.0792 -0.0921
19834TIP3    H280994   4.219   3.412  15.731 -1.9915 -1.4597  0.7627
19835TIP3   OH280995   4.921   3.424  15.787 -0.7845  0.3942  0.0657
19835TIP3    H180996   4.835   3.402  15.823  0.1402  0.0150  2.2137
19835TIP3    H280997   4.958   3.340  15.760 -0.8262  0.4759 -0.2502
19836TIP3   OH280998   2.720   0.914   1.465 -0.0398 -0.1280 -0.1929
19836TIP3    H180999   2.660   0.985   1.444  1.5449  0.7486 -2.1299
19836TIP3    H281000   2.806   0.947   1.441  0.7946 -2.6149 -1.0017
19837TIP3   OH281001   4.893   2.550  11.491  0.3847 -0.2938 -0.0649
19837TIP3    H181002   4.913   2.628  11.542 -0.9233 -0.8649  1.4091
19837TIP3    H281003   4.905   2.477  11.552 -1.2666 -0.9899 -0.4979
19838TIP3   OH281004   0.028   4.357  13.104 -0.4754 -0.0619  0.6228
19838TIP3    H181005   0.001   4.297  13.173  0.7654 -0.6586  0.6201
19838TIP3    H281006   0.124   4.362  13.113 -0.3691  0.3751 -0.6073
19839TIP3   OH281007   0.564   3.810   5.559 -0.4667  0.1530  0.0503
19839TIP3    H181008   0.519   3.863   5.493  1.3066  1.9568  0.1753
19839TIP3    H281009   0.656   3.834   5.550  0.4306 -2.8063  0.3112
19840TIP3   OH281010   4.120   3.295   0.182 -0.5504  0.0575  0.3616
19840TIP3    H181011   4.098   3.216   0.132  0.4387 -0.3751  0.5776
19840TIP3    H281012   4.037   3.324   0.219 -0.6794 -2.0088  1.9113
19841TIP3   OH281013   3.138   4.418   6.261 -0.7450 -0.1780  0.8845
19841TIP3    H181014   3.209   4.371   6.303 -0.2548 -0.3152 -0.0690
19841TIP3    H281015   3.170   4.508   6.253 -0.6534 -0.2467  0.4274
19842TIP3   OH281016   1.669   6.535   5.338  0.2379  0.3772 -0.2783
19842TIP3    H181017   1.707   6.452   5.366 -1.2080 -0.9550 -2.0111
19842TIP3    H281018   1.622   6.514   5.257 -3.3477  2.0389  1.1408
19843TIP3   OH281019   0.915   1.735  16.383  0.0655 -0.1957  0.1512
19843TIP3    H181020   0.972   1.659  16.395 -0.6339 -0.7631 -0.0682
19843TIP3    H281021   0.839   1.718  16.438  0.6334  1.1420  1.4135
19844TIP3   OH281022   3.864   6.547  15.744 -0.5763 -0.3418  0.1075
19844TIP3    H181023   3.843   6.460  15.779 -1.1303 -0.1893  0.1548
19844TIP3    H281024   3.795   6.604  15.777 -0.6182 -0.0225 -0.5126
19845TIP3   OH281025   5.322   4.560  14.894 -0.0017 -0.2333 -0.0178
19845TIP3    H181026   5.238   4.516  14.881  0.2642 -0.4296 -1.1346
19845TIP3    H281027   5.298   4.651  14.914 -0.4859 -0.3022 -0.2657
19846TIP3   OH281028   6.383   5.412   3.231  0.3099  0.0036 -0.3253
19846TIP3    H181029   6.425   5.497   3.240  0.2332  0.0852 -0.7068
19846TIP3    H281030   6.452   5.353   3.200  0.5659 -0.2692  0.7392
19847TIP3   OH281031   3.609   5.149  14.786 -0.2499 -0.0231 -0.0627
19847TIP3    H181032   3.551   5.081  14.753 -0.7156  0.5411 -0.4139
19847TIP3    H281033   3.697   5.110  14.781 -0.5559 -0.7509  0.1465
19848TIP3   OH281034   5.346   4.903  16.209 -0.9044  0.3464  0.0838
19848TIP3    H181035   5.315   4.871  16.294  2.0805  1.4686  1.7223
19848TIP3    H281036   5.441   4.896  16.213 -0.6362  0.3723 -3.2638
19849TIP3   OH281037   5.689   6.330   1.730 -0.4284  0.3369  0.3800
19849TIP3    H181038   5.598   6.318   1.757 -0.3614  2.8831  2.0685
19849TIP3    H281039   5.689   6.413   1.682  0.9962  0.3957  0.4403
19850TIP3   OH281040   0.591   0.822   6.123 -0.4785 -0.4940  0.0634
19850TIP3    H181041   0.596   0.795   6.215  1.3896 -2.4769 -0.5385
19850TIP3    H281042   0.508   0.785   6.092 -0.7841 -0.4107  0.7695
19851TIP3   OH281043   4.096   0.960  16.106  0.2054  0.1134 -0.0031
19851TIP3    H181044   4.082   0.988  16.197  0.8284 -0.4267  0.2716
19851TIP3    H281045   4.089   0.864  16.109 -0.8864  0.1576 -0.7396
19852TIP3   OH281046   2.996   6.682   0.989  0.1780 -0.0768  0.8399
19852TIP3    H181047   2.904   6.668   1.011  0.0954 -0.9099  0.0346
19852TIP3    H281048   2.999   6.771   0.955 -1.0976 -1.1736 -2.6681
19853TIP3   OH281049   3.693   6.364  16.170  0.4282  0.1751 -0.6249
19853TIP3    H181050   3.766   6.303  16.171  0.9778  0.7971  0.7911
19853TIP3    H281051   3.689   6.397  16.260 -0.6190  1.3022 -1.0607
19854TIP3   OH281052   1.537   3.013   4.642  0.2456  0.4942  0.2039
19854TIP3    H181053   1.495   2.935   4.607 -0.1341  1.4258 -1.4904
19854TIP3    H281054   1.562   3.064   4.565 -1.2909  2.9849  1.2499
19855TIP3   OH281055   1.557   4.403   5.904  0.1115  0.2953  0.2187
19855TIP3    H181056   1.621   4.425   5.836 -1.8811  1.8907 -1.2782
19855TIP3    H281057   1.551   4.482   5.958  0.9675 -0.6240  1.7222
19856TIP3   OH281058   3.761   5.288  15.151  0.4368  0.0217 -0.6775
19856TIP3    H181059   3.773   5.336  15.234 -2.3487 -0.2576 -0.0174
19856TIP3    H281060   3.751   5.197  15.177 -1.4368  0.0496 -1.1747
19857TIP3   OH281061   3.386   0.764  17.033 -0.0557 -0.0200  0.0025
19857TIP3    H181062   3.336   0.685  17.014 -1.1115  0.3471  1.1284
19857TIP3    H281063   3.341   0.833  16.984  0.1820  0.0886 -0.0688
19858TIP3   OH281064   0.453   6.430   2.830  0.2619 -0.4440 -0.1926
19858TIP3    H181065   0.422   6.343   2.806  0.9660 -0.7595  0.0370
19858TIP3    H281066   0.501   6.417   2.912 -2.6416  0.6944  1.8631
19859TIP3   OH281067   2.893   6.008  12.451  0.2908  0.7717  0.3073
19859TIP3    H181068   2.984   5.980  12.462  1.0152  2.0864 -1.9287
19859TIP3    H281069   2.851   5.935  12.406  0.4739  0.5807  0.4419
19860TIP3   OH281070   3.469   3.871  16.166 -0.4511 -0.4623  0.4419
19860TIP3    H181071   3.409   3.853  16.093  0.5157 -0.6943 -0.3280
19860TIP3    H281072   3.439   3.813  16.236 -0.4448 -1.4236 -0.3158
19861TIP3   OH281073   2.405   3.521   5.377 -0.3002  0.1069 -0.3684
19861TIP3    H181074   2.374   3.475   5.455  0.4277  1.9095  1.0811
19861TIP3    H281075   2.385   3.613   5.394 -0.2342  0.5477 -2.4049
19862TIP3   OH281076   4.141   2.184   4.197 -0.2341 -0.2103 -0.1162
19862TIP3    H181077   4.213   2.127   4.224  0.4566  0.5410 -0.3134
19862TIP3    H281078   4.072   2.168   4.262  0.0291 -1.0933 -0.0469
19863TIP3   OH281079   0.117   3.721   5.405  0.6100 -0.2875 -0.3535
19863TIP3    H181080   0.166   3.677   5.475  0.6828  1.9006  1.0830
19863TIP3    H281081   0.170   3.706   5.326  1.5208 -1.2382  0.4058
19864TIP3   OH281082   6.078   5.381   3.116  0.3845 -0.1533 -0.3171
19864TIP3    H181083   6.163   5.422   3.102  0.8447 -0.2128  1.9476
19864TIP3    H281084   6.015   5.453   3.108  0.9380  0.4890  0.7659
19865TIP3   OH281085   5.077   5.758   0.572 -0.4304 -0.5967 -0.1152
19865TIP3    H181086   4.997   5.765   0.623 -0.1771  3.2314  0.0452
19865TIP3    H281087   5.148   5.764   0.637  0.0159 -1.8818 -0.4435
19866TIP3   OH281088   1.512   1.908  14.007  0.0759 -0.5617  0.1392
19866TIP3    H181089   1.500   1.813  14.008  1.8577 -0.8435 -1.0448
19866TIP3    H281090   1.427   1.943  14.034 -0.8187 -2.4688 -0.0410
19867TIP3   OH281091   0.225   6.106  12.005 -0.0688 -0.0112 -0.7296
19867TIP3    H181092   0.165   6.168  12.045  1.2503  0.9031 -0.0903
19867TIP3    H281093   0.225   6.129  11.912 -0.6060  0.0459 -0.7201
19868TIP3   OH281094   3.205   4.747  16.930  0.2241 -0.1636 -0.4038
19868TIP3    H181095   3.186   4.761  16.837  0.9865 -2.2864 -0.9360
19868TIP3    H281096   3.294   4.781  16.941  0.3427 -0.4142 -0.5855
19869TIP3   OH281097   6.462   5.792  13.639 -0.8699 -0.1328  0.6665
19869TIP3    H181098   6.432   5.713  13.595 -0.5025 -1.2461  2.2902
19869TIP3    H281099   6.384   5.827  13.682 -0.7394 -0.5119  1.2256
19870TIP3   OH281100   0.841   3.603  15.902 -0.4419  0.0746 -0.2715
19870TIP3    H181101   0.833   3.646  15.816  1.4792 -1.9025 -1.5470
19870TIP3    H281102   0.907   3.654  15.948 -0.4980  0.3527 -0.4926
19871TIP3   OH281103   5.820   4.519  14.507 -0.1307  0.1315 -0.0611
19871TIP3    H181104   5.887   4.564  14.455 -0.5339  0.0567 -0.6645
19871TIP3    H281105   5.794   4.444  14.452  1.7438 -1.8905  1.6125
19872TIP3   OH281106   2.341   1.660  17.065 -0.1910 -0.1864 -0.2034
19872TIP3    H181107   2.376   1.687  16.980  0.0664 -0.7173 -0.2669
19872TIP3    H281108   2.385   1.717  17.128 -1.1066  0.8931 -0.4908
19873TIP3   OH281109   6.557   5.165   4.553 -0.4258 -0.0780  0.5672
19873TIP3    H181110   6.581   5.192   4.641 -0.0884  0.3811  0.3353
19873TIP3    H281111   6.466   5.193   4.543 -0.2284  0.5601  0.5014
19874TIP3   OH281112   0.659   1.421   4.404 -0.1199  0.4171  0.4775
19874TIP3    H181113   0.567   1.447   4.392 -0.4942 -0.5976  1.0507
19874TIP3    H281114   0.686   1.468   4.483 -0.4508 -0.0339  0.8657
19875TIP3   OH281115   6.821   3.785   5.688 -0.3661 -0.0157 -0.2231
19875TIP3    H181116   6.815   3.861   5.745 -1.2310 -0.8861  0.9152
19875TIP3    H281117   6.765   3.806   5.613 -1.3826  0.1144  0.5442
19876TIP3   OH281118   1.443   2.587  12.218  0.6802  0.0829 -0.3890
19876TIP3    H181119   1.463   2.561  12.308  0.5517 -1.6903 -0.8422
19876TIP3    H281120   1.384   2.519  12.186 -0.2141  1.3141 -1.4554
19877TIP3   OH281121   6.276   0.834  14.030  0.0309 -0.0119  0.7637
19877TIP3    H181122   6.327   0.914  14.040  0.4543 -0.0573 -0.7285
19877TIP3    H281123   6.273   0.795  14.117  0.5291  1.1959  1.3393
19878TIP3   OH281124   6.719   1.421  11.028  0.4546  0.3099  0.0125
19878TIP3    H181125   6.667   1.349  10.993  0.7045  0.1995 -0.1256
19878TIP3    H281126   6.684   1.434  11.117 -0.0999  0.5200 -0.2303
19879TIP3   OH281127   6.627   0.227   2.132  0.0515 -0.1817 -0.0728
19879TIP3    H181128   6.634   0.300   2.071 -0.5376 -0.2123 -0.1832
19879TIP3    H281129   6.565   0.167   2.091 -0.6755 -0.0029  0.7424
19880TIP3   OH281130   0.106   5.255   2.289  0.2042  0.4641 -0.2345
19880TIP3    H181131   0.026   5.205   2.272  1.0265 -0.9630 -0.1144
19880TIP3    H281132   0.096   5.334   2.237 -0.9289 -0.0657 -0.8715
19881TIP3   OH281133   3.466   3.669  15.184 -0.1410 -0.4762  0.4839
19881TIP3    H181134   3.503   3.754  15.211  1.2615 -1.6866  2.6658
19881TIP3    H281135   3.433   3.684  15.095  0.9784  2.0709  0.4157
19882TIP3   OH281136   4.376   5.319   4.850 -1.3141 -0.4915 -0.3138
19882TIP3    H181137   4.463   5.283   4.868 -1.7313 -3.0826 -2.9130
19882TIP3    H281138   4.342   5.342   4.937  2.3907  1.9635  0.7227
19883TIP3   OH281139   0.226   2.991  12.556 -0.3797  0.5881  0.1345
19883TIP3    H181140   0.245   2.912  12.606  3.2130  0.2277 -1.5263
19883TIP3    H281141   0.185   3.050  12.620 -0.5556 -1.5566  2.1367
19884TIP3   OH281142   2.422   4.782  15.032 -0.0347  0.2035 -0.1076
19884TIP3    H181143   2.439   4.688  15.022  3.5770  0.8849 -1.7579
19884TIP3    H281144   2.488   4.824  14.978 -2.2505  3.7527 -0.3609
19885TIP3   OH281145   1.814   0.226   4.993 -0.0167 -0.4584 -0.4848
19885TIP3    H181146   1.792   0.316   4.966 -1.0461 -0.8130 -0.8666
19885TIP3    H281147   1.866   0.192   4.920 -0.1629 -0.3827 -0.6264
19886TIP3   OH281148   2.013   2.188  11.669 -0.1955 -0.1451 -0.3232
19886TIP3    H181149   1.938   2.247  11.679  2.2393  3.2434 -0.5748
19886TIP3    H281150   2.058   2.192  11.753  1.6882  0.9350 -1.3221
19887TIP3   OH281151   6.554   0.762  14.590 -0.1932  0.6228  0.1680
19887TIP3    H181152   6.488   0.692  14.589 -0.4852  0.8984 -0.2510
19887TIP3    H281153   6.574   0.774  14.683  0.5167 -0.6188  0.2005
19888TIP3   OH281154   6.419   6.086   0.126 -0.3097  0.4567  0.2407
19888TIP3    H181155   6.419   6.011   0.186 -4.3850 -1.0400 -1.2565
19888TIP3    H281156   6.464   6.054   0.048 -2.5425 -0.8185 -0.6178
19889TIP3   OH281157   2.305   3.054  11.916  0.2991 -0.0500  0.6150
19889TIP3    H181158   2.316   2.976  11.863  0.2776 -2.1494  3.4822
19889TIP3    H281159   2.210   3.070  11.916  0.1707 -0.8067  1.0578
19890TIP3   OH281160   4.714   6.786  16.080  0.0973 -0.0429 -0.0500
19890TIP3    H181161   4.732   6.741  15.998 -0.1070  1.6511 -1.0651
19890TIP3    H281162   4.778   6.750  16.142  1.5107 -0.0269 -1.4529
19891TIP3   OH281163   1.760   6.611   5.075  0.8603 -0.3436  0.2821
19891TIP3    H181164   1.714   6.695   5.083  1.0256 -0.3336  1.1427
19891TIP3    H281165   1.804   6.599   5.159  2.6007 -0.2739 -0.5779
19892TIP3   OH281166   3.473   6.342   2.248 -0.4607  0.0981 -0.7109
19892TIP3    H181167   3.465   6.435   2.226 -1.0301  0.0844 -0.5768
19892TIP3    H281168   3.548   6.338   2.307  0.6960  0.2205 -2.1243
19893TIP3   OH281169   1.580   5.696   1.206  0.0293  0.3636  0.2336
19893TIP3    H181170   1.520   5.764   1.176  0.8701  0.9835 -0.0700
19893TIP3    H281171   1.532   5.650   1.275 -0.4249  1.4681  0.6700
19894TIP3   OH281172   2.827   3.186  12.666 -0.1646  0.1513  1.1214
19894TIP3    H181173   2.918   3.206  12.646 -1.1416  5.5147  0.6421
19894TIP3    H281174   2.786   3.172  12.581 -0.6015  3.1411  0.7195
19895TIP3   OH281175   6.520   4.878  17.034  0.2737  0.0935  0.4106
19895TIP3    H181176   6.599   4.826  17.017  1.0729  1.9124 -2.1497
19895TIP3    H281177   6.551   4.957  17.078 -0.6338 -0.5992  2.3852
19896TIP3   OH281178   0.392   4.106   0.940  0.4279 -0.4528  0.0291
19896TIP3    H181179   0.463   4.058   0.982 -0.2395 -1.6912 -0.1935
19896TIP3    H281180   0.408   4.096   0.847  0.2813 -0.2503 -0.0185
19897TIP3   OH281181   3.555   4.317  15.911  0.0002  0.3198  0.5792
19897TIP3    H181182   3.479   4.363  15.876 -0.1848 -0.1018  0.4217
19897TIP3    H281183   3.518   4.254  15.974  0.2542  0.4294  0.8420
19898TIP3   OH281184   2.832   1.774  15.493  0.2566  0.1346 -0.2315
19898TIP3    H181185   2.743   1.805  15.512 -0.7408 -1.6985 -1.6336
19898TIP3    H281186   2.858   1.824  15.416  0.4893  0.6992  0.2021
19899TIP3   OH281187   5.417   3.087  13.763 -0.3136  0.1824 -0.1385
19899TIP3    H181188   5.369   3.169  13.758 -0.8092 -0.1561 -1.2094
19899TIP3    H281189   5.368   3.035  13.827  0.5341  1.0308  1.2626
19900TIP3   OH281190   5.738   3.526   4.403 -0.2812  0.1476 -0.0257
19900TIP3    H181191   5.812   3.525   4.343 -1.2618 -2.3317 -1.3380
19900TIP3    H281192   5.736   3.615   4.438  2.7043  0.5429 -0.6413
19901TIP3   OH281193   2.913   6.364  17.078 -0.2854  0.2508  0.4124
19901TIP3    H181194   2.901   6.352  17.172 -0.3727 -1.0006  0.2653
19901TIP3    H281195   2.958   6.284  17.049 -1.3829  0.0281 -0.7982
19902TIP3   OH281196   5.347   2.074  16.357 -0.6689  0.5041 -0.1541
19902TIP3    H181197   5.338   2.050  16.265  1.0232  1.5509 -0.6197
19902TIP3    H281198   5.351   1.990  16.403  2.5662 -0.1956 -1.4778
19903TIP3   OH281199   5.914   4.080   1.182 -0.1418  0.2707 -0.7953
19903TIP3    H181200   5.851   4.047   1.118 -0.3607 -1.4366  0.2027
19903TIP3    H281201   5.928   4.171   1.159 -2.8995  0.6753 -1.1340
19904TIP3   OH281202   3.868   5.263  17.280 -0.0124  0.1383 -0.2307
19904TIP3    H181203   3.893   5.172  17.262 -1.4654 -0.2755 -0.2937
19904TIP3    H281204   3.950   5.311  17.275  0.9850 -1.3287  0.9571
19905TIP3   OH281205   4.169   5.254  14.605  0.6005 -0.6209 -0.3588
19905TIP3    H181206   4.105   5.240  14.675  0.4176 -1.8171 -0.7478
19905TIP3    H281207   4.190   5.348  14.610 -0.2305 -0.4699  0.5774
19906TIP3   OH281208   4.850   2.603   5.755 -0.1619  0.0473  0.2758
19906TIP3    H181209   4.880   2.552   5.831  0.3293 -2.1379 -1.2722
19906TIP3    H281210   4.784   2.662   5.791 -0.1108 -1.0619  2.3829
19907TIP3   OH281211   0.288   1.078  14.902  0.3976 -0.1265 -0.7992
19907TIP3    H181212   0.197   1.049  14.900  0.0527  0.7750  0.4552
19907TIP3    H281213   0.319   1.051  14.989  1.4642 -0.7778 -1.3610
19908TIP3   OH281214   1.214   0.845   2.702 -0.1943  0.1707  0.4742
19908TIP3    H181215   1.121   0.821   2.701 -0.2236  0.2834 -0.4856
19908TIP3    H281216   1.260   0.763   2.689 -0.1383  0.0663  1.2826
19909TIP3   OH281217   3.416   1.968  14.798  0.3695  0.0030 -0.3984
19909TIP3    H181218   3.338   2.023  14.800  0.8217  0.6736 -1.0867
19909TIP3    H281219   3.395   1.896  14.858 -0.7500  0.2052 -0.5230
19910TIP3   OH281220   3.468   5.520  13.146 -0.7602 -0.3667 -0.5521
19910TIP3    H181221   3.545   5.475  13.179 -0.2900 -0.0641 -1.1937
19910TIP3    H281222   3.416   5.540  13.223 -0.1139 -0.4361 -0.0935
19911TIP3   OH281223   1.050   6.584  16.276 -0.0330 -0.6590  0.4134
19911TIP3    H181224   0.964   6.583  16.317 -0.1928 -0.3784  0.0931
19911TIP3    H281225   1.108   6.541  16.338 -0.2070  0.0257  1.0620
19912TIP3   OH281226   4.561   1.917  15.682  0.1756 -0.2673 -0.0823
19912TIP3    H181227   4.655   1.923  15.697  0.2045 -1.1042  0.1489
19912TIP3    H281228   4.547   1.826  15.654 -0.3746  0.2236 -1.4988
19913TIP3   OH281229   0.980   5.301   0.690  0.2911 -0.0188 -0.2735
19913TIP3    H181230   0.992   5.327   0.599  2.6000 -2.2535 -0.7411
19913TIP3    H281231   0.990   5.382   0.741 -1.5067  1.3402 -1.9753
19914TIP3   OH281232   0.752   4.613   0.109  0.1725 -0.1497 -0.1565
19914TIP3    H181233   0.741   4.615   0.014 -1.0176  0.1303 -0.0285
19914TIP3    H281234   0.794   4.529   0.127 -1.0162 -0.9090 -0.8079
19915TIP3   OH281235   1.216   2.230   1.146 -0.0229 -0.1255 -0.6924
19915TIP3    H181236   1.143   2.171   1.160 -0.2427  0.2381 -0.2969
19915TIP3    H281237   1.272   2.184   1.083  0.5801 -1.4378  0.7441
19916TIP3   OH281238   0.484   2.035  13.509 -0.1664 -0.0930 -0.1032
19916TIP3    H181239   0.533   1.953  13.506 -0.8481 -0.5737  1.1366
19916TIP3    H281240   0.527   2.087  13.577 -0.5900  0.0069  0.0903
19917TIP3   OH281241   5.877   4.327   4.111 -0.3723  0.1476 -0.2357
19917TIP3    H181242   5.862   4.262   4.179 -0.1554  0.7162  0.3672
19917TIP3    H281243   5.928   4.396   4.154  2.0300 -0.6373 -1.6025
19918TIP3   OH281244   1.662   4.967  16.190 -0.1151 -0.1424  0.2737
19918TIP3    H181245   1.719   4.900  16.228 -0.1484 -0.3600 -0.0568
19918TIP3    H281246   1.687   4.971  16.098 -0.0163  0.4061  0.3216
19919TIP3   OH281247   5.979   1.471   1.030  0.5075  0.9708 -0.0231
19919TIP3    H181248   6.038   1.462   1.105 -0.3572  0.6636  0.6391
19919TIP3    H281249   5.977   1.565   1.013  0.8246  1.0308  0.2557
19920TIP3   OH281250   3.383   5.666   1.964 -0.4501 -0.3076 -0.1128
19920TIP3    H181251   3.309   5.724   1.945 -0.7468 -0.7702 -0.3899
19920TIP3    H281252   3.417   5.698   2.047 -1.2273 -0.3574  0.2390
19921TIP3   OH281253   4.924   3.803   4.631 -0.2354  0.2128 -0.5867
19921TIP3    H181254   4.857   3.802   4.563  0.1953  0.3680 -1.0133
19921TIP3    H281255   4.991   3.863   4.598 -0.4738  1.0541  0.4045
19922TIP3   OH281256   6.182   3.715  12.875  0.1043 -0.8678 -0.4272
19922TIP3    H181257   6.157   3.646  12.814 -1.2367  1.1027 -2.2611
19922TIP3    H281258   6.184   3.795  12.822 -1.7795  1.1163  2.1716
19923TIP3   OH281259   6.501   2.159   0.553 -0.2237  0.4018  0.5954
19923TIP3    H181260   6.520   2.111   0.473 -0.2285 -0.1876  0.9406
19923TIP3    H281261   6.573   2.221   0.562 -0.6002  0.9868 -0.2434
19924TIP3   OH281262   3.158   0.749  11.441 -0.5391 -0.5467 -0.1489
19924TIP3    H181263   3.132   0.699  11.518 -0.6167 -2.9863 -1.6735
19924TIP3    H281264   3.104   0.715  11.370  0.6031  0.5204 -1.6106
19925TIP3   OH281265   2.891   1.601   3.794  0.3442  0.1687  0.6243
19925TIP3    H181266   2.818   1.658   3.769  1.3421  1.3768  0.3735
19925TIP3    H281267   2.866   1.514   3.761 -1.2617  0.4078  1.1103
19926TIP3   OH281268   2.350   1.266  15.283 -0.5086 -0.4137 -0.1480
19926TIP3    H181269   2.301   1.346  15.299 -0.0772  0.2360 -1.8174
19926TIP3    H281270   2.291   1.195  15.309 -0.8211  0.4191  1.5361
19927TIP3   OH281271   2.049   5.547   5.164  0.0903  0.0527  0.6817
19927TIP3    H181272   1.992   5.574   5.092  0.1648 -0.8527  0.2743
19927TIP3    H281273   2.137   5.547   5.127 -0.1283 -3.1557 -0.1256
19928TIP3   OH281274   5.350   5.693   0.697  0.0814 -0.2900 -0.3538
19928TIP3    H181275   5.303   5.674   0.779  1.1387  0.6661  0.4966
19928TIP3    H281276   5.415   5.623   0.690 -0.5514 -0.8429 -0.8247
19929TIP3   OH281277   1.557   0.686   0.683  0.3419 -0.1853 -0.4835
19929TIP3    H181278   1.472   0.725   0.703  0.7165  0.4422 -0.0475
19929TIP3    H281279   1.616   0.761   0.672  1.0957 -0.6206  0.4101
19930TIP3   OH281280   4.083   2.203   2.107 -0.4938 -0.2763 -0.1938
19930TIP3    H181281   4.140   2.229   2.035 -0.7833  2.1217  0.3383
19930TIP3    H281282   4.051   2.116   2.083  3.0781 -1.6366 -0.6633
19931TIP3   OH281283   1.436   1.456  11.551 -0.5108 -0.0203  0.4681
19931TIP3    H181284   1.365   1.503  11.594 -0.7381  1.6831 -1.6163
19931TIP3    H281285   1.504   1.522  11.537  0.6899 -1.1587  0.6351
19932TIP3   OH281286   5.349   1.799   3.529  0.2262 -0.1534 -0.3096
19932TIP3    H181287   5.339   1.892   3.552 -1.4945 -0.2645 -0.4699
19932TIP3    H281288   5.388   1.801   3.441  1.6890  0.3638  0.3195
19933TIP3   OH281289   6.711   5.395  15.116  0.4568 -0.2758  0.0011
19933TIP3    H181290   6.762   5.386  15.036  1.3248  2.6723  0.0970
19933TIP3    H281291   6.763   5.348  15.182  1.8010  0.5482 -0.4143
19934TIP3   OH281292   0.453   1.206  12.897 -0.2448 -0.0070  0.6776
19934TIP3    H181293   0.483   1.288  12.858  0.3563 -0.4737  0.1521
19934TIP3    H281294   0.359   1.206  12.882 -0.2159  0.4735  0.4647
19935TIP3   OH281295   2.838   5.995  11.422  0.0448  0.2452 -0.0241
19935TIP3    H181296   2.883   5.969  11.503  0.6863 -0.6462 -0.6577
19935TIP3    H281297   2.835   6.091  11.427  0.3620  0.2215  0.9034
19936TIP3   OH281298   5.938   5.738  16.723  0.6152  0.2615 -0.4538
19936TIP3    H181299   5.942   5.824  16.681  1.3445  0.8570  0.7781
19936TIP3    H281300   5.879   5.687  16.668 -1.6845  2.2489  0.0006
19937TIP3   OH281301   4.503   3.217   3.590 -0.1120  0.1474  1.0210
19937TIP3    H181302   4.539   3.132   3.614  0.4122  0.2242  0.5381
19937TIP3    H281303   4.521   3.273   3.665  0.0615 -0.0199  1.1055
19938TIP3   OH281304   5.163   1.699  11.245  0.0619 -0.0396 -0.2857
19938TIP3    H181305   5.125   1.741  11.167  0.9168  0.2128 -0.5727
19938TIP3    H281306   5.124   1.747  11.319  0.1346  0.4913 -0.5828
19939TIP3   OH281307   1.226   3.863  12.128 -0.4886  0.1826 -0.5318
19939TIP3    H181308   1.262   3.802  12.064  1.2087  1.3045 -0.7156
19939TIP3    H281309   1.187   3.808  12.195  1.9622 -1.1844 -0.1183
19940TIP3   OH281310   4.185   4.979  15.589  0.1815 -0.2142 -0.2520
19940TIP3    H181311   4.163   4.893  15.625  0.7754 -0.1320  0.3275
19940TIP3    H281312   4.276   4.972  15.562  0.2553  0.2482 -0.1387
19941TIP3   OH281313   2.225   1.440  17.161  0.2008 -0.5587 -0.0866
19941TIP3    H181314   2.249   1.368  17.103  2.8197  0.4246 -0.3521
19941TIP3    H281315   2.253   1.519  17.115 -0.4763  0.4645  1.1927
19942TIP3   OH281316   6.002   1.649   4.732  0.6832 -0.9976 -0.2491
19942TIP3    H181317   6.058   1.727   4.729  0.7129 -0.9655  0.8517
19942TIP3    H281318   5.920   1.680   4.771  0.7185 -1.5268  0.2529
19943TIP3   OH281319   4.342   5.987  13.024  0.0482 -0.0625  0.3374
19943TIP3    H181320   4.265   5.937  13.051 -1.2005  1.1612 -0.7971
19943TIP3    H281321   4.311   6.040  12.950  1.3172  2.3611  1.4536
19944TIP3   OH281322   3.345   3.009   1.916  0.0827  0.6564 -0.2894
19944TIP3    H181323   3.369   3.008   1.824 -1.3631 -0.4576 -0.7130
19944TIP3    H281324   3.382   2.928   1.951  0.1273  0.7859 -0.0346
19945TIP3   OH281325   3.334   6.187   2.763 -0.0758 -0.2786  0.3112
19945TIP3    H181326   3.378   6.102   2.759  0.9732  0.2840 -0.7654
19945TIP3    H281327   3.291   6.196   2.678 -1.0200 -0.1591  0.7925
19946TIP3   OH281328   2.748   0.757   6.438 -0.1110  0.0278  0.4612
19946TIP3    H181329   2.805   0.775   6.513 -1.7838  0.7892  1.6179
19946TIP3    H281330   2.766   0.666   6.415  2.1333  0.4534  0.2153
19947TIP3   OH281331   6.358   6.457   6.340  0.0256 -0.3663  0.6966
19947TIP3    H181332   6.408   6.380   6.366 -0.1801 -0.8257 -0.2350
19947TIP3    H281333   6.375   6.521   6.409  0.4133 -1.1510  1.3429
19948TIP3   OH281334   0.945   1.400  13.387  0.4407 -0.4740  0.0013
19948TIP3    H181335   0.855   1.409  13.355  0.7269 -0.6661 -0.8787
19948TIP3    H281336   0.955   1.474  13.448 -0.1939 -0.2376 -0.1662
19949TIP3   OH281337   1.546   4.842  14.606  0.5123 -0.1268 -0.2426
19949TIP3    H181338   1.584   4.755  14.590  0.9357  0.5011 -3.3023
19949TIP3    H281339   1.610   4.903  14.570 -1.0644  1.2673 -0.7869
19950TIP3   OH281340   3.821   0.252   3.684 -0.6103 -0.1377  0.1545
19950TIP3    H181341   3.891   0.305   3.645 -0.2895  0.2500  1.2360
19950TIP3    H281342   3.854   0.162   3.678 -0.1700  0.0075  0.3527
19951TIP3   OH281343   0.321   5.535   4.615 -0.2290  0.1296 -0.2349
19951TIP3    H181344   0.247   5.572   4.568 -0.0812  0.0443 -0.5365
19951TIP3    H281345   0.336   5.595   4.688 -0.6856  0.0695 -0.0909
19952TIP3   OH281346   4.045   0.883   2.534 -0.3224 -0.2144  0.6145
19952TIP3    H181347   4.134   0.918   2.533  0.8516 -2.9132  1.3533
19952TIP3    H281348   3.996   0.945   2.588  1.1484  1.2363  0.3577
19953TIP3   OH281349   0.480   5.813   6.562  0.3588  0.2630 -0.5396
19953TIP3    H181350   0.432   5.882   6.517 -0.5124 -0.7887 -1.2876
19953TIP3    H281351   0.433   5.733   6.540  1.2589 -0.5624  0.4121
19954TIP3   OH281352   6.713   4.138  16.725  0.2566 -0.4633  0.8193
19954TIP3    H181353   6.789   4.179  16.766 -0.4318  0.3597  1.3217
19954TIP3    H281354   6.712   4.171  16.636 -1.1558  1.9519  1.6314
19955TIP3   OH281355   3.752   4.840  12.234 -0.4452  0.5732 -0.4018
19955TIP3    H181356   3.756   4.913  12.295 -0.6687  0.3357 -0.0973
19955TIP3    H281357   3.729   4.879  12.150 -0.4299  0.8668 -0.2688
19956TIP3   OH281358   4.028   2.641   3.966  0.4062 -0.3795 -0.0272
19956TIP3    H181359   4.088   2.650   3.892 -0.6255 -0.3035 -0.8656
19956TIP3    H281360   3.957   2.702   3.947 -0.2966 -0.9863  0.5944
19957TIP3   OH281361   3.571   6.686   0.400  0.1223  0.0330  0.1237
19957TIP3    H181362   3.497   6.746   0.403 -0.8577 -0.9211 -2.1543
19957TIP3    H281363   3.535   6.605   0.364  1.4464 -1.8991  2.8024
19958TIP3   OH281364   6.777   0.517   1.384 -0.0427  0.0690  0.5534
19958TIP3    H181365   6.788   0.496   1.291 -2.6903 -2.2404  0.6356
19958TIP3    H281366   6.855   0.482   1.426  1.4250  1.5579 -0.7782
19959TIP3   OH281367   6.383   3.097   2.137 -0.4124  0.0128 -0.8782
19959TIP3    H181368   6.412   3.183   2.108 -0.4225 -0.0550 -1.0861
19959TIP3    H281369   6.455   3.064   2.190 -0.0293 -0.2335 -1.5416
19960TIP3   OH281370   2.702   0.801   5.371  0.0425 -0.4162  0.3313
19960TIP3    H181371   2.668   0.835   5.453  2.7260  1.6732  0.7349
19960TIP3    H281372   2.791   0.773   5.392 -0.2553 -2.8527 -1.2404
19961TIP3   OH281373   6.265   0.461   4.382  0.3704  0.0634 -0.0464
19961TIP3    H181374   6.184   0.410   4.387 -0.0739  0.7485 -0.1986
19961TIP3    H281375   6.278   0.477   4.289  0.1006  0.8806  0.0554
19962TIP3   OH281376   5.386   4.031   4.354  0.1345 -0.5918  0.3097
19962TIP3    H181377   5.371   4.122   4.378  1.7337 -0.5889  1.4971
19962TIP3    H281378   5.369   4.028   4.260 -0.2111  0.8749  0.3022
19963TIP3   OH281379   0.741   1.403   5.635  0.2046 -0.2509 -0.8871
19963TIP3    H181380   0.749   1.498   5.636 -1.2123 -0.1051  0.7342
19963TIP3    H281381   0.722   1.381   5.544  0.9511  0.9610 -1.3518
19964TIP3   OH281382   0.569   0.961  12.865 -0.4588 -0.4156 -0.0553
19964TIP3    H181383   0.533   1.045  12.891 -0.4970 -0.4427 -0.0209
19964TIP3    H281384   0.526   0.941  12.782 -0.1906 -0.2353 -0.2405
19965TIP3   OH281385   4.726   3.263  12.146 -0.2727  0.0461  0.0822
19965TIP3    H181386   4.749   3.295  12.059  0.3701  1.1168  0.6203
19965TIP3    H281387   4.640   3.302  12.164 -0.8719 -0.9765 -0.4462
19966TIP3   OH281388   4.645   1.710   3.972  0.3549 -0.0887 -0.1138
19966TIP3    H181389   4.561   1.686   3.932 -0.2867  1.7925  0.0125
19966TIP3    H281390   4.630   1.797   4.010  1.8746 -0.4291  1.4143
19967TIP3   OH281391   3.784   1.961   5.293  0.1058 -0.1826 -0.2275
19967TIP3    H181392   3.843   1.908   5.240  0.1078  1.0241 -1.4908
19967TIP3    H281393   3.733   2.011   5.230  0.1765  1.3874  0.8801
19968TIP3   OH281394   0.681   4.441  12.454 -0.0871  0.0853 -0.2995
19968TIP3    H181395   0.735   4.390  12.394 -0.6121  0.2001 -0.8804
19968TIP3    H281396   0.595   4.445  12.412 -0.2056  0.9710 -0.0010
19969TIP3   OH281397   2.210   6.072  12.033 -0.0216  0.1995 -0.2061
19969TIP3    H181398   2.239   5.983  12.052 -0.1713  0.5535  1.9105
19969TIP3    H281399   2.260   6.097  11.955  1.0012 -1.2619 -0.0678
19970TIP3   OH281400   5.138   1.581   2.142 -0.0051  0.0387 -0.2532
19970TIP3    H181401   5.196   1.596   2.217 -0.9981  1.6155  0.2472
19970TIP3    H281402   5.087   1.504   2.166 -0.3133  0.5323  0.7211
19971TIP3   OH281403   5.144   5.722   4.726 -0.0732  0.0193  0.3003
19971TIP3    H181404   5.146   5.783   4.801  0.7335 -1.2991  1.3961
19971TIP3    H281405   5.052   5.696   4.720 -1.2017  3.7650 -2.3265
19972TIP3   OH281406   2.133   4.605  12.532  0.3781  0.3846  0.6325
19972TIP3    H181407   2.119   4.604  12.437 -0.9478  1.8806  0.7697
19972TIP3    H281408   2.060   4.657  12.567  0.4393 -0.7034  2.5484
19973TIP3   OH281409   4.339   2.553  16.183  0.2527 -0.5508  0.0974
19973TIP3    H181410   4.283   2.631  16.190  1.3864  0.3201 -0.3549
19973TIP3    H281411   4.427   2.585  16.200  1.2827 -1.0057 -3.5850
19974TIP3   OH281412   2.970   4.942  14.857  0.4707 -0.3386  0.1815
19974TIP3    H181413   2.967   4.884  14.934  0.5957  0.6888  0.9839
19974TIP3    H281414   3.062   4.943  14.832  0.6389  0.2822  0.7871
19975TIP3   OH281415   1.006   5.168   5.494  0.0048 -0.4967 -0.1234
19975TIP3    H181416   1.087   5.198   5.453  0.6832  0.5897  1.8429
19975TIP3    H281417   0.973   5.245   5.540 -1.7617 -1.1274 -0.2803
19976TIP3   OH281418   2.184   4.862  15.917  0.0738  0.4150  0.4219
19976TIP3    H181419   2.271   4.874  15.956  0.0595  0.4319  0.4479
19976TIP3    H281420   2.153   4.780  15.955 -1.0393  1.6977  2.4629
19977TIP3   OH281421   2.328   3.404  14.645 -0.6108 -0.7988  0.5986
19977TIP3    H181422   2.365   3.492  14.640 -1.8357 -0.0931  2.7044
19977TIP3    H281423   2.363   3.359  14.568  0.1031  1.4909 -0.5150
19978TIP3   OH281424   0.534   1.207  15.962  0.2258 -0.3430  0.5970
19978TIP3    H181425   0.440   1.211  15.945  0.4324  1.4493 -0.3683
19978TIP3    H281426   0.558   1.297  15.985  1.9682 -0.4069 -0.7820
19979TIP3   OH281427   4.721   5.748   6.072 -0.1200  0.2421 -0.4403
19979TIP3    H181428   4.720   5.679   6.139  0.9412  2.2263  1.7436
19979TIP3    H281429   4.685   5.824   6.116  1.3610  1.8610 -1.8943
19980TIP3   OH281430   2.220   3.844   0.978 -0.1251  0.4054  0.4956
19980TIP3    H181431   2.125   3.837   0.976  0.0059 -2.0070  0.7561
19980TIP3    H281432   2.249   3.802   0.898  0.7486  0.2530  0.8813
19981TIP3   OH281433   0.609   6.576   0.736 -0.5812  0.3286  0.5408
19981TIP3    H181434   0.552   6.646   0.767 -0.2515  0.9702 -0.2666
19981TIP3    H281435   0.632   6.601   0.646  0.9772  0.1015  0.8494
19982TIP3   OH281436   6.819   5.607  11.134 -0.6601  0.1147 -0.4329
19982TIP3    H181437   6.892   5.653  11.176 -1.8202  2.1656 -0.5447
19982TIP3    H281438   6.791   5.666  11.064 -0.9737 -1.6820 -1.9137
19983TIP3   OH281439   2.546   4.771  11.322 -0.5665 -0.5854  0.4568
19983TIP3    H181440   2.533   4.739  11.411  0.4160 -1.2326  0.3762
19983TIP3    H281441   2.633   4.739  11.297 -0.9470 -0.6632 -0.8407
19984TIP3   OH281442   5.631   2.288   1.368  0.3240  0.0900  0.2570
19984TIP3    H181443   5.695   2.251   1.307 -0.8095  2.0662 -2.3493
19984TIP3    H281444   5.682   2.348   1.423  1.0327  0.0655 -0.3610
19985TIP3   OH281445   5.431   0.002  14.502 -0.2923  0.1798 -0.1287
19985TIP3    H181446   5.484   0.021  14.425 -2.3761  0.6965 -1.5386
19985TIP3    H281447   5.424  -0.094  14.503  0.0861  0.1476 -0.3353
19986TIP3   OH281448   3.322   1.126  16.089  0.2647 -0.0410  0.4751
19986TIP3    H181449   3.359   1.187  16.153  0.1355  0.0668  0.4476
19986TIP3    H281450   3.271   1.064  16.141  1.6746 -1.0838  0.6661
19987TIP3   OH281451   4.088   0.508   2.788  0.1912  0.3072 -0.0187
19987TIP3    H181452   4.083   0.417   2.816  1.0736 -0.0952 -1.0895
19987TIP3    H281453   4.138   0.505   2.707 -0.5550  1.6453 -0.5594
19988TIP3   OH281454   0.953   4.308   4.191  0.0396  0.4411  0.0429
19988TIP3    H181455   0.972   4.340   4.279  0.8868  1.7408 -0.5877
19988TIP3    H281456   1.031   4.329   4.140  0.0305 -1.3084 -0.7818
19989TIP3   OH281457   4.330   0.179   3.675 -0.5445  0.2802 -0.0489
19989TIP3    H181458   4.333   0.167   3.580  0.7931 -1.9805  0.2094
19989TIP3    H281459   4.238   0.201   3.693 -1.0775 -0.3467 -1.7617
19990TIP3   OH281460   4.374   3.349   0.057  0.1709  0.5142 -0.7128
19990TIP3    H181461   4.390   3.261   0.023  0.6955  0.1865  0.3485
19990TIP3    H281462   4.287   3.343   0.097  0.6929  0.1194  0.4202
19991TIP3   OH281463   1.914   4.884   4.412  0.2794 -0.0403  0.7309
19991TIP3    H181464   1.852   4.936   4.464  0.3572 -0.5568  1.3569
19991TIP3    H281465   1.887   4.793   4.426  2.3439 -0.4676  2.6734
19992TIP3   OH281466   1.149   4.071  15.238  0.1046 -0.4236  0.1301
19992TIP3    H181467   1.082   4.016  15.280  1.2722 -0.1976  2.4678
19992TIP3    H281468   1.131   4.159  15.272  0.7309 -0.1087 -0.3486
19993TIP3   OH281469   3.500   0.008   6.305 -0.8740  0.2412  0.4466
19993TIP3    H181470   3.515   0.057   6.386 -0.2024  0.1705  0.3704
19993TIP3    H281471   3.550  -0.073   6.316 -0.0872  0.5938 -0.3752
19994TIP3   OH281472   3.900   3.765  14.139 -0.2689  0.5742 -0.0963
19994TIP3    H181473   3.986   3.725  14.151 -0.1705  0.9895  0.6589
19994TIP3    H281474   3.915   3.834  14.074 -0.0045  0.6984  0.0933
19995TIP3   OH281475   1.086   4.007  11.370  0.3743 -0.1019 -0.2315
19995TIP3    H181476   1.055   4.070  11.305 -0.3859 -0.9507 -0.7236
19995TIP3    H281477   1.154   4.053  11.418 -0.5961  1.3016 -0.1567
19996TIP3   OH281478   1.535   6.767  15.802  0.3703  0.4737  0.1674
19996TIP3    H181479   1.538   6.858  15.834  0.6649  1.1220 -1.5854
19996TIP3    H281480   1.609   6.761  15.741 -0.8854 -0.2991 -1.3384
19997TIP3   OH281481   6.118   1.191  12.117  0.1056 -0.1717  0.5515
19997TIP3    H181482   6.124   1.285  12.102  1.8611 -0.1807  0.9710
19997TIP3    H281483   6.128   1.152  12.031 -0.6619  0.0241  0.3717
19998TIP3   OH281484   4.000   4.209  15.993 -0.0640 -0.0416  0.7645
19998TIP3    H181485   4.015   4.178  16.082  3.2127 -3.2733 -0.6661
19998TIP3    H281486   4.079   4.259  15.971 -1.3174  1.6919 -0.0613
19999TIP3   OH281487   6.208   4.584   4.050 -0.3073  0.3405  0.6289
19999TIP3    H181488   6.250   4.508   4.009  0.8040  0.3014  1.7773
19999TIP3    H281489   6.159   4.549   4.124 -1.7845  0.4881 -0.2406
20000TIP3   OH281490   4.447   1.560  12.112  0.6416 -0.1256 -0.4830
20000TIP3    H181491   4.437   1.492  12.045  0.7181 -0.7827  0.1682
20000TIP3    H281492   4.537   1.592  12.100  0.9148 -0.7795 -0.1939
20001TIP3   OH281493   4.300   5.343   0.839  0.8733  0.0864 -0.3554
20001TIP3    H181494   4.250   5.272   0.799  1.3446  0.3356 -1.4114
20001TIP3    H281495   4.233   5.405   0.869  0.5029 -0.3073 -0.3606
20002TIP3   OH281496   1.921   1.481  11.624 -0.4264 -0.4907 -0.3676
20002TIP3    H181497   1.852   1.424  11.590 -1.4281 -0.7667  1.8820
20002TIP3    H281498   2.001   1.428  11.620 -0.3068 -0.2071 -2.9025
20003TIP3   OH281499   2.051   5.787   0.620 -0.0735 -0.1676 -0.3571
20003TIP3    H181500   2.064   5.863   0.563 -0.6436 -0.4159 -0.8289
20003TIP3    H281501   1.959   5.763   0.608 -0.5597  0.5310  1.6160
20004TIP3   OH281502   4.930   1.529   6.813  0.2686 -0.1792  0.0413
20004TIP3    H181503   5.002   1.513   6.873  1.0131 -0.7888 -0.9839
20004TIP3    H281504   4.899   1.442   6.789 -0.6582  0.0718  0.2696
20005TIP3   OH281505   2.654   0.500  13.640  0.0633 -0.0295 -0.2311
20005TIP3    H181506   2.662   0.461  13.726 -0.2992 -0.2709 -0.3059
20005TIP3    H281507   2.582   0.564  13.649 -0.3984 -0.4979 -0.5088
20006TIP3   OH281508   0.660   6.380  14.020 -0.8941 -0.4406  0.1223
20006TIP3    H181509   0.751   6.364  13.997 -0.7343  0.9126 -0.2557
20006TIP3    H281510   0.656   6.369  14.115 -0.0359  0.7501  0.3185
20007TIP3   OH281511   0.765   0.983   4.317  0.3381  0.0829 -0.5307
20007TIP3    H181512   0.804   1.041   4.251 -2.6686  0.9359 -1.7136
20007TIP3    H281513   0.745   1.041   4.391  1.0444 -0.2975 -0.0296
20008TIP3   OH281514   5.243   6.295   5.448 -0.1794  0.1680 -0.0358
20008TIP3    H181515   5.338   6.304   5.448 -0.2045  0.5361 -1.2446
20008TIP3    H281516   5.213   6.358   5.514  0.5254 -1.6679  2.1513
20009TIP3   OH281517   2.936   6.576   5.799 -0.6299  0.3495  0.0243
20009TIP3    H181518   2.883   6.656   5.804  0.2499  0.9370  0.0786
20009TIP3    H281519   3.025   6.605   5.816 -0.2116 -0.5578 -0.5743
20010TIP3   OH281520   2.466   6.604  16.567  0.4990  0.3373 -0.4448
20010TIP3    H181521   2.426   6.691  16.565  2.1198  1.1233 -0.3491
20010TIP3    H281522   2.536   6.608  16.501  1.3369 -0.5102  0.3644
20011TIP3   OH281523   2.175   4.093   2.086 -0.2032 -0.1721 -0.3814
20011TIP3    H181524   2.261   4.092   2.044 -0.1938 -1.1402 -0.3599
20011TIP3    H281525   2.153   4.001   2.097 -0.6794  0.0674  0.7920
20012TIP3   OH281526   1.631   2.727   4.306  0.2823  0.5129 -0.3999
20012TIP3    H181527   1.699   2.780   4.263  0.0304  0.3521 -1.0006
20012TIP3    H281528   1.589   2.788   4.366 -0.3443  1.1565 -1.4547
20013TIP3   OH281529   1.958   3.768   0.908 -0.1693  0.0490 -0.8745
20013TIP3    H181530   1.876   3.816   0.916  0.7559  1.8237 -1.4768
20013TIP3    H281531   1.947   3.691   0.963 -1.6407  1.0815  0.3271
20014TIP3   OH281532   1.932   2.532   1.199  0.2292  0.2860 -0.2176
20014TIP3    H181533   2.002   2.467   1.211 -1.2038 -1.5024 -1.0511
20014TIP3    H281534   1.962   2.608   1.249  2.0403 -0.9545  0.7303
20015TIP3   OH281535   4.897   5.816  12.356  0.1869  0.3206  0.2033
20015TIP3    H181536   4.814   5.821  12.403 -0.7444  0.2254 -1.3661
20015TIP3    H281537   4.925   5.726  12.367 -1.5323 -0.5309 -1.8226
20016TIP3   OH281538   2.102   0.356   2.835 -0.6299 -0.1470 -0.2326
20016TIP3    H181539   2.084   0.428   2.775  3.7346  0.8872 -0.6376
20016TIP3    H281540   2.095   0.395   2.922  0.1700  0.3552 -0.3880
20017TIP3   OH281541   6.012   5.551   2.730  0.4090  0.0693 -0.7498
20017TIP3    H181542   5.955   5.475   2.716 -0.3862  0.8092 -1.7278
20017TIP3    H281543   6.095   5.526   2.690 -0.0772 -0.0169 -1.7427
20018TIP3   OH281544   2.184   5.834   2.344  0.1118  0.0339 -0.3048
20018TIP3    H181545   2.267   5.872   2.316 -0.3881  2.0819  0.7948
20018TIP3    H281546   2.124   5.850   2.272 -0.0655  1.3439  0.1012
20019TIP3   OH281547   5.969   4.688   6.563  0.8801 -0.1290  0.3639
20019TIP3    H181548   5.877   4.681   6.537  0.4125  1.0741  1.6034
20019TIP3    H281549   5.969   4.676   6.658  1.8885  0.8002  0.5064
20020TIP3   OH281550   5.542   0.180   4.446 -0.0512  0.0093  0.0590
20020TIP3    H181551   5.550   0.259   4.393 -1.4815 -0.9478 -1.7100
20020TIP3    H281552   5.619   0.128   4.421  1.5552  1.2398  2.1153
20021TIP3   OH281553   5.450   2.253  12.757  0.2916  0.0142 -0.2056
20021TIP3    H181554   5.361   2.278  12.783  0.3933  0.6750 -0.4644
20021TIP3    H281555   5.460   2.163  12.789  0.0093  0.3988  1.0280
20022TIP3   OH281556   6.500   4.197  15.996 -0.1304  0.1341  0.0844
20022TIP3    H181557   6.420   4.227  16.039 -0.3156 -0.9456  0.5098
20022TIP3    H281558   6.561   4.270  16.007 -0.7802  0.6303  0.4968
20023TIP3   OH281559   6.207   5.350  12.006 -0.6056  0.3983  0.4766
20023TIP3    H181560   6.223   5.394  11.922 -0.6161 -0.1788  0.1618
20023TIP3    H281561   6.156   5.412  12.057 -1.6215  0.3080 -0.3879
20024TIP3   OH281562   4.862   6.436   0.024 -0.1986  0.1765 -0.3241
20024TIP3    H181563   4.906   6.517  -0.000 -0.8417  0.8040  0.5430
20024TIP3    H281564   4.930   6.369   0.019  0.4982  0.8798 -0.3995
20025TIP3   OH281565   2.792   4.990   3.861 -0.0133 -0.6260  0.7067
20025TIP3    H181566   2.784   4.951   3.774 -1.0815 -0.0954  0.5530
20025TIP3    H281567   2.728   5.062   3.861 -0.9554 -1.4076  2.3480
20026TIP3   OH281568   2.393   6.581   0.170 -0.4214  0.1766 -0.5228
20026TIP3    H181569   2.476   6.615   0.203 -1.4873  1.5966  0.8581
20026TIP3    H281570   2.337   6.576   0.247 -2.3712  1.5963 -1.7371
20027TIP3   OH281571   6.399   0.420  11.689 -0.2756  0.0155  0.4101
20027TIP3    H181572   6.319   0.367  11.693  0.0462 -0.4359  2.4885
20027TIP3    H281573   6.370   0.509  11.710 -0.5160  0.3108 -1.0556
20028TIP3   OH281574   6.815   1.537  16.539 -0.1831  0.1863  0.7796
20028TIP3    H181575   6.813   1.511  16.447 -0.4856 -0.5155  0.9762
20028TIP3    H281576   6.896   1.500  16.573  0.9388  2.1029  0.3463
20029TIP3   OH281577   0.842   2.663  14.224  0.3640  0.2417  0.3444
20029TIP3    H181578   0.832   2.692  14.314  0.8257  1.2966  0.0699
20029TIP3    H281579   0.772   2.707  14.176  0.1565 -0.2672  0.1651
20030TIP3   OH281580   0.883   0.918   0.428  0.5369  0.3839  0.2938
20030TIP3    H181581   0.930   0.839   0.400  0.7917  0.1388  1.3623
20030TIP3    H281582   0.944   0.989   0.413  0.4888  0.3246 -0.2122
20031TIP3   OH281583   0.183   5.879   4.972 -0.7418  0.1301 -0.7761
20031TIP3    H181584   0.115   5.826   5.013 -0.6874  0.7318  0.1197
20031TIP3    H281585   0.136   5.953   4.934 -0.6987  0.0039 -1.0779
20032TIP3   OH281586   4.788   0.692   5.499  0.4517 -0.2505  0.5119
20032TIP3    H181587   4.766   0.714   5.589  1.1905  0.6397  0.4904
20032TIP3    H281588   4.826   0.772   5.463  1.6175 -1.0471 -0.1094
20033TIP3   OH281589   2.647   5.618  12.479  0.1759 -0.0342  0.2347
20033TIP3    H181590   2.663   5.707  12.447 -0.2342  0.6717  1.8563
20033TIP3    H281591   2.727   5.593  12.524  0.3675 -0.5897 -0.3974
20034TIP3   OH281592   4.143   2.705  14.330 -0.7342  0.0045 -0.0940
20034TIP3    H181593   4.071   2.758  14.366 -0.2736  0.5173  0.0867
20034TIP3    H281594   4.161   2.744  14.245 -0.6189 -0.0751 -0.1064
20035TIP3   OH281595   1.554   4.909   0.804  0.4366  0.4654  0.0100
20035TIP3    H181596   1.557   4.866   0.889  0.4660  1.1794  0.3832
20035TIP3    H281597   1.464   4.941   0.797  0.1624 -0.4007 -0.6536
20036TIP3   OH281598   0.640   3.410  12.313 -0.0098 -0.2822  0.4128
20036TIP3    H181599   0.567   3.457  12.273 -0.2768 -1.7663 -0.9229
20036TIP3    H281600   0.660   3.340  12.252  0.5831 -1.7233  2.1730
20037TIP3   OH281601   4.551   0.583   0.045 -0.2137  0.6071 -0.6407
20037TIP3    H181602   4.636   0.539   0.040 -0.4277  0.0010  0.8184
20037TIP3    H281603   4.562   0.660  -0.011  1.2225  0.4292 -0.6542
20038TIP3   OH281604   3.962   0.073   5.505  0.0015 -0.5797  0.0585
20038TIP3    H181605   4.015   0.100   5.580 -0.3259 -1.6391  0.7025
20038TIP3    H281606   3.897   0.014   5.543 -0.5249 -0.6808 -0.9843
20039TIP3   OH281607   4.689   4.680  15.947  0.2223  0.1465 -0.2760
20039TIP3    H181608   4.660   4.722  16.028  1.7239 -0.3806  0.5882
20039TIP3    H281609   4.630   4.605  15.936 -0.0307  0.2532  0.3074
20040TIP3   OH281610   2.708   5.468   5.283  0.5650 -0.4892  0.2536
20040TIP3    H181611   2.802   5.474   5.269  0.6418 -0.4704  0.7556
20040TIP3    H281612   2.689   5.535   5.348  0.1956 -0.4604  0.1189
20041TIP3   OH281613   1.341   5.151  16.562  0.4866  0.2955  0.1623
20041TIP3    H181614   1.384   5.135  16.478  1.2171  2.9321 -0.0678
20041TIP3    H281615   1.409   5.133  16.628  0.0042 -1.4786  0.2171
20042TIP3   OH281616   5.805   6.756   4.907 -0.2756  0.7784  0.1540
20042TIP3    H181617   5.797   6.851   4.900 -0.7116  0.6849 -0.7922
20042TIP3    H281618   5.894   6.737   4.877 -0.4041  0.8465 -0.2896
20043TIP3   OH281619   2.472   6.490  16.838 -0.1436 -0.0872 -0.5581
20043TIP3    H181620   2.550   6.541  16.860  0.2954 -0.6816 -0.6911
20043TIP3    H281621   2.459   6.503  16.744 -0.1446 -0.0692 -0.5553
20044TIP3   OH281622   6.808   6.237  13.873  0.3450 -0.3719 -0.2830
20044TIP3    H181623   6.901   6.219  13.856 -0.2708 -2.6489 -1.6423
20044TIP3    H281624   6.770   6.251  13.786 -0.5503  0.9308  0.2871
20045TIP3   OH281625   2.778   0.733  15.024 -0.8709  0.3938  0.1797
20045TIP3    H181626   2.745   0.657  14.977  1.7316 -0.2165 -0.8707
20045TIP3    H281627   2.835   0.696  15.092 -0.4210  1.3933  0.3614
20046TIP3   OH281628   2.608   5.827  15.689  0.5732  0.6364 -0.3229
20046TIP3    H181629   2.692   5.782  15.701  0.2964  0.4019  0.7623
20046TIP3    H281630   2.598   5.881  15.767 -0.7560 -0.1022  0.0332
20047TIP3   OH281631   4.416   5.119  14.479  0.6038 -0.0012 -0.2926
20047TIP3    H181632   4.420   5.092  14.387  1.3872  1.9111 -0.8878
20047TIP3    H281633   4.325   5.144  14.493  0.6480  0.4911 -0.8298
20048TIP3   OH281634   0.232   0.391   2.309 -0.3270  0.1070 -0.4695
20048TIP3    H181635   0.215   0.399   2.403 -1.2216  0.9728 -0.6886
20048TIP3    H281636   0.166   0.329   2.278  1.3967 -1.9931 -0.1773
20049TIP3   OH281637   2.278   5.275  12.307 -0.4753 -0.1084 -0.0553
20049TIP3    H181638   2.186   5.261  12.286 -1.2660 -0.6994  3.2421
20049TIP3    H281639   2.282   5.362  12.346  0.4180 -0.0400 -0.2549
20050TIP3   OH281640   2.967   0.770   5.297 -0.2480  0.2675  0.0915
20050TIP3    H181641   2.954   0.821   5.217 -0.1960 -0.3309 -0.3067
20050TIP3    H281642   3.019   0.827   5.354  1.4623 -0.0430 -1.0804
20051TIP3   OH281643   0.145   6.474  12.925  0.2083 -0.4966  0.7085
20051TIP3    H181644   0.067   6.526  12.905  0.3405 -0.7372 -0.5397
20051TIP3    H281645   0.174   6.504  13.011 -0.1403  0.9699  0.3301
20052TIP3   OH281646   4.993   3.875   0.005 -0.1084  1.0380 -0.3831
20052TIP3    H181647   4.968   3.812   0.073 -0.8373  1.3855 -0.3132
20052TIP3    H281648   4.909   3.913  -0.023  0.3308  2.0658 -0.3340
20053TIP3   OH281649   6.807   5.021   6.230  0.1250 -0.3912  0.0530
20053TIP3    H181650   6.819   5.070   6.312 -1.5355 -0.5544  0.4254
20053TIP3    H281651   6.776   5.085   6.167  1.5303 -0.2400 -0.5188
20054TIP3   OH281652   4.856   3.880  13.711 -0.1134  0.0267 -0.2306
20054TIP3    H181653   4.893   3.828  13.641 -1.4580 -1.7023  0.2692
20054TIP3    H281654   4.766   3.848  13.720 -0.3212  0.9580  1.5456
20055TIP3   OH281655   1.887   5.647   2.789  0.1774 -0.7131 -0.7408
20055TIP3    H181656   1.834   5.645   2.869 -0.7342  0.3749 -1.2879
20055TIP3    H281657   1.838   5.593   2.727  0.4872 -0.9255 -0.8017
20056TIP3   OH281658   2.692   3.616  11.521  1.1415  0.3387 -0.7710
20056TIP3    H181659   2.639   3.540  11.498  0.3838  0.2889  0.9777
20056TIP3    H281660   2.676   3.679  11.451 -0.1946 -0.1827 -0.9513
20057TIP3   OH281661   3.095   5.413   2.977 -0.0213 -0.7418  0.1743
20057TIP3    H181662   3.138   5.350   3.037  1.4808  0.7504  0.7466
20057TIP3    H281663   3.091   5.494   3.028 -1.8787 -0.3349 -0.5761
20058TIP3   OH281664   4.887   5.893  11.608  0.0932  0.7931  0.2749
20058TIP3    H181665   4.889   5.805  11.644  0.4692 -0.2399 -2.0724
20058TIP3    H281666   4.979   5.919  11.603 -0.0517  1.6558  1.6290
20059TIP3   OH281667   5.944   2.694  14.767 -0.3727 -0.0540  0.2522
20059TIP3    H181668   5.851   2.712  14.778 -0.1742  0.6378  0.8779
20059TIP3    H281669   5.982   2.707  14.854  0.4096  0.3409 -0.1336
20060TIP3   OH281670   5.807   4.968   0.382 -0.7388 -0.1034 -0.4447
20060TIP3    H181671   5.739   4.903   0.364 -2.1844  0.8982  1.1860
20060TIP3    H281672   5.833   4.951   0.472  0.5552  0.1178 -0.7637
20061TIP3   OH281673   2.463   3.392   2.364  0.4667  0.6384 -0.9880
20061TIP3    H181674   2.455   3.392   2.268 -2.3409 -1.1099 -0.8670
20061TIP3    H281675   2.530   3.326   2.382 -0.5124 -0.6029 -1.7321
20062TIP3   OH281676   2.563   4.151   3.558  0.3013 -0.4486  0.0577
20062TIP3    H181677   2.553   4.242   3.585 -1.5620 -0.4397 -0.4964
20062TIP3    H281678   2.649   4.125   3.589  0.3836  1.1531  1.2476
20063TIP3   OH281679   4.469   1.498  15.906 -0.4637  0.0410  0.1047
20063TIP3    H181680   4.564   1.508  15.913 -0.6368  1.0725  1.2239
20063TIP3    H281681   4.448   1.529  15.818  0.3974 -1.7175 -0.7782
20064TIP3   OH281682   5.673   6.092   5.925  0.4666 -0.0213  0.1002
20064TIP3    H181683   5.713   6.065   6.008 -0.2330  3.3080  1.6913
20064TIP3    H281684   5.711   6.177   5.906  0.3442 -0.5302 -2.9201
20065TIP3   OH281685   2.351   6.753  15.414 -0.0480  0.3230  0.3541
20065TIP3    H181686   2.263   6.720  15.393  0.4862 -0.7771 -0.1919
20065TIP3    H281687   2.391   6.768  15.328  0.3480  0.7114  0.6062
20066TIP3   OH281688   6.376   6.170  16.756 -0.1683 -0.3771  0.2763
20066TIP3    H181689   6.350   6.212  16.838  0.4558 -0.2374  0.4116
20066TIP3    H281690   6.296   6.165  16.704 -0.1127  1.7857 -0.1013
20067TIP3   OH281691   1.294   5.852   3.912  0.2254  0.1227 -0.5975
20067TIP3    H181692   1.351   5.775   3.906  1.8448  1.2131  0.1559
20067TIP3    H281693   1.265   5.867   3.823  1.1724 -0.4264 -1.0134
20068TIP3   OH281694   0.621   1.611   0.679 -0.7087 -0.0185 -0.6924
20068TIP3    H181695   0.565   1.631   0.604 -1.7063  0.2126  0.0894
20068TIP3    H281696   0.576   1.539   0.723  0.8573 -1.4819 -1.3541
20069TIP3   OH281697   2.772   1.265   3.440 -0.1023  0.0291  0.0437
20069TIP3    H181698   2.740   1.175   3.451  0.8891 -0.3632 -0.1581
20069TIP3    H281699   2.825   1.262   3.360 -0.6979  0.9845 -0.4082
20070TIP3   OH281700   2.885   2.286   5.114  0.0465  0.1838  0.4161
20070TIP3    H181701   2.808   2.271   5.060 -1.1291  2.3094  1.4123
20070TIP3    H281702   2.945   2.335   5.057 -0.3935  0.7378  0.4206
20071TIP3   OH281703   5.170   0.254   0.544 -0.6975  0.0938  0.3617
20071TIP3    H181704   5.255   0.296   0.554  0.1505 -1.4768  0.0805
20071TIP3    H281705   5.107   0.324   0.558  0.6346  1.3202  0.4696
20072TIP3   OH281706   1.941   3.910  11.604 -0.3581  0.3396 -0.8471
20072TIP3    H181707   2.020   3.962  11.615 -0.8647  0.7587  1.1723
20072TIP3    H281708   1.961   3.825  11.645 -1.0712  0.6121  0.1198
20073TIP3   OH281709   1.091   5.012  12.774  0.2838  0.0516  0.0969
20073TIP3    H181710   1.171   4.979  12.734 -0.1996 -0.2171 -0.6616
20073TIP3    H281711   1.021   4.987  12.714 -0.1684  1.9888 -0.2742
20074TIP3   OH281712   2.833   2.840  12.305  0.5652  0.6502  0.4671
20074TIP3    H181713   2.849   2.820  12.213 -1.4114  2.2472 -0.2961
20074TIP3    H281714   2.892   2.913  12.324  1.6775 -0.2905  0.8171
20075TIP3   OH281715   0.503   3.725  15.934 -0.5433  0.1766 -0.4213
20075TIP3    H181716   0.575   3.757  15.879 -1.2604 -0.0687 -1.5348
20075TIP3    H281717   0.430   3.713  15.873 -1.6631  0.8246  0.7589
20076TIP3   OH281718   5.124   2.066  14.652  0.2318  0.6440  0.4059
20076TIP3    H181719   5.063   1.994  14.670  0.3943  0.1526 -0.9157
20076TIP3    H281720   5.175   2.036  14.577  2.0658  1.0649  1.4108
20077TIP3   OH281721   5.404   0.611   3.565 -0.5093 -0.4150  0.0015
20077TIP3    H181722   5.411   0.516   3.561 -0.6466 -0.5534  2.0424
20077TIP3    H281723   5.468   0.637   3.631 -0.2354  0.9623 -0.7555
20078TIP3   OH281724   0.683   4.041  12.884  0.0675 -0.2434  0.5782
20078TIP3    H181725   0.714   4.016  12.797  0.4806 -0.8538  0.8932
20078TIP3    H281726   0.741   4.112  12.912 -0.2922  0.1987  0.2110
20079TIP3   OH281727   1.275   1.465  14.448 -0.6222  0.1243 -0.3864
20079TIP3    H181728   1.355   1.506  14.481  1.0404 -1.3374 -2.3137
20079TIP3    H281729   1.259   1.509  14.364 -1.8375  0.3595 -0.0433
20080TIP3   OH281730   1.569   1.691   1.770  0.1697  0.5395 -0.5779
20080TIP3    H181731   1.649   1.696   1.822  0.0539  2.7372 -0.5203
20080TIP3    H281732   1.537   1.781   1.767 -2.5486 -0.3309 -0.2389
20081TIP3   OH281733   3.757   0.517  15.459 -0.0698 -0.2020  0.0110
20081TIP3    H181734   3.794   0.601  15.433 -0.0803  0.2973  1.5082
20081TIP3    H281735   3.740   0.527  15.553 -0.1780 -1.8391  0.1839
20082TIP3   OH281736   0.978   6.744  16.629  0.3840  0.2881 -0.0679
20082TIP3    H181737   1.058   6.699  16.654  0.8731  0.8504 -0.6111
20082TIP3    H281738   1.006   6.815  16.572 -0.5664  0.0295 -0.8811
20083TIP3   OH281739   1.985   0.702  12.923  0.8748  0.3198 -0.1243
20083TIP3    H181740   1.918   0.770  12.917 -1.2253 -1.7071 -1.6577
20083TIP3    H281741   2.024   0.698  12.836  0.8436 -0.5089 -0.1141
20084TIP3   OH281742   0.220   2.443  12.051 -0.0852 -0.1229  0.7215
20084TIP3    H181743   0.203   2.384  12.124  0.7224 -1.4436 -0.1165
20084TIP3    H281744   0.165   2.520  12.068 -1.0139 -1.0327  1.9350
20085TIP3   OH281745   1.416   0.321  17.037  0.1120 -0.4286  0.2578
20085TIP3    H181746   1.451   0.232  17.029 -0.8103 -0.8449  0.6892
20085TIP3    H281747   1.468   0.361  17.107 -0.8424 -1.3407  1.5290
20086TIP3   OH281748   5.758   5.647  12.073 -0.8199  0.6627  0.0436
20086TIP3    H181749   5.805   5.703  12.135  0.0771  0.7771 -0.7184
20086TIP3    H281750   5.681   5.617  12.122 -0.4838  1.2781  0.9881
20087TIP3   OH281751   5.132   1.712   5.433  0.4795 -1.0021  0.4927
20087TIP3    H181752   5.085   1.773   5.491 -0.8492 -0.1264 -1.4066
20087TIP3    H281753   5.208   1.684   5.485  1.2220  2.3489  1.4564
20088TIP3   OH281754   6.086   0.989  11.918  0.5218 -0.1337  0.6016
20088TIP3    H181755   6.129   1.026  11.841  0.4110  1.3334  1.2069
20088TIP3    H281756   6.156   0.945  11.966  0.6010 -1.0099 -0.2981
20089TIP3   OH281757   5.179   4.414   6.378  0.3063 -0.5040  0.4098
20089TIP3    H181758   5.174   4.495   6.429 -0.3915 -0.4105  0.2013
20089TIP3    H281759   5.265   4.378   6.398  0.7064  0.3981  0.3422
20090TIP3   OH281760   2.221   1.047  15.347  0.2918 -0.5370  0.6467
20090TIP3    H181761   2.161   0.985  15.304 -0.8320  0.3249  0.9371
20090TIP3    H281762   2.248   1.001  15.427  1.2100 -1.5311 -0.1958
20091TIP3   OH281763   2.387   4.750  11.876 -0.5097 -0.5052  0.5081
20091TIP3    H181764   2.464   4.721  11.924 -0.1476 -1.1094 -0.4194
20091TIP3    H281765   2.364   4.676  11.820 -1.5731 -0.2102  0.5323
20092TIP3   OH281766   5.783   1.737  12.554  0.1004 -0.1013  0.4042
20092TIP3    H181767   5.812   1.681  12.625  1.2636  1.3422  1.1233
20092TIP3    H281768   5.696   1.705  12.531  1.6747 -3.9412 -1.0808
20093TIP3   OH281769   2.249   0.049   6.039  0.1290  0.3393 -0.2890
20093TIP3    H181770   2.172  -0.000   6.067  1.5444 -0.4867  2.5437
20093TIP3    H281771   2.308  -0.017   6.003  0.0343  0.7842 -1.2915
20094TIP3   OH281772   1.813   4.660  12.337 -0.1919  0.3732 -0.4315
20094TIP3    H181773   1.865   4.705  12.403  2.0238 -0.7026 -1.3725
20094TIP3    H281774   1.794   4.574  12.375  2.2184 -0.7587 -1.6112
20095TIP3   OH281775   5.306   0.232   0.229  0.3837 -0.1285 -0.0849
20095TIP3    H181776   5.342   0.186   0.153  0.0535 -1.3095  0.4514
20095TIP3    H281777   5.305   0.166   0.299 -0.3750  0.6119  0.6295
20096TIP3   OH281778   0.734   0.183   1.886  0.0221  0.1567  0.1406
20096TIP3    H181779   0.687   0.266   1.891 -0.8803 -0.1056 -2.4222
20096TIP3    H281780   0.826   0.206   1.901 -0.0272  1.8901 -1.7384
20097TIP3   OH281781   2.494   3.637   5.718 -0.3619 -0.4126  0.0545
20097TIP3    H181782   2.437   3.697   5.767 -0.8915 -1.1461  0.3444
20097TIP3    H281783   2.433   3.580   5.670  0.0281 -2.6570  2.0613
20098TIP3   OH281784   1.334   1.187   2.262  0.4519  0.1794  0.4718
20098TIP3    H181785   1.380   1.122   2.209 -0.3406 -0.5989  0.7240
20098TIP3    H281786   1.404   1.236   2.306  1.1111  0.5155 -0.8961
20099TIP3   OH281787   6.282   1.270   6.402  0.4085 -0.4197 -0.1673
20099TIP3    H181788   6.281   1.360   6.433 -0.8640 -0.5429  0.2074
20099TIP3    H281789   6.223   1.269   6.327  0.3640 -0.9566 -0.1325
20100TIP3   OH281790   1.336   3.256  15.796 -0.2806 -0.1870 -0.3346
20100TIP3    H181791   1.278   3.180  15.796 -0.5736  0.0151 -1.5089
20100TIP3    H281792   1.391   3.244  15.874 -0.9752 -1.0847  0.0400
20101TIP3   OH281793   0.495   3.641   4.620 -0.0231  0.7609  0.0393
20101TIP3    H181794   0.532   3.640   4.532 -0.6886  1.7367 -0.2742
20101TIP3    H281795   0.507   3.732   4.650 -0.6567  0.6807  0.5716
20102TIP3   OH281796   3.952   2.316  14.886 -0.0231 -0.1693 -0.3502
20102TIP3    H181797   3.912   2.366  14.957 -1.2972 -0.4808 -0.8202
20102TIP3    H281798   3.961   2.380  14.814  0.1479 -0.1561 -0.3196
20103TIP3   OH281799   5.823   3.708   2.628  0.4111 -0.3401  0.4708
20103TIP3    H181800   5.821   3.803   2.616 -0.2535 -0.3625  0.3764
20103TIP3    H281801   5.904   3.681   2.586  0.6841  0.2036  0.6327
20104TIP3   OH281802   0.780   4.251   5.912 -0.2153 -0.2286  0.3054
20104TIP3    H181803   0.719   4.262   5.839 -1.1028  0.6857  1.1471
20104TIP3    H281804   0.768   4.330   5.965  1.9813  0.1729  0.3249
20105TIP3   OH281805   1.626   4.682  14.341 -0.3849 -0.3497 -0.2328
20105TIP3    H181806   1.660   4.699  14.429  2.0359 -0.5255 -1.0604
20105TIP3    H281807   1.665   4.598  14.316 -2.6040 -1.2947 -0.7646
20106TIP3   OH281808   5.876   2.951  12.384  0.2808  0.0090 -0.3211
20106TIP3    H181809   5.845   2.880  12.440  2.8624  0.0197  1.3131
20106TIP3    H281810   5.969   2.933  12.371  0.9769  2.8795 -0.1439
20107TIP3   OH281811   4.278   6.250   3.633  0.5829 -0.1515 -0.1802
20107TIP3    H181812   4.372   6.234   3.646  0.6020 -0.2256 -0.4190
20107TIP3    H281813   4.235   6.180   3.681  0.6536 -0.3211 -0.3667
20108TIP3   OH281814   0.820   4.184  14.737 -0.1240  0.0782 -0.2327
20108TIP3    H181815   0.855   4.164  14.651 -1.9548 -0.0638 -1.0018
20108TIP3    H281816   0.727   4.162  14.731  0.0262 -1.7534  2.3765
20109TIP3   OH281817   1.767   1.263  15.192 -0.2618 -0.2829  0.4449
20109TIP3    H181818   1.677   1.249  15.221 -0.7083  0.4917 -0.5334
20109TIP3    H281819   1.788   1.185  15.141 -1.0622  0.3771 -0.9355
20110TIP3   OH281820   0.333   4.159  13.427  0.3291 -0.0478 -0.1118
20110TIP3    H181821   0.357   4.236  13.479 -0.1960  0.5843 -0.7860
20110TIP3    H281822   0.339   4.086  13.488 -2.4096  0.9155  1.4799
20111TIP3   OH281823   4.216   3.143   3.218 -0.1674 -0.1408 -0.0173
20111TIP3    H181824   4.227   3.223   3.269 -0.7569 -0.9430  1.4591
20111TIP3    H281825   4.296   3.093   3.235 -0.7616 -0.8129  0.9368
20112TIP3   OH281826   1.145   3.120   3.371 -0.5518  0.4598 -0.9377
20112TIP3    H181827   1.080   3.126   3.441  0.2413  0.2350 -0.1541
20112TIP3    H281828   1.218   3.174   3.402  1.0648 -1.9706 -0.1256
20113TIP3   OH281829   1.049   1.431   5.974  0.8167 -0.4237 -0.3282
20113TIP3    H181830   0.958   1.460   5.978  0.7866 -0.4561 -0.7093
20113TIP3    H281831   1.047   1.342   6.010  0.8048 -0.1889  0.2540
20114TIP3   OH281832   6.430   1.442  15.229  0.3593 -0.3727  0.1025
20114TIP3    H181833   6.514   1.482  15.208  0.0475  0.9991  1.3075
20114TIP3    H281834   6.381   1.511  15.274 -1.6035 -0.9643 -1.0022
20115TIP3   OH281835   2.555   1.612   0.897 -0.4629  0.1581 -0.1299
20115TIP3    H181836   2.646   1.603   0.926 -0.2992  1.9860  0.0007
20115TIP3    H281837   2.505   1.630   0.976 -0.8856 -0.3214 -0.2747
20116TIP3   OH281838   2.593   5.788   4.681 -0.1980 -0.5399 -0.2245
20116TIP3    H181839   2.562   5.703   4.711 -0.4298 -0.2604  0.3462
20116TIP3    H281840   2.576   5.788   4.587 -0.7440 -0.8948 -0.1323
20117TIP3   OH281841   3.627   4.939   0.706 -0.4268  0.6193 -0.5284
20117TIP3    H181842   3.567   5.000   0.663  0.2369 -0.1576 -2.7065
20117TIP3    H281843   3.668   4.990   0.775 -2.0813  1.7389 -0.3197
20118TIP3   OH281844   2.593   2.836   6.076 -0.0655  0.7662  0.2693
20118TIP3    H181845   2.590   2.926   6.107  0.1017  1.3847 -1.3971
20118TIP3    H281846   2.685   2.823   6.051 -0.3447  0.5902 -0.7127
20119TIP3   OH281847   4.568   1.297   4.496  0.1228  0.5682 -0.7438
20119TIP3    H181848   4.557   1.219   4.550  1.8246  1.0665  0.3729
20119TIP3    H281849   4.479   1.331   4.486 -0.2803  0.5436  1.9113
20120TIP3   OH281850   4.578   2.698  16.286  0.1997  0.0636  0.1879
20120TIP3    H181851   4.667   2.661  16.285  0.9705  1.7670  1.0955
20120TIP3    H281852   4.572   2.744  16.369 -1.5287  0.0601  0.1023
20121TIP3   OH281853   2.099   6.287   2.723 -0.3746  0.0772  0.1612
20121TIP3    H181854   2.022   6.314   2.675 -2.1384 -2.2851  1.4648
20121TIP3    H281855   2.150   6.234   2.661 -1.0855 -0.4299  0.0049
20122TIP3   OH281856   6.794   1.254   2.544 -0.4090  0.4462  0.7782
20122TIP3    H181857   6.770   1.241   2.452  0.9834 -3.0242  0.7471
20122TIP3    H281858   6.887   1.279   2.541 -0.7471  1.8139  1.2308
20123TIP3   OH281859   4.316   6.305  12.525  0.4029  0.2487 -0.0034
20123TIP3    H181860   4.391   6.246  12.537 -1.0161 -1.6111  0.1868
20123TIP3    H281861   4.337   6.354  12.445  1.9249 -0.0222  0.1883
20124TIP3   OH281862   4.978   3.543   5.372  0.1311 -0.0988  0.2066
20124TIP3    H181863   5.003   3.617   5.428 -0.4448 -1.3584  2.2418
20124TIP3    H281864   5.050   3.534   5.310  1.0843  1.0210  1.1057
20125TIP3   OH281865   0.125   2.413   0.231  0.0713  0.0129  0.0013
20125TIP3    H181866   0.200   2.374   0.186 -0.0972 -0.4598  0.1275
20125TIP3    H281867   0.052   2.404   0.170  0.5512  2.4776 -1.0773
20126TIP3   OH281868   1.920   4.771   1.549  0.0775 -0.0371  0.4848
20126TIP3    H181869   1.888   4.826   1.621 -1.3963  0.0509 -0.1963
20126TIP3    H281870   1.908   4.825   1.471  0.7285 -0.4993  0.0616
20127TIP3   OH281871   1.606   0.207   1.654  0.3054  0.4983  0.3245
20127TIP3    H181872   1.649   0.217   1.739  1.0701  2.3860 -0.2271
20127TIP3    H281873   1.677   0.216   1.590 -0.3028 -0.6032 -0.5434
20128TIP3   OH281874   0.727   4.724   4.215  0.3505  0.3508 -0.5823
20128TIP3    H181875   0.666   4.703   4.144 -0.5314  2.5687 -0.5684
20128TIP3    H281876   0.733   4.643   4.266 -1.8461 -0.2257 -1.1331
20129TIP3   OH281877   0.184   3.093   4.561 -0.5570  0.0226  0.2871
20129TIP3    H181878   0.214   3.011   4.520  1.3668  0.7579  0.1154
20129TIP3    H281879   0.171   3.153   4.487  1.6187  0.9425  0.5609
20130TIP3   OH281880   0.710   5.101  14.926  0.1830 -0.3530  0.4090
20130TIP3    H181881   0.717   5.006  14.917 -1.7256 -0.5690  0.7184
20130TIP3    H281882   0.642   5.114  14.992 -0.5441  1.2078 -0.5755
20131TIP3   OH281883   2.163   0.303  15.339  0.3926  0.1693  0.0268
20131TIP3    H181884   2.171   0.290  15.434  3.2493  0.2957 -0.1047
20131TIP3    H281885   2.167   0.398  15.328 -3.1065  0.4052 -0.1036
20132TIP3   OH281886   2.844   4.698  11.574 -0.2593  0.0551  0.2969
20132TIP3    H181887   2.930   4.657  11.587 -1.2568 -1.5591  2.4455
20132TIP3    H281888   2.825   4.683  11.482  1.3962 -0.3121 -0.0216
20133TIP3   OH281889   5.736   1.294   3.403 -0.8509  0.1029 -0.4978
20133TIP3    H181890   5.680   1.319   3.330  0.4682 -0.7075 -1.8357
20133TIP3    H281891   5.810   1.355   3.400 -1.0869  0.4738  0.5816
20134TIP3   OH281892   4.112   1.732  14.531  0.0047 -0.2879 -0.2364
20134TIP3    H181893   4.156   1.691  14.456 -2.2902  0.6488 -2.2400
20134TIP3    H281894   4.138   1.824  14.526 -2.2904  0.3806 -1.7242
20135TIP3   OH281895   3.793   0.031  12.083 -0.3172 -0.2927  0.2083
20135TIP3    H181896   3.788  -0.065  12.086  0.2094 -0.3272  0.0916
20135TIP3    H281897   3.755   0.054  11.999  0.4435 -0.4722 -0.2004
20136TIP3   OH281898   0.979   1.506  14.424  0.0831  0.0232 -0.6023
20136TIP3    H181899   0.967   1.601  14.414 -1.0578  0.0480  0.7608
20136TIP3    H281900   1.022   1.480  14.343 -0.4705  1.5603 -1.4484
20137TIP3   OH281901   5.465   5.384   5.573 -0.4315  0.0281 -0.3019
20137TIP3    H181902   5.397   5.371   5.640  0.0514 -1.0901 -0.0232
20137TIP3    H281903   5.547   5.369   5.619  0.0708  1.9157 -0.5036
20138TIP3   OH281904   4.849   2.599   4.211  0.0011 -0.6154  0.1491
20138TIP3    H181905   4.880   2.574   4.124  1.1094 -1.2244  0.6981
20138TIP3    H281906   4.778   2.538   4.229  2.2979 -3.1492  1.2303
20139TIP3   OH281907   5.391   0.056   2.012 -0.2532 -0.2424 -0.0121
20139TIP3    H181908   5.474   0.044   1.967 -0.7383 -0.5841 -0.8426
20139TIP3    H281909   5.378   0.151   2.015  0.2548 -0.1827  0.2924
20140TIP3   OH281910   4.661   0.236  15.854  0.1753  0.1926  0.0660
20140TIP3    H181911   4.725   0.215  15.922  0.0792  2.4836  0.9515
20140TIP3    H281912   4.580   0.195  15.883  0.9437 -2.0233 -0.6445
20141TIP3   OH281913   0.424   6.186   4.366 -0.5455  0.2848 -0.5283
20141TIP3    H181914   0.344   6.206   4.317  0.3347  1.4571 -1.5356
20141TIP3    H281915   0.473   6.268   4.366 -0.5539  0.3953  2.4911
20142TIP3   OH281916   5.029   2.253  16.111 -0.1543  0.2303 -0.1740
20142TIP3    H181917   5.070   2.270  16.196 -0.7649 -0.3654  0.2448
20142TIP3    H281918   4.940   2.226  16.132 -0.0139 -0.8833 -0.9505
20143TIP3   OH281919   4.661   6.696  17.248 -0.2677 -0.0363  0.1327
20143TIP3    H181920   4.661   6.671  17.155  0.1998 -0.3905  0.2207
20143TIP3    H281921   4.745   6.664  17.281  0.1334  1.2184  0.3813
20144TIP3   OH281922   1.755   0.016  15.653 -0.1463 -0.0642  1.0397
20144TIP3    H181923   1.804  -0.028  15.584 -0.3118 -1.1089  1.5764
20144TIP3    H281924   1.790   0.105  15.655  0.2602 -0.1961  0.0096
20145TIP3   OH281925   4.464   1.736   5.476 -0.4583  0.2611 -0.1894
20145TIP3    H181926   4.434   1.782   5.398 -0.5910  0.9712  0.2730
20145TIP3    H281927   4.446   1.796   5.548  1.5520  0.5036  0.1739
20146TIP3   OH281928   3.929   2.209   3.000 -0.2614  0.6868 -0.5633
20146TIP3    H181929   3.928   2.302   3.022  1.0370  0.8799 -1.2247
20146TIP3    H281930   3.928   2.207   2.904  1.5128  0.1077 -0.6193
20147TIP3   OH281931   2.185   2.500   5.904  0.2781  0.3175 -0.4907
20147TIP3    H181932   2.265   2.549   5.922  0.2217  1.0234 -2.0089
20147TIP3    H281933   2.179   2.437   5.975  1.8594  0.6573 -0.0184
20148TIP3   OH281934   5.978   4.597   5.174 -0.1342  0.0961  0.1271
20148TIP3    H181935   5.925   4.522   5.200  1.8040 -1.8272 -1.1161
20148TIP3    H281936   6.046   4.602   5.241 -0.9693  1.6496  0.9250
20149TIP3   OH281937   0.974   2.513   5.923 -0.3623 -0.1401  0.2132
20149TIP3    H181938   1.041   2.511   5.991 -0.5888  1.9771  0.5591
20149TIP3    H281939   0.893   2.487   5.969 -0.2062 -0.4127  0.3379
20150TIP3   OH281940   3.828   0.912  15.112 -0.5830 -0.1416  0.1002
20150TIP3    H181941   3.847   1.001  15.080  0.1266 -0.0813  0.6437
20150TIP3    H281942   3.809   0.924  15.205 -0.5539 -0.5549  0.1609
20151TIP3   OH281943   0.309   5.257  12.469 -0.3923 -0.3954  0.0482
20151TIP3    H181944   0.237   5.284  12.526 -2.0946 -1.4517 -1.4750
20151TIP3    H281945   0.284   5.290  12.382  1.6581  0.3756 -0.2913
20152TIP3   OH281946   4.762   2.513  11.123  0.3784 -0.1223  0.0157
20152TIP3    H181947   4.700   2.550  11.060 -0.0279 -0.3421  0.2770
20152TIP3    H281948   4.721   2.431  11.151  1.7975 -1.3821 -1.4403
20153TIP3   OH281949   2.958   4.853   6.192  0.1216  0.2584 -0.0590
20153TIP3    H181950   2.936   4.909   6.267  0.4202 -1.2841  1.2494
20153TIP3    H281951   3.035   4.894   6.153 -0.1871  1.2270  0.3291
20154TIP3   OH281952   2.362   6.126  14.551 -0.0632  0.1577  0.2814
20154TIP3    H181953   2.399   6.039  14.542  1.4485  0.6905  1.0291
20154TIP3    H281954   2.327   6.128  14.641  0.7867  0.6134  0.6175
20155TIP3   OH281955   3.093   1.806  14.626  0.1659 -0.1285  0.1623
20155TIP3    H181956   3.037   1.729  14.615 -1.5915  1.2103 -0.7059
20155TIP3    H281957   3.100   1.816  14.721 -0.9864 -0.4217  0.3010
20156TIP3   OH281958   5.839   6.336   3.151 -0.5177 -0.0191 -0.0556
20156TIP3    H181959   5.809   6.392   3.223 -1.0772 -2.1928  1.5134
20156TIP3    H281960   5.770   6.341   3.085 -1.1709  0.1447  0.6316
20157TIP3   OH281961   6.279   4.865  13.179  0.2703  0.5286 -0.1450
20157TIP3    H181962   6.314   4.798  13.119 -0.0007 -0.4599  0.7672
20157TIP3    H281963   6.259   4.817  13.259  3.6483  2.3386  2.0101
20158TIP3   OH281964   6.542   1.428  11.250  0.2955  0.0047  0.3758
20158TIP3    H181965   6.506   1.475  11.325  0.4358  0.8934 -0.1046
20158TIP3    H281966   6.626   1.394  11.281 -0.7083 -1.7135  1.3664
20159TIP3   OH281967   1.671   3.075  11.238 -0.3793  0.6676 -0.3990
20159TIP3    H181968   1.704   3.118  11.160  3.4780 -0.9172  0.1242
20159TIP3    H281969   1.713   3.121  11.311 -2.3086  0.8423  0.6941
20160TIP3   OH281970   0.532   2.163  15.493  0.6830 -0.4523 -0.6364
20160TIP3    H181971   0.595   2.216  15.445  0.0106 -0.5098 -1.6057
20160TIP3    H281972   0.458   2.152  15.433 -0.1647 -0.5648  0.3861
20161TIP3   OH281973   1.232   4.330   1.674 -0.3150 -0.1340 -0.3572
20161TIP3    H181974   1.277   4.371   1.748 -0.1753 -0.8732 -0.0220
20161TIP3    H281975   1.285   4.352   1.598 -0.2369  0.2922 -0.1831
20162TIP3   OH281976   0.882   3.965  11.528 -0.1712  0.2364 -0.1648
20162TIP3    H181977   0.803   3.922  11.495 -2.2759  2.9426  0.9691
20162TIP3    H281978   0.942   3.967  11.453 -0.5457 -3.0751 -0.6819
20163TIP3   OH281979   5.835   2.792  14.348  0.2548 -0.0902  0.1537
20163TIP3    H181980   5.787   2.851  14.406  0.2071 -0.0197  0.0421
20163TIP3    H281981   5.874   2.727  14.407 -1.0398 -0.9126  0.1367
20164TIP3   OH281982   0.322   3.249  10.987 -0.4690 -0.0146  0.2173
20164TIP3    H181983   0.369   3.293  10.917 -0.5275 -0.1770  0.0737
20164TIP3    H281984   0.275   3.178  10.943 -1.3240  0.5051  0.2600
20165TIP3   OH281985   0.202   5.815   3.521  0.2030  0.1521 -0.5708
20165TIP3    H181986   0.218   5.817   3.615 -0.6505 -0.8914 -0.3802
20165TIP3    H281987   0.154   5.733   3.507 -1.3951  1.2016 -1.6136
20166TIP3   OH281988   5.590   1.622  16.817  0.3462  0.6234  0.4762
20166TIP3    H181989   5.664   1.683  16.827  0.9589 -0.3072  2.1316
20166TIP3    H281990   5.611   1.551  16.877 -1.2946 -0.2916  0.0027
20167TIP3   OH281991   6.506   5.329  16.086  0.2066  0.3815 -0.0429
20167TIP3    H181992   6.447   5.400  16.112 -0.9139 -0.1771 -0.9773
20167TIP3    H281993   6.448   5.258  16.060  1.3162 -0.6512  0.2440
20168TIP3   OH281994   3.190   5.310  12.160 -0.3723  0.2085 -0.1930
20168TIP3    H181995   3.101   5.333  12.186  0.2847  0.7439  1.7661
20168TIP3    H281996   3.185   5.217  12.135 -0.9448 -0.7156  2.9502
20169TIP3   OH281997   0.955   5.030   0.752  0.1068 -0.5921 -0.3126
20169TIP3    H181998   0.975   5.123   0.737 -1.8606 -0.2175 -0.8677
20169TIP3    H281999   1.030   4.984   0.715  1.3614  0.7689  0.4074
20170TIP3   OH282000   0.485   5.273   5.364 -0.1164 -0.0232  0.1581
20170TIP3    H182001   0.408   5.258   5.420  0.5311 -0.1133  1.0375
20170TIP3    H282002   0.560   5.261   5.422  0.5678  0.2232 -0.6556
20171TIP3   OH282003   5.829   2.098   4.774 -0.1135  0.2301  0.2653
20171TIP3    H182004   5.786   2.176   4.811 -0.7361 -0.8473  1.9484
20171TIP3    H282005   5.802   2.096   4.683 -0.1564  1.9322  0.2083
20172TIP3   OH282006   0.330   6.693  12.571  0.1268  0.2755 -0.0277
20172TIP3    H182007   0.333   6.607  12.530 -2.2042  0.4097 -0.6626
20172TIP3    H282008   0.284   6.748  12.508 -2.0683  0.9163  1.9607
20173TIP3   OH282009   5.377   5.373   0.744  0.3154 -0.9494  0.5579
20173TIP3    H182010   5.300   5.316   0.752 -1.0928  0.8564  0.4070
20173TIP3    H282011   5.406   5.361   0.653 -1.1698 -0.0174 -0.0778
20174TIP3   OH282012   2.077   5.116  13.162 -0.2097 -1.0880 -0.4301
20174TIP3    H182013   1.999   5.162  13.194  0.3018 -0.1945 -0.4233
20174TIP3    H282014   2.060   5.102  13.069 -0.6211 -1.4115 -0.3075
20175TIP3   OH282015   2.030   5.544  15.390  0.4890  0.1864  0.1427
20175TIP3    H182016   1.943   5.504  15.381  1.3952 -1.9706  0.3804
20175TIP3    H282017   2.058   5.562  15.301  0.7225 -1.2917 -0.1052
20176TIP3   OH282018   3.526   1.882   5.918  0.1021 -0.4844 -0.1547
20176TIP3    H182019   3.540   1.828   5.840  0.5886 -0.4929 -0.0612
20176TIP3    H282020   3.602   1.865   5.974  0.7832  1.0472 -0.5524
20177TIP3   OH282021   1.187   2.147   4.650  0.2031  0.3597 -0.3672
20177TIP3    H182022   1.125   2.202   4.602  1.1017  1.5775 -0.1729
20177TIP3    H282023   1.233   2.098   4.582 -0.3956  0.0384 -0.5568
20178TIP3   OH282024   2.776   1.938   4.320  0.5419 -0.4625 -0.2710
20178TIP3    H182025   2.735   2.013   4.363  1.7405  0.2795 -0.3768
20178TIP3    H282026   2.706   1.899   4.268 -0.6653 -0.7209  1.4540
20179TIP3   OH282027   6.694   3.196  16.658 -0.0763  1.6003  0.5905
20179TIP3    H182028   6.622   3.234  16.607 -1.2447 -1.2196 -0.1016
20179TIP3    H282029   6.714   3.261  16.725 -2.2061  3.1385 -0.1565
20180TIP3   OH282030   2.671   0.481  15.684  0.3224 -0.5374 -0.0618
20180TIP3    H182031   2.746   0.423  15.697  0.0921 -0.8466 -0.0655
20180TIP3    H282032   2.596   0.428  15.712  0.0484 -0.4438 -0.5948
20181TIP3   OH282033   1.253   1.473   3.091 -0.0497 -0.4779  0.4241
20181TIP3    H182034   1.203   1.541   3.135 -2.0681 -1.5645 -0.0570
20181TIP3    H282035   1.274   1.410   3.160 -2.5253 -1.7853  0.0951
20182TIP3   OH282036   1.901   0.388  11.893 -0.1295 -0.0852 -0.2129
20182TIP3    H182037   1.831   0.368  11.955  1.2717 -0.3277  1.3929
20182TIP3    H282038   1.969   0.322  11.913  2.2652  2.5998  1.2302
20183TIP3   OH282039   0.185   5.515  14.203  0.0292  0.2621  0.2295
20183TIP3    H182040   0.095   5.523  14.236 -0.4782  1.7571 -1.3588
20183TIP3    H282041   0.219   5.436  14.245 -2.0705 -0.4140  0.7841
20184TIP3   OH282042   0.146   6.791  12.984 -0.3722  0.4635 -0.6830
20184TIP3    H182043   0.193   6.738  12.920 -0.9944  1.9649 -2.4789
20184TIP3    H282044   0.215   6.838  13.032  0.0646  0.2993 -1.1432
20185TIP3   OH282045   2.147   5.930   5.947  0.0617 -0.0428  0.6638
20185TIP3    H182046   2.139   5.882   6.029 -3.1179 -0.7256  0.0902
20185TIP3    H282047   2.059   5.966   5.932  0.1749 -0.8937 -2.9740
20186TIP3   OH282048   6.142   1.736  11.933 -0.3712  0.1616 -0.6091
20186TIP3    H182049   6.117   1.787  12.010  2.2534  2.3975 -1.0887
20186TIP3    H282050   6.059   1.719  11.888 -1.5557  2.6907  0.4013
20187TIP3   OH282051   1.460   4.710   1.628  0.3270  0.1905 -0.0467
20187TIP3    H182052   1.531   4.760   1.668  0.4383  0.6071 -0.7464
20187TIP3    H282053   1.432   4.649   1.696 -0.1011  1.4877  0.9621
20188TIP3   OH282054   5.492   2.639   3.708  0.7518 -0.0504 -0.0087
20188TIP3    H182055   5.428   2.570   3.691  1.9028 -0.7860 -1.5789
20188TIP3    H282056   5.440   2.712   3.742 -1.2441 -0.0302 -2.7185
20189TIP3   OH282057   5.941   4.955  10.501 -0.1177  0.3787 -0.2346
20189TIP3    H182058   5.951   4.972  10.408 -1.3661 -0.1013 -0.4682
20189TIP3    H282059   5.985   5.029  10.544  1.8769 -0.1755 -1.1602
20190TIP3   OH282060   0.999   4.435   5.543  0.8264  0.0355 -0.0799
20190TIP3    H182061   1.067   4.379   5.505  2.0170 -0.1202  2.1274
20190TIP3    H282062   1.047   4.509   5.579 -0.4456  1.0609 -0.4149
20191TIP3   OH282063   5.910   0.756   1.728  0.1368 -0.2188  0.2034
20191TIP3    H182064   5.907   0.661   1.716  0.1379 -0.1034 -0.7907
20191TIP3    H282065   5.905   0.792   1.640 -0.1915  0.7220  0.5859
20192TIP3   OH282066   0.286   0.804   2.929  0.1023  0.7755 -0.0760
20192TIP3    H182067   0.279   0.767   2.841 -0.1076  1.2234 -0.2522
20192TIP3    H282068   0.359   0.866   2.923  1.0879 -0.2814  0.4663
20193TIP3   OH282069   5.335   1.661  13.856  0.0877  0.5152 -0.3472
20193TIP3    H182070   5.322   1.755  13.863  0.4586  0.6133 -0.9224
20193TIP3    H282071   5.250   1.623  13.878 -0.1950  1.0035 -0.5904
20194TIP3   OH282072   4.839   3.948  17.051 -0.5917 -0.5004  0.5222
20194TIP3    H182073   4.932   3.935  17.071 -0.1376  0.2690 -0.9367
20194TIP3    H282074   4.815   3.871  16.999  0.1875  0.8392 -1.9936
20195TIP3   OH282075   3.028   1.922  11.073  1.0185  0.0138 -0.1212
20195TIP3    H182076   3.075   1.957  10.997  1.1457  1.1921  0.4699
20195TIP3    H282077   2.962   1.988  11.094 -0.1656 -1.0913 -0.2339
20196TIP3   OH282078   1.593   5.141  11.223 -0.3505 -0.7620  0.4875
20196TIP3    H182079   1.509   5.136  11.177 -1.6568  0.3986  2.5461
20196TIP3    H282080   1.614   5.050  11.244 -2.7228 -0.9548  2.5177
20197TIP3   OH282081   1.745   1.855   4.954 -0.6016  0.2182  0.0918
20197TIP3    H182082   1.761   1.790   5.022 -0.0407  1.4925  1.2253
20197TIP3    H282083   1.833   1.882   4.925 -0.8282 -0.3225 -1.1884
20198TIP3   OH282084   5.336   5.790  12.613 -0.3106  0.2819  0.0322
20198TIP3    H182085   5.420   5.746  12.626 -0.5065 -0.3944 -0.8751
20198TIP3    H282086   5.358   5.882  12.601  0.4645 -0.0849 -1.6414
20199TIP3   OH282087   3.872   3.990  14.615 -0.1941 -0.3336 -0.0869
20199TIP3    H182088   3.840   3.905  14.642 -2.1873  0.5166  0.4149
20199TIP3    H282089   3.877   3.985  14.519  1.7160 -1.6182  0.0151
20200TIP3   OH282090   1.935   5.914   4.906  0.1126 -0.0766 -0.1956
20200TIP3    H182091   1.915   5.998   4.945  3.8805  1.0454 -0.3150
20200TIP3    H282092   1.992   5.934   4.832  0.0724 -2.6770 -1.0593
20201TIP3   OH282093   4.749   1.311   3.187  0.1854  0.5804  0.3002
20201TIP3    H182094   4.766   1.405   3.176 -1.7436  0.9103 -0.1760
20201TIP3    H282095   4.684   1.307   3.257 -0.4705 -0.3188 -0.3373
20202TIP3   OH282096   1.736   5.040  14.504 -0.5258  0.6920  0.1593
20202TIP3    H182097   1.767   5.071  14.419 -0.4984 -3.3270 -1.5350
20202TIP3    H282098   1.815   5.011  14.550 -0.5277  2.9289  1.7390
20203TIP3   OH282099   6.664   0.323  11.634 -0.0650  0.3822 -0.7488
20203TIP3    H182100   6.588   0.375  11.662 -0.1664 -0.9427  1.7563
20203TIP3    H282101   6.628   0.256  11.576 -0.6741  0.3546 -0.3501
20204TIP3   OH282102   1.731   4.330   6.444  0.6540 -0.1557  0.1782
20204TIP3    H182103   1.767   4.418   6.446 -0.0273  0.1189  0.8399
20204TIP3    H282104   1.657   4.335   6.383  0.7754 -0.3393  0.0121
20205TIP3   OH282105   4.971   1.793   3.132  0.2006 -0.8183  0.0119
20205TIP3    H182106   4.924   1.782   3.215 -0.7777  2.6458  0.1061
20205TIP3    H282107   4.902   1.817   3.069  1.2957 -0.2615 -1.0027
20206TIP3   OH282108   5.216   6.247   3.061  0.1622 -0.8925  0.0235
20206TIP3    H182109   5.225   6.184   2.989 -0.8533 -2.5790  1.3014
20206TIP3    H282110   5.263   6.207   3.134 -1.1130 -0.5485  1.0807
20207TIP3   OH282111   5.638   5.945   4.411  0.3548  0.2763 -0.4722
20207TIP3    H182112   5.558   5.985   4.377  1.3281  1.1742 -1.7791
20207TIP3    H282113   5.684   6.015   4.456 -0.5980 -0.7429  2.3301
20208TIP3   OH282114   2.795   2.847   0.999 -0.0255 -0.2301  0.3475
20208TIP3    H182115   2.810   2.932   1.041  1.3399 -1.1513  1.8486
20208TIP3    H282116   2.812   2.863   0.906  1.2508  0.9301  0.7471
20209TIP3   OH282117   1.204   5.027   0.290 -0.2163 -0.3077  0.2342
20209TIP3    H182118   1.117   5.062   0.307  0.0301  1.5995 -2.0483
20209TIP3    H282119   1.188   4.943   0.248 -0.9102 -0.4521  0.7608
20210TIP3   OH282120   6.081   2.217  12.746 -0.5449 -0.3575  0.0853
20210TIP3    H182121   6.022   2.159  12.794 -1.5234  0.6362  0.0981
20210TIP3    H282122   6.040   2.230  12.661 -0.6763  0.8327  0.3107
20211TIP3   OH282123   5.962   4.862  16.437  0.2882 -0.4590 -0.2077
20211TIP3    H182124   6.013   4.938  16.411  2.8322 -1.5641  1.2254
20211TIP3    H282125   5.980   4.796  16.371  0.0322 -0.5870 -0.1518
20212TIP3   OH282126   1.459   3.126   0.813  0.4544  0.5543  0.1396
20212TIP3    H182127   1.532   3.082   0.857  0.4709  1.0018  0.5736
20212TIP3    H282128   1.481   3.219   0.819 -0.4851  0.7383  0.8789
20213TIP3   OH282129   0.222   5.272   4.610  0.2617  0.1222 -0.0847
20213TIP3    H182130   0.296   5.235   4.561  2.1240  1.3089  1.6751
20213TIP3    H282131   0.237   5.366   4.607 -0.7106  0.3251  1.0703
20214TIP3   OH282132   6.801   4.653  15.621 -0.4376 -0.2024  0.6115
20214TIP3    H182133   6.770   4.669  15.710  1.5225 -1.2790  1.5471
20214TIP3    H282134   6.843   4.567  15.625 -1.0966 -0.7064 -1.5987
20215TIP3   OH282135   6.556   3.676  14.168 -0.3475 -0.3618 -0.2225
20215TIP3    H182136   6.636   3.692  14.217 -1.4505  2.9574  0.6829
20215TIP3    H282137   6.486   3.676  14.233 -1.4708  0.5837 -1.3723
20216TIP3   OH282138   1.378   3.418  11.727 -0.0577  0.1764 -0.0220
20216TIP3    H182139   1.425   3.494  11.763  2.5755 -2.0498  1.6582
20216TIP3    H282140   1.404   3.415  11.635 -1.4110  2.0621 -0.5339
20217TIP3   OH282141   5.588   6.381   5.340 -0.1961  0.3882  0.4898
20217TIP3    H182142   5.569   6.381   5.434  0.4616  2.5470  0.6747
20217TIP3    H282143   5.682   6.364   5.334 -0.1469  0.7298  0.2577
20218TIP3   OH282144   3.920   3.570  16.396  0.1199 -0.1734 -0.3282
20218TIP3    H182145   3.881   3.645  16.352  0.0284  0.2608  0.4634
20218TIP3    H282146   3.984   3.535  16.334 -0.0898  0.3398 -0.8407
20219TIP3   OH282147   4.826   1.911  14.071 -0.2535 -0.2449 -0.4640
20219TIP3    H182148   4.751   1.861  14.104 -0.2865 -0.0847 -0.2928
20219TIP3    H282149   4.789   1.967  14.003 -0.4003  0.2500  0.0145
20220TIP3   OH282150   1.974   1.784  14.573  0.2657 -0.1547 -0.2836
20220TIP3    H182151   1.998   1.843  14.645 -1.4125 -0.2490  0.3815
20220TIP3    H282152   1.909   1.725  14.611 -0.9247  0.0195 -1.9717
20221TIP3   OH282153   1.916   1.426   5.532 -0.1902 -0.1779 -0.4656
20221TIP3    H182154   1.964   1.403   5.453 -0.0060 -0.4679 -0.2721
20221TIP3    H282155   1.912   1.344   5.582 -1.2037 -0.2521 -0.6506
20222TIP3   OH282156   2.402   5.517   2.030  0.7239 -0.3346 -0.8981
20222TIP3    H182157   2.350   5.454   2.081  0.0556  0.1613 -0.9551
20222TIP3    H282158   2.480   5.467   2.004  0.9868 -0.6712  0.4083
20223TIP3   OH282159   5.998   4.095  16.908  0.1796  0.0759  0.3472
20223TIP3    H182160   6.049   4.014  16.904  0.7672  0.4413 -3.6279
20223TIP3    H282161   6.062   4.165  16.903 -0.4283  0.7789  1.8726
20224TIP3   OH282162   3.773   2.729   3.172  0.4270  0.0246 -0.7785
20224TIP3    H182163   3.685   2.714   3.208 -0.1078 -1.1000 -2.4121
20224TIP3    H282164   3.801   2.812   3.211 -0.0990 -1.0136  2.0642
20225TIP3   OH282165   2.072   0.573  15.344  0.2723  0.0224 -0.3404
20225TIP3    H182166   1.986   0.606  15.319  1.2214  1.0927 -2.4322
20225TIP3    H282167   2.123   0.651  15.363  0.5379 -0.6404  2.0121
20226TIP3   OH282168   5.298   3.831   0.187  0.1021 -0.1439  0.0086
20226TIP3    H182169   5.314   3.901   0.125 -0.5434 -2.1770 -2.6080
20226TIP3    H282170   5.378   3.778   0.186 -0.8777 -1.6865 -1.2494
20227TIP3   OH282171   0.243   3.103  15.480 -0.4949 -0.4352 -0.4719
20227TIP3    H182172   0.163   3.060  15.448 -1.1631  0.1496  0.3872
20227TIP3    H282173   0.310   3.034  15.475 -1.1567 -1.0757 -0.7566
20228TIP3   OH282174   4.069   1.458  15.713 -0.6594  0.2024 -0.6935
20228TIP3    H182175   3.994   1.497  15.668 -0.5741 -1.0081 -1.9477
20228TIP3    H282176   4.040   1.446  15.803 -1.4604  1.0475 -0.8233
20229TIP3   OH282177   2.749   0.860  12.728  0.3111  0.2960  0.2363
20229TIP3    H182178   2.798   0.938  12.704  1.2391  0.0758  1.3402
20229TIP3    H282179   2.815   0.801  12.764 -0.8290  0.1754  2.2460
20230TIP3   OH282180   6.249   5.697  16.256 -0.1549  0.0280  0.1808
20230TIP3    H182181   6.319   5.745  16.300  0.9592  0.0891 -1.5287
20230TIP3    H282182   6.184   5.764  16.235 -0.7384 -0.0186  1.7401
20231TIP3   OH282183   2.607   0.053  17.024 -0.5170 -0.5708  0.5573
20231TIP3    H182184   2.657   0.008  16.956  1.1936  2.7260 -0.5800
20231TIP3    H282185   2.673   0.103  17.073 -2.3606  1.6741  0.8851
20232TIP3   OH282186   5.600   2.191  16.219  0.4017 -0.0954 -0.1568
20232TIP3    H182187   5.512   2.156  16.227 -0.6666  2.4289  0.1740
20232TIP3    H282188   5.606   2.221  16.129  0.5256  0.6566  0.0905
20233TIP3   OH282189   2.226   3.895  14.781 -0.7188 -0.0136 -0.0074
20233TIP3    H182190   2.206   3.860  14.694 -0.0724 -1.1732  0.2842
20233TIP3    H282191   2.219   3.820  14.839  0.3842  0.4055  0.7079
20234TIP3   OH282192   3.833   1.797   0.844 -0.2297 -0.5101 -0.4520
20234TIP3    H182193   3.913   1.787   0.793  0.1194  0.1427 -0.0378
20234TIP3    H282194   3.765   1.812   0.779  0.5222  2.4844 -0.7096
20235TIP3   OH282195   4.255   4.042  12.545 -0.2679  0.2864  0.7941
20235TIP3    H182196   4.314   3.994  12.487  0.0218 -0.9530  2.0594
20235TIP3    H282197   4.190   4.081  12.486 -0.4766 -1.6086 -0.3216
20236TIP3   OH282198   4.538   0.839  11.339  0.6525 -0.1729  0.0634
20236TIP3    H182199   4.514   0.747  11.346 -2.7231  0.5789  0.1238
20236TIP3    H282200   4.531   0.858  11.245 -1.7503  0.6328  0.3380
20237TIP3   OH282201   6.568   0.400   3.786 -0.2765  0.5280  0.0832
20237TIP3    H182202   6.478   0.378   3.810 -0.2326 -2.9107 -2.3297
20237TIP3    H282203   6.570   0.496   3.789 -3.4603  0.6939  1.8683
20238TIP3   OH282204   2.305   2.953  15.852  0.1698  0.5980  0.1938
20238TIP3    H182205   2.364   2.888  15.813 -1.5450 -0.6385 -0.4411
20238TIP3    H282206   2.263   2.996  15.778 -2.8014 -1.4780  0.5283
20239TIP3   OH282207   4.903   0.641   3.435  0.1768 -0.8108  0.7283
20239TIP3    H182208   4.978   0.665   3.490 -0.2407 -1.9626  1.8679
20239TIP3    H282209   4.868   0.562   3.476  0.1903 -2.0943 -1.5516
20240TIP3   OH282210   4.968   1.368   5.971  0.0353  0.5257  0.3373
20240TIP3    H182211   4.877   1.395   5.982  0.2214  0.9633  0.8189
20240TIP3    H282212   4.972   1.335   5.882 -0.1915  2.0988 -0.2732
20241TIP3   OH282213   2.414   5.764   1.674 -0.2940  0.5966  0.4932
20241TIP3    H182214   2.386   5.822   1.603 -2.1139 -0.1525  0.5439
20241TIP3    H282215   2.335   5.750   1.726  0.3379 -1.1351  1.0441
20242TIP3   OH282216   2.387   0.609  14.732 -0.1879  0.3938  1.0553
20242TIP3    H182217   2.424   0.547  14.671 -0.6106  1.1629 -0.0203
20242TIP3    H282218   2.459   0.668  14.754 -0.5347  1.4495 -0.4660
20243TIP3   OH282219   0.750   6.628   4.986 -0.1505  0.2828 -0.5725
20243TIP3    H182220   0.815   6.599   5.049 -3.5123 -0.9336  2.6889
20243TIP3    H282221   0.743   6.722   5.000 -0.0367  0.2037  0.0299
20244TIP3   OH282222   1.909   0.273   2.078  0.6391  0.2729  0.3772
20244TIP3    H182223   1.987   0.239   2.122  0.0557  1.7919  2.7587
20244TIP3    H282224   1.836   0.232   2.124  0.0008  1.1343  0.1413
20245TIP3   OH282225   6.258   2.728  11.963 -0.2413 -0.5037 -0.0893
20245TIP3    H182226   6.246   2.635  11.980 -0.1305 -0.7217 -1.1558
20245TIP3    H282227   6.255   2.736  11.868 -2.7457  0.8963  0.0172
20246TIP3   OH282228   4.513   1.638   5.109  0.2400  0.0671 -0.1041
20246TIP3    H182229   4.593   1.599   5.144 -0.7476 -1.2504  0.7469
20246TIP3    H282230   4.466   1.566   5.069 -0.2901  0.9301 -1.0963
20247TIP3   OH282231   5.990   0.883  16.387 -0.4726 -0.4550 -0.5601
20247TIP3    H182232   6.016   0.866  16.478  0.9858  0.3977 -0.7890
20247TIP3    H282233   5.903   0.922  16.394  0.0798  0.6395  0.5523
20248TIP3   OH282234   1.963   1.806   4.622  0.1628 -0.5751 -0.6854
20248TIP3    H182235   1.973   1.853   4.705 -0.2089 -1.8182  0.0913
20248TIP3    H282236   2.046   1.819   4.576  0.4103  0.0402 -0.0758
20249TIP3   OH282237   3.933   3.309  13.736 -0.9857 -0.6996  0.0747
20249TIP3    H182238   3.999   3.251  13.697 -0.0473  0.4044 -0.0425
20249TIP3    H282239   3.979   3.350  13.810 -1.4880  0.1996 -0.1033
20250TIP3   OH282240   0.386   5.030  16.819 -0.3750 -0.6688  0.1988
20250TIP3    H182241   0.355   5.017  16.730  0.5520  1.1718 -0.4575
20250TIP3    H282242   0.472   4.988  16.822  1.2719  2.2902 -1.0008
20251TIP3   OH282243   0.680   3.031   6.661  0.3675 -0.2877 -0.0561
20251TIP3    H182244   0.714   2.942   6.673 -1.5599 -1.0976 -0.2895
20251TIP3    H282245   0.624   3.045   6.738  0.2626  0.5410 -0.2762
20252TIP3   OH282246   4.857   1.895   1.482  0.1634 -0.1235  0.5417
20252TIP3    H182247   4.841   1.937   1.398  0.9197  1.3224  1.0813
20252TIP3    H282248   4.872   1.968   1.543 -0.4070 -1.1225  1.9440
20253TIP3   OH282249   5.194   0.101   0.921  0.1752 -0.4990 -0.0392
20253TIP3    H182250   5.170   0.015   0.886  1.9542 -1.2054  0.3377
20253TIP3    H282251   5.251   0.138   0.853 -0.6251  0.4335 -0.2234
20254TIP3   OH282252   1.887   1.329  15.944  0.2182 -0.0642  0.1143
20254TIP3    H182253   1.823   1.259  15.957 -0.6237  0.6775  0.0151
20254TIP3    H282254   1.876   1.354  15.852  0.4012  0.3067  0.1921
20255TIP3   OH282255   1.833   3.568   5.481  0.3522 -0.7233  0.2724
20255TIP3    H182256   1.815   3.609   5.396  1.0748  0.2956  0.5898
20255TIP3    H282257   1.746   3.544   5.514 -0.2044  1.2550  0.3883
20256TIP3   OH282258   5.095   1.558  16.787 -0.0822 -0.0436  0.6889
20256TIP3    H182259   5.028   1.545  16.720 -2.1349  1.0242  2.4192
20256TIP3    H282260   5.082   1.486  16.848  0.8096 -0.1945  0.7153
20257TIP3   OH282261   5.986   3.865   3.064 -0.3471 -0.1827 -0.5734
20257TIP3    H182262   5.948   3.811   3.134 -0.2397  0.6185  0.1248
20257TIP3    H282263   5.914   3.921   3.035  0.1135  0.9123  0.3310
20258TIP3   OH282264   0.322   3.606  15.731 -0.1415 -0.0718  0.3521
20258TIP3    H182265   0.274   3.583  15.810 -0.4874 -1.1866 -0.1556
20258TIP3    H282266   0.296   3.540  15.667  0.7096  0.3585 -0.4706
20259TIP3   OH282267   5.738   3.025   2.259 -0.2441 -0.5985 -0.0978
20259TIP3    H182268   5.747   2.962   2.187 -1.5162  0.2163 -1.0305
20259TIP3    H282269   5.703   3.103   2.217 -0.6261  0.0430  1.3559
20260TIP3   OH282270   5.162   2.610  11.961  0.1651 -0.0927  0.3642
20260TIP3    H182271   5.234   2.674  11.962 -0.4373  0.5911  0.9564
20260TIP3    H282272   5.134   2.603  12.052 -1.9262  1.2996 -0.0912
20261TIP3   OH282273   5.000   1.507   2.613  0.2280 -0.2109 -0.3805
20261TIP3    H182274   4.921   1.489   2.663 -0.1018 -1.3959 -1.3093
20261TIP3    H282275   4.980   1.588   2.565 -0.4924 -0.6104 -0.7606
20262TIP3   OH282276   3.426   2.048  14.533 -0.1335  0.6216  0.3832
20262TIP3    H182277   3.451   1.981  14.469 -2.0897  0.4066 -0.2000
20262TIP3    H282278   3.419   2.000  14.616 -1.3088  0.1223  0.0129
20263TIP3   OH282279   6.146   2.362  13.903 -0.4292 -0.4544  0.2633
20263TIP3    H182280   6.129   2.268  13.906 -0.2717 -0.4604  1.7774
20263TIP3    H282281   6.105   2.396  13.983  2.0468  0.3014  1.3002
20264TIP3   OH282282   3.874   4.235  14.777  0.2526  0.4100 -0.4414
20264TIP3    H182283   3.836   4.319  14.750  0.1654  0.7298  0.6414
20264TIP3    H282284   3.812   4.170  14.745 -2.2512  0.9832  2.7270
20265TIP3   OH282285   0.030   0.668   3.842  0.0973  0.1157  0.9369
20265TIP3    H182286   0.062   0.579   3.858  0.2149 -0.4270 -1.8126
20265TIP3    H282287  -0.065   0.657   3.836  0.0325  0.3553  1.4709
20266TIP3   OH282288   0.749   3.582   2.761  0.3939 -0.4336 -0.0266
20266TIP3    H182289   0.774   3.498   2.800  2.4797  0.9470  1.8724
20266TIP3    H282290   0.691   3.622   2.826  0.8351  0.3252 -0.0947
20267TIP3   OH282291   1.778   1.091   1.934  0.5238  0.5486  0.0860
20267TIP3    H182292   1.703   1.041   1.903 -0.0299  0.3195  1.6951
20267TIP3    H282293   1.813   1.133   1.856 -0.1823 -0.7794 -0.9848
20268TIP3   OH282294   5.151   6.651  13.183 -0.2211  0.1827  0.4334
20268TIP3    H182295   5.150   6.580  13.248 -1.3311  1.3384  1.7411
20268TIP3    H282296   5.098   6.618  13.110 -0.9094 -0.2611  1.1163
20269TIP3   OH282297   4.888   4.588  11.331 -0.3339  0.2544 -0.0316
20269TIP3    H182298   4.816   4.650  11.332  0.2449  0.9677 -1.0393
20269TIP3    H282299   4.862   4.522  11.267 -0.9810 -0.6116  1.0903
20270TIP3   OH282300   2.436   3.600   6.014  0.0290 -0.4722  0.0964
20270TIP3    H182301   2.341   3.586   6.014  0.0773 -1.0746  2.1191
20270TIP3    H282302   2.456   3.626   6.103  1.5536  1.4544 -0.7270
20271TIP3   OH282303   3.336   1.221  17.177  0.2933 -0.0123  0.2338
20271TIP3    H182304   3.424   1.225  17.215  0.2940 -1.2165  0.3908
20271TIP3    H282305   3.327   1.303  17.129  1.3113  0.3466  0.6265
20272TIP3   OH282306   0.634   4.033   3.150 -0.0346 -0.1442  0.2263
20272TIP3    H182307   0.677   3.990   3.224  0.3546  0.9578  0.6603
20272TIP3    H282308   0.575   4.097   3.190  1.3139  1.5692 -0.3941
20273LIG      O82309   4.828   1.975  16.367  0.0392 -0.4758  0.5932
20273LIG     C182310   4.927   1.906  16.439  0.1050  0.2583 -0.5680
20273LIG     C282311   5.055   1.881  16.354 -0.1154  0.4070  0.6605
20273LIG     C382312   4.953   1.988  16.561 -0.1451 -0.8101 -0.1355
20273LIG     H182313   4.878   1.808  16.459 -1.5636  1.3000  0.6211
20273LIG     H282314   5.023   1.807  16.277 -0.1510 -1.9003  2.7540
20273LIG     H382315   5.138   1.837  16.413  0.9566  1.1847 -0.2293
20273LIG     H482316   5.091   1.970  16.299 -0.5182  0.1229 -0.0913
20273LIG     H582317   4.998   2.087  16.536 -1.8044  0.1427  0.4680
20273LIG     H682318   5.012   1.931  16.637 -2.3624 -0.8702  1.6590
20273LIG     H782319   4.859   2.025  16.608  0.6855  4.8706 -2.1273
20273LIG     H882320   4.745   1.961  16.413 -1.4977 -0.4241 -1.9792
   6.82606   6.82606  17.28263
